
                                 *****************
                                 * O   R   C   A *
                                 *****************

           --- An Ab Initio, DFT and Semiempirical electronic structure package ---

                  #######################################################
                  #                        -***-                        #
                  #          Department of theory and spectroscopy      #
                  #               Directorship: Frank Neese             #
                  #        Max Planck Institute fuer Kohlenforschung    #
                  #                Kaiser Wilhelm Platz 1               #
                  #                 D-45470 Muelheim/Ruhr               #
                  #                      Germany                        #
                  #                                                     #
                  #                  All rights reserved                #
                  #                        -***-                        #
                  #######################################################


                         Program Version 4.2.0 -  RELEASE  -


 With contributions from (in alphabetic order):
   Daniel Aravena         : Magnetic Suceptibility
   Michael Atanasov       : Ab Initio Ligand Field Theory (pilot matlab implementation)
   Alexander A. Auer      : GIAO ZORA, VPT2
   Ute Becker             : Parallelization
   Giovanni Bistoni       : ED, misc. LED, open-shell LED, HFLED
   Martin Brehm           : Molecular dynamics
   Dmytro Bykov           : SCF Hessian
   Vijay G. Chilkuri      : MRCI spin determinant printing, contributions to CSF-ICE
   Dipayan Datta          : RHF DLPNO-CCSD density
   Achintya Kumar Dutta   : EOM-CC, STEOM-CC
   Dmitry Ganyushin       : Spin-Orbit,Spin-Spin,Magnetic field MRCI
   Miquel Garcia          : C-PCM Hessian, Gaussian charge scheme
   Yang Guo               : DLPNO-NEVPT2, CIM, IAO-localization
   Andreas Hansen         : Spin unrestricted coupled pair/coupled cluster methods
   Benjamin Helmich-Paris : CASSCF linear response (MC-RPA)
   Lee Huntington         : MR-EOM, pCC
   Robert Izsak           : Overlap fitted RIJCOSX, COSX-SCS-MP3, EOM
   Christian Kollmar      : KDIIS, OOCD, Brueckner-CCSD(T), CCSD density
   Simone Kossmann        : Meta GGA functionals, TD-DFT gradient, OOMP2, MP2 Hessian
   Martin Krupicka        : AUTO-CI
   Lucas Lang             : DCDCAS
   Dagmar Lenk            : GEPOL surface, SMD
   Dimitrios Liakos       : Extrapolation schemes; Compound Job, initial MDCI parallelization
   Dimitrios Manganas     : Further ROCIS development; embedding schemes
   Dimitrios Pantazis     : SARC Basis sets
   Taras Petrenko         : DFT Hessian,TD-DFT gradient, ASA, ECA, R-Raman, ABS, FL, XAS/XES, NRVS
   Peter Pinski           : DLPNO-MP2, DLPNO-MP2 Gradient
   Christoph Reimann      : Effective Core Potentials
   Marius Retegan         : Local ZFS, SOC
   Christoph Riplinger    : Optimizer, TS searches, QM/MM, DLPNO-CCSD(T), (RO)-DLPNO pert. Triples
   Tobias Risthaus        : Range-separated hybrids, TD-DFT gradient, RPA, STAB
   Michael Roemelt        : Original ROCIS implementation
   Masaaki Saitow         : Open-shell DLPNO-CCSD energy and density
   Barbara Sandhoefer     : DKH picture change effects
   Avijit Sen             : IP-ROCIS
   Kantharuban Sivalingam : CASSCF convergence, NEVPT2, FIC-MRCI
   Bernardo de Souza      : ESD, SOC TD-DFT
   Georgi Stoychev        : AutoAux, RI-MP2 NMR
   Willem Van den Heuvel  : Paramagnetic NMR
   Boris Wezisla          : Elementary symmetry handling
   Frank Wennmohs         : Technical directorship


 We gratefully acknowledge several colleagues who have allowed us to
 interface, adapt or use parts of their codes:
   Stefan Grimme, W. Hujo, H. Kruse,             : VdW corrections, initial TS optimization,
                  C. Bannwarth                     DFT functionals, gCP, sTDA/sTD-DF
   Ed Valeev, F. Pavosevic, A. Kumar             : LibInt (2-el integral package), F12 methods
   Garnet Chan, S. Sharma, J. Yang, R. Olivares  : DMRG
   Ulf Ekstrom                                   : XCFun DFT Library
   Mihaly Kallay                                 : mrcc  (arbitrary order and MRCC methods)
   Andreas Klamt, Michael Diedenhofen            : otool_cosmo (COSMO solvation model)
   Jiri Pittner, Ondrej Demel                    : Mk-CCSD
   Frank Weinhold                                : gennbo (NPA and NBO analysis)
   Christopher J. Cramer and Donald G. Truhlar   : smd solvation model
   Lars Goerigk                                  : TD-DFT with DH, B97 family of functionals
   V. Asgeirsson, H. Jonsson                     : NEB implementation
   FAccTs GmbH                                   : IRC, NEB, NEB-TS, Multilevel, MM, QM/MM, CI optimization
   S Lehtola, MJT Oliveira, MAL Marques          : LibXC Library


 Your calculation uses the libint2 library for the computation of 2-el integrals
 For citations please refer to: http://libint.valeyev.net

 Your ORCA version has been built with support for libXC version: 4.2.3
 For citations please refer to: https://tddft.org/programs/libxc/

 This ORCA versions uses:
   CBLAS   interface :  Fast vector & matrix operations
   LAPACKE interface :  Fast linear algebra routines
   SCALAPACK package :  Parallel linear algebra routines


----- Orbital basis set information -----
Your calculation utilizes the basis: def2-SVP
   F. Weigend and R. Ahlrichs, Phys. Chem. Chem. Phys. 7, 3297 (2005).

================================================================================
                                        WARNINGS
                       Please study these warnings very carefully!
================================================================================

INFO   : Checking CIS options ...

WARNING: CIS/ROCIS methods need fully converged wavefunctions
  ===> : Setting SCFConvForced true
         You can overwrite this default with %scf ConvForced false 


INFO   : the flag for use of LIBINT has been found!

================================================================================
                                       INPUT FILE
================================================================================
NAME = i-cc23.inp
|  1> # ORCA input file
|  2> # i-cc23.out: Geometry 69
|  3> ! Engrad Keepdens
|  4> %maxcore 1000
|  5> %tddft
|  6>   nroots 3 
|  7>   # nroots is the number of states to be computed
|  8>   Iroot 1
|  9>   end
| 10> * xyz 0 1
| 11>    C       -0.87374        -4.46936        -0.35846
| 12>    C        0.54846        -4.30082        -0.55204
| 13>    S        1.18972        -4.18798        -2.19157
| 14>    C        2.77167        -3.91136        -1.56851
| 15>    C        2.80843        -3.89564        -0.18563
| 16>    C        1.54108        -4.12317         0.40347
| 17>    C        4.06457        -3.60716        -2.13648
| 18>    C        4.96765        -3.44183        -1.05373
| 19>    C        4.22813        -3.59095         0.29693
| 20>    C        4.45759        -3.39465        -3.46170
| 21>    C        5.77147        -3.01940        -3.69223
| 22>    C        6.68809        -2.87135        -2.61938
| 23>    C        6.28830        -3.07794        -1.28858
| 24>    C        6.40476        -2.60736        -5.03280
| 25>    C        7.82536        -2.27802        -4.58308
| 26>    C        7.94182        -2.43270        -3.21100
| 27>    C        9.01043        -1.79898        -5.19408
| 28>    C       10.03032        -1.59501        -4.27806
| 29>    S        9.51394        -2.00458        -2.63772
| 30>    C        4.34048        -2.23193         1.00815
| 31>    C        4.73417        -4.73432         1.17982
| 32>    C        6.38966        -3.71759        -6.08781
| 33>    C        5.62068        -1.36419        -5.49862
| 34>    C        5.61997        -5.71269         0.72080
| 35>    C        6.05204        -6.73977         1.56755
| 36>    C        5.61814        -6.82068         2.89565
| 37>    C        4.70780        -5.84781         3.34358
| 38>    C        4.27252        -4.82746         2.50346
| 39>    C        3.40381        -1.21489         0.79734
| 40>    C        3.59860         0.06043         1.33760
| 41>    C        4.73605         0.36233         2.09633
| 42>    C        5.66406        -0.66746         2.31780
| 43>    C        5.46890        -1.94156         1.79132
| 44>    C        4.45148        -1.51179        -6.25595
| 45>    C        3.64786        -0.41325        -6.56291
| 46>    C        3.98204         0.87713        -6.12905
| 47>    C        5.15625         1.01856        -5.37326
| 48>    C        5.96229        -0.07753        -5.06282
| 49>    C        6.69678        -3.41128        -7.42209
| 50>    C        6.63089        -4.38752        -8.41576
| 51>    C        6.26149        -5.70706        -8.11290
| 52>    C        6.00058        -6.01791        -6.77225
| 53>    C        6.06339        -5.04291        -5.77523
| 54>    C        6.11397        -7.90486         3.82636
| 55>    C        5.00487        -8.80519         4.38174
| 56>    C        4.97569         1.74289         2.66327
| 57>    C        5.06655         1.76857         4.19235
| 58>    C        6.07957        -6.74635        -9.19399
| 59>    C        4.60959        -6.91077        -9.61120
| 60>    C        3.13691         2.08885        -6.46848
| 61>    C        1.65712         1.81003        -6.73406
| 62>    S       -1.85420        -5.35677        -1.50474
| 63>    C       -3.30181        -4.97839        -0.66576
| 64>    C       -3.07029        -4.21963         0.46817
| 65>    C       -1.66797        -3.95349         0.65257
| 66>    C       -4.09731        -3.78390         1.38970
| 67>    O       -1.20361        -3.21136         1.69067
| 68>    C       -0.90210        -1.84821         1.37266
| 69>    C       -5.37427        -3.41626         1.10946
| 70>    C       -6.41188        -3.44822         2.21624
| 71>    C       -7.69640        -3.42842         1.48689
| 72>    C       -7.50468        -3.25177         0.11881
| 73>    C       -6.06845        -3.09632        -0.14961
| 74>    S       -9.35320        -3.55757         1.90746
| 75>    C       -9.80569        -3.37509         0.23619
| 76>    C       -8.73176        -3.21374        -0.60788
| 77>    O       -6.20097        -3.52125         3.40560
| 78>    C       -5.54414        -2.53324        -1.29453
| 79>    C       -6.39730        -2.19697        -2.39339
| 80>    C       -4.17697        -2.13368        -1.41914
| 81>    N       -3.08443        -1.75392        -1.52766
| 82>    N       -7.11813        -1.93996        -3.26765
| 83>    C       11.37605        -1.09259        -4.50676
| 84>    S       11.90659         0.36369        -3.66624
| 85>    C       13.40894         0.37995        -4.47344
| 86>    C       13.54902        -0.66989        -5.37011
| 87>    C       12.37018        -1.52249        -5.36675
| 88>    C       14.71197        -1.07628        -6.10744
| 89>    O       12.38405        -2.61837        -6.14964
| 90>    C       11.74998        -3.81626        -5.71544
| 91>    C       15.92420        -0.51950        -6.39695
| 92>    C       17.01011        -1.48886        -6.83496
| 93>    C       18.25673        -0.71284        -6.70569
| 94>    C       17.99616         0.60238        -6.33797
| 95>    C       16.53753         0.80231        -6.25692
| 96>    S       19.92919        -1.02830        -6.90390
| 97>    C       20.30039         0.61909        -6.48639
| 98>    C       19.18589         1.38060        -6.21851
| 99>    O       16.85740        -2.64396        -7.16529
|100>    C       15.93269         2.04513        -6.24845
|101>    C       16.71294         3.23633        -6.09987
|102>    C       14.54499         2.24950        -6.50602
|103>    N       13.42188         2.44379        -6.73153
|104>    N       17.36447         4.18856        -5.96239
|105>    H        1.32687        -4.15433         1.47083
|106>    H        3.74273        -3.48859        -4.28078
|107>    H        6.98462        -2.91838        -0.46344
|108>    H        9.12896        -1.57141        -6.25368
|109>    H        5.99054        -5.67143        -0.30416
|110>    H        6.75140        -7.48939         1.18644
|111>    H        4.34145        -5.88199         4.37294
|112>    H        3.58598        -4.06846         2.88593
|113>    H        2.52039        -1.41346         0.18828
|114>    H        2.85438         0.83944         1.14969
|115>    H        6.55993        -0.46678         2.91163
|116>    H        6.20491        -2.72280         1.98903
|117>    H        4.15614        -2.49948        -6.61351
|118>    H        2.74267        -0.57553        -7.14945
|119>    H        5.44625         2.00908        -5.01009
|120>    H        6.85854         0.06827        -4.45801
|121>    H        6.95686        -2.38582        -7.69343
|122>    H        6.86002        -4.11508        -9.45014
|123>    H        5.71732        -7.03903        -6.50025
|124>    H        5.82832        -5.31727        -4.74643
|125>    H        6.65198        -7.43459         4.66928
|126>    H        6.85686        -8.52148         3.29550
|127>    H        4.26450        -8.22628         4.95671
|128>    H        5.42168        -9.57380         5.05230
|129>    H        4.46442        -9.31545         3.56868
|130>    H        4.17607         2.42124         2.32459
|131>    H        5.91307         2.14535         2.23963
|132>    H        4.13426         1.40315         4.65212
|133>    H        5.25871         2.78790         4.56277
|134>    H        5.88292         1.12662         4.55761
|135>    H        6.46760        -7.71482        -8.83582
|136>    H        6.68369        -6.47114       -10.07350
|137>    H        3.99023        -7.22442        -8.75563
|138>    H        4.49591        -7.66740       -10.40405
|139>    H        4.19725        -5.96084        -9.98724
|140>    H        3.57714         2.58625        -7.35313
|141>    H        3.23485         2.82105        -5.64921
|142>    H        1.50859         1.17484        -7.62113
|143>    H        1.11024         2.74788        -6.91527
|144>    H        1.18566         1.29889        -5.87898
|145>    H       -4.25745        -5.35679        -1.02150
|146>    H       -3.84922        -3.82434         2.45780
|147>    H       -0.45920        -1.40247         2.27315
|148>    H       -1.81608        -1.30278         1.08863
|149>    H       -0.18443        -1.78736         0.53886
|150>    H      -10.85934        -3.39256        -0.04231
|151>    H       -8.82954        -3.07003        -1.68201
|152>    H       14.15299         1.12672        -4.20934
|153>    H       14.64775        -2.11548        -6.45325
|154>    H       11.88670        -3.95933        -4.63120
|155>    H       12.23830        -4.63401        -6.26135
|156>    H       10.67345        -3.81214        -5.94431
|157>    H       21.33898         0.94807        -6.46042
|158>    H       19.23165         2.43076        -5.93971
|159> *
|160> 
|161>                          ****END OF INPUT****
================================================================================

                     *******************************
                     * Energy+Gradient Calculation *
                     *******************************

---------------------------------
CARTESIAN COORDINATES (ANGSTROEM)
---------------------------------
  C     -0.873740   -4.469360   -0.358460
  C      0.548460   -4.300820   -0.552040
  S      1.189720   -4.187980   -2.191570
  C      2.771670   -3.911360   -1.568510
  C      2.808430   -3.895640   -0.185630
  C      1.541080   -4.123170    0.403470
  C      4.064570   -3.607160   -2.136480
  C      4.967650   -3.441830   -1.053730
  C      4.228130   -3.590950    0.296930
  C      4.457590   -3.394650   -3.461700
  C      5.771470   -3.019400   -3.692230
  C      6.688090   -2.871350   -2.619380
  C      6.288300   -3.077940   -1.288580
  C      6.404760   -2.607360   -5.032800
  C      7.825360   -2.278020   -4.583080
  C      7.941820   -2.432700   -3.211000
  C      9.010430   -1.798980   -5.194080
  C     10.030320   -1.595010   -4.278060
  S      9.513940   -2.004580   -2.637720
  C      4.340480   -2.231930    1.008150
  C      4.734170   -4.734320    1.179820
  C      6.389660   -3.717590   -6.087810
  C      5.620680   -1.364190   -5.498620
  C      5.619970   -5.712690    0.720800
  C      6.052040   -6.739770    1.567550
  C      5.618140   -6.820680    2.895650
  C      4.707800   -5.847810    3.343580
  C      4.272520   -4.827460    2.503460
  C      3.403810   -1.214890    0.797340
  C      3.598600    0.060430    1.337600
  C      4.736050    0.362330    2.096330
  C      5.664060   -0.667460    2.317800
  C      5.468900   -1.941560    1.791320
  C      4.451480   -1.511790   -6.255950
  C      3.647860   -0.413250   -6.562910
  C      3.982040    0.877130   -6.129050
  C      5.156250    1.018560   -5.373260
  C      5.962290   -0.077530   -5.062820
  C      6.696780   -3.411280   -7.422090
  C      6.630890   -4.387520   -8.415760
  C      6.261490   -5.707060   -8.112900
  C      6.000580   -6.017910   -6.772250
  C      6.063390   -5.042910   -5.775230
  C      6.113970   -7.904860    3.826360
  C      5.004870   -8.805190    4.381740
  C      4.975690    1.742890    2.663270
  C      5.066550    1.768570    4.192350
  C      6.079570   -6.746350   -9.193990
  C      4.609590   -6.910770   -9.611200
  C      3.136910    2.088850   -6.468480
  C      1.657120    1.810030   -6.734060
  S     -1.854200   -5.356770   -1.504740
  C     -3.301810   -4.978390   -0.665760
  C     -3.070290   -4.219630    0.468170
  C     -1.667970   -3.953490    0.652570
  C     -4.097310   -3.783900    1.389700
  O     -1.203610   -3.211360    1.690670
  C     -0.902100   -1.848210    1.372660
  C     -5.374270   -3.416260    1.109460
  C     -6.411880   -3.448220    2.216240
  C     -7.696400   -3.428420    1.486890
  C     -7.504680   -3.251770    0.118810
  C     -6.068450   -3.096320   -0.149610
  S     -9.353200   -3.557570    1.907460
  C     -9.805690   -3.375090    0.236190
  C     -8.731760   -3.213740   -0.607880
  O     -6.200970   -3.521250    3.405600
  C     -5.544140   -2.533240   -1.294530
  C     -6.397300   -2.196970   -2.393390
  C     -4.176970   -2.133680   -1.419140
  N     -3.084430   -1.753920   -1.527660
  N     -7.118130   -1.939960   -3.267650
  C     11.376050   -1.092590   -4.506760
  S     11.906590    0.363690   -3.666240
  C     13.408940    0.379950   -4.473440
  C     13.549020   -0.669890   -5.370110
  C     12.370180   -1.522490   -5.366750
  C     14.711970   -1.076280   -6.107440
  O     12.384050   -2.618370   -6.149640
  C     11.749980   -3.816260   -5.715440
  C     15.924200   -0.519500   -6.396950
  C     17.010110   -1.488860   -6.834960
  C     18.256730   -0.712840   -6.705690
  C     17.996160    0.602380   -6.337970
  C     16.537530    0.802310   -6.256920
  S     19.929190   -1.028300   -6.903900
  C     20.300390    0.619090   -6.486390
  C     19.185890    1.380600   -6.218510
  O     16.857400   -2.643960   -7.165290
  C     15.932690    2.045130   -6.248450
  C     16.712940    3.236330   -6.099870
  C     14.544990    2.249500   -6.506020
  N     13.421880    2.443790   -6.731530
  N     17.364470    4.188560   -5.962390
  H      1.326870   -4.154330    1.470830
  H      3.742730   -3.488590   -4.280780
  H      6.984620   -2.918380   -0.463440
  H      9.128960   -1.571410   -6.253680
  H      5.990540   -5.671430   -0.304160
  H      6.751400   -7.489390    1.186440
  H      4.341450   -5.881990    4.372940
  H      3.585980   -4.068460    2.885930
  H      2.520390   -1.413460    0.188280
  H      2.854380    0.839440    1.149690
  H      6.559930   -0.466780    2.911630
  H      6.204910   -2.722800    1.989030
  H      4.156140   -2.499480   -6.613510
  H      2.742670   -0.575530   -7.149450
  H      5.446250    2.009080   -5.010090
  H      6.858540    0.068270   -4.458010
  H      6.956860   -2.385820   -7.693430
  H      6.860020   -4.115080   -9.450140
  H      5.717320   -7.039030   -6.500250
  H      5.828320   -5.317270   -4.746430
  H      6.651980   -7.434590    4.669280
  H      6.856860   -8.521480    3.295500
  H      4.264500   -8.226280    4.956710
  H      5.421680   -9.573800    5.052300
  H      4.464420   -9.315450    3.568680
  H      4.176070    2.421240    2.324590
  H      5.913070    2.145350    2.239630
  H      4.134260    1.403150    4.652120
  H      5.258710    2.787900    4.562770
  H      5.882920    1.126620    4.557610
  H      6.467600   -7.714820   -8.835820
  H      6.683690   -6.471140  -10.073500
  H      3.990230   -7.224420   -8.755630
  H      4.495910   -7.667400  -10.404050
  H      4.197250   -5.960840   -9.987240
  H      3.577140    2.586250   -7.353130
  H      3.234850    2.821050   -5.649210
  H      1.508590    1.174840   -7.621130
  H      1.110240    2.747880   -6.915270
  H      1.185660    1.298890   -5.878980
  H     -4.257450   -5.356790   -1.021500
  H     -3.849220   -3.824340    2.457800
  H     -0.459200   -1.402470    2.273150
  H     -1.816080   -1.302780    1.088630
  H     -0.184430   -1.787360    0.538860
  H    -10.859340   -3.392560   -0.042310
  H     -8.829540   -3.070030   -1.682010
  H     14.152990    1.126720   -4.209340
  H     14.647750   -2.115480   -6.453250
  H     11.886700   -3.959330   -4.631200
  H     12.238300   -4.634010   -6.261350
  H     10.673450   -3.812140   -5.944310
  H     21.338980    0.948070   -6.460420
  H     19.231650    2.430760   -5.939710

----------------------------
CARTESIAN COORDINATES (A.U.)
----------------------------
  NO LB      ZA    FRAG     MASS         X           Y           Z
   0 C     6.0000    0    12.011   -1.651129   -8.445866   -0.677391
   1 C     6.0000    0    12.011    1.036439   -8.127372   -1.043204
   2 S    16.0000    0    32.060    2.248245   -7.914135   -4.141467
   3 C     6.0000    0    12.011    5.237697   -7.391399   -2.964054
   4 C     6.0000    0    12.011    5.307164   -7.361693   -0.350790
   5 C     6.0000    0    12.011    2.912219   -7.791662    0.762448
   6 C     6.0000    0    12.011    7.680924   -6.816545   -4.037362
   7 C     6.0000    0    12.011    9.387498   -6.504116   -1.991261
   8 C     6.0000    0    12.011    7.990008   -6.785912    0.561116
   9 C     6.0000    0    12.011    8.423624   -6.414959   -6.541665
  10 C     6.0000    0    12.011   10.906498   -5.705839   -6.977304
  11 C     6.0000    0    12.011   12.638658   -5.426065   -4.949911
  12 C     6.0000    0    12.011   11.883165   -5.816464   -2.435063
  13 C     6.0000    0    12.011   12.103242   -4.927196   -9.510614
  14 C     6.0000    0    12.011   14.787787   -4.304834   -8.660766
  15 C     6.0000    0    12.011   15.007865   -4.597137   -6.067911
  16 C     6.0000    0    12.011   17.027245   -3.399580   -9.815389
  17 C     6.0000    0    12.011   18.954558   -3.014132   -8.084362
  18 S    16.0000    0    32.060   17.978741   -3.788107   -4.984568
  19 C     6.0000    0    12.011    8.202318   -4.217736    1.905127
  20 C     6.0000    0    12.011    8.946285   -8.946568    2.229537
  21 C     6.0000    0    12.011   12.074707   -7.025227  -11.504294
  22 C     6.0000    0    12.011   10.621546   -2.577945  -10.390886
  23 C     6.0000    0    12.011   10.620204  -10.795420    1.362115
  24 C     6.0000    0    12.011   11.436698  -12.736320    2.962240
  25 C     6.0000    0    12.011   10.616746  -12.889217    5.471985
  26 C     6.0000    0    12.011    8.896453  -11.050759    6.318451
  27 C     6.0000    0    12.011    8.073893   -9.122577    4.730854
  28 C     6.0000    0    12.011    6.432269   -2.295809    1.506754
  29 C     6.0000    0    12.011    6.800368    0.114196    2.527698
  30 C     6.0000    0    12.011    8.949837    0.684704    3.961490
  31 C     6.0000    0    12.011   10.703522   -1.261317    4.380007
  32 C     6.0000    0    12.011   10.334723   -3.669017    3.385104
  33 C     6.0000    0    12.011    8.412078   -2.856869  -11.822032
  34 C     6.0000    0    12.011    6.893456   -0.780929  -12.402103
  35 C     6.0000    0    12.011    7.524965    1.657535  -11.582226
  36 C     6.0000    0    12.011    9.743900    1.924799  -10.153990
  37 C     6.0000    0    12.011   11.267095   -0.146510   -9.567343
  38 C     6.0000    0    12.011   12.655080   -6.446385  -14.025717
  39 C     6.0000    0    12.011   12.530566   -8.291211  -15.903482
  40 C     6.0000    0    12.011   11.832501  -10.784780  -15.331159
  41 C     6.0000    0    12.011   11.339453  -11.372202  -12.797698
  42 C     6.0000    0    12.011   11.458147   -9.529719  -10.913603
  43 C     6.0000    0    12.011   11.553729  -14.938021    7.230772
  44 C     6.0000    0    12.011    9.457834  -16.639398    8.280289
  45 C     6.0000    0    12.011    9.402691    3.293585    5.032851
  46 C     6.0000    0    12.011    9.574392    3.342113    7.922393
  47 C     6.0000    0    12.011   11.488722  -12.748754  -17.374123
  48 C     6.0000    0    12.011    8.710863  -13.059463  -18.162536
  49 C     6.0000    0    12.011    5.927901    3.947354  -12.223656
  50 C     6.0000    0    12.011    3.131503    3.420461  -12.725529
  51 S    16.0000    0    32.060   -3.503930  -10.122828   -2.843547
  52 C     6.0000    0    12.011   -6.239517   -9.407794   -1.258104
  53 C     6.0000    0    12.011   -5.802007   -7.973945    0.884713
  54 C     6.0000    0    12.011   -3.152006   -7.471013    1.233179
  55 C     6.0000    0    12.011   -7.742794   -7.150535    2.626152
  56 O     8.0000    0    15.999   -2.274493   -6.068591    3.194903
  57 C     6.0000    0    12.011   -1.704722   -3.492611    2.593951
  58 C     6.0000    0    12.011  -10.155898   -6.455796    2.096576
  59 C     6.0000    0    12.011  -12.116697   -6.516191    4.188087
  60 C     6.0000    0    12.011  -14.544088   -6.478775    2.809815
  61 C     6.0000    0    12.011  -14.181790   -6.144955    0.224518
  62 C     6.0000    0    12.011  -11.467709   -5.851197   -0.282722
  63 S    16.0000    0    32.060  -17.674986   -6.722833    3.604577
  64 C     6.0000    0    12.011  -18.530069   -6.377996    0.446334
  65 C     6.0000    0    12.011  -16.500635   -6.073088   -1.148727
  66 O     8.0000    0    15.999  -11.718135   -6.654198    6.435651
  67 C     6.0000    0    12.011  -10.476906   -4.787130   -2.446307
  68 C     6.0000    0    12.011  -12.089145   -4.151672   -4.522852
  69 C     6.0000    0    12.011   -7.893329   -4.032071   -2.681786
  70 N     7.0000    0    14.007   -5.828728   -3.314428   -2.886859
  71 N     7.0000    0    14.007  -13.451316   -3.665993   -6.174964
  72 C     6.0000    0    12.011   21.497619   -2.064696   -8.516542
  73 S    16.0000    0    32.060   22.500194    0.687274   -6.928190
  74 C     6.0000    0    12.011   25.339224    0.718001   -8.453576
  75 C     6.0000    0    12.011   25.603937   -1.265909  -10.148037
  76 C     6.0000    0    12.011   23.376252   -2.877089  -10.141688
  77 C     6.0000    0    12.011   27.801594   -2.033874  -11.541389
  78 O     8.0000    0    15.999   23.402463   -4.948002  -11.621135
  79 C     6.0000    0    12.011   22.204244   -7.211686  -10.800616
  80 C     6.0000    0    12.011   30.092377   -0.981713  -12.088484
  81 C     6.0000    0    12.011   32.144449   -2.813538  -12.916203
  82 C     6.0000    0    12.011   34.500220   -1.347072  -12.671918
  83 C     6.0000    0    12.011   34.007814    1.138333  -11.977028
  84 C     6.0000    0    12.011   31.251403    1.516146  -11.823865
  85 S    16.0000    0    32.060   37.660711   -1.943205  -13.046480
  86 C     6.0000    0    12.011   38.362178    1.169911  -12.257501
  87 C     6.0000    0    12.011   36.256078    2.608956  -11.751281
  88 O     8.0000    0    15.999   31.855869   -4.996360  -13.540436
  89 C     6.0000    0    12.011   30.108421    3.864736  -11.807859
  90 C     6.0000    0    12.011   31.582879    6.115777  -11.527084
  91 C     6.0000    0    12.011   27.486048    4.250939  -12.294596
  92 N     7.0000    0    14.007   25.363677    4.618094  -12.720748
  93 N     7.0000    0    14.007   32.814093    7.915231  -11.267284
  94 H     1.0000    0     1.008    2.507421   -7.850546    2.779466
  95 H     1.0000    0     1.008    7.072735   -6.592480   -8.089502
  96 H     1.0000    0     1.008   13.199019   -5.514939   -0.875775
  97 H     1.0000    0     1.008   17.251234   -2.969535  -11.817743
  98 H     1.0000    0     1.008   11.320480  -10.717449   -0.574779
  99 H     1.0000    0     1.008   12.758297  -14.152896    2.242047
 100 H     1.0000    0     1.008    8.204152  -11.115350    8.263659
 101 H     1.0000    0     1.008    6.776520   -7.688275    5.453617
 102 H     1.0000    0     1.008    4.762847   -2.671052    0.355798
 103 H     1.0000    0     1.008    5.393996    1.586312    2.172599
 104 H     1.0000    0     1.008   12.396471   -0.882086    5.502183
 105 H     1.0000    0     1.008   11.725581   -5.145346    3.758722
 106 H     1.0000    0     1.008    7.853966   -4.723333  -12.497723
 107 H     1.0000    0     1.008    5.182895   -1.087594  -13.510503
 108 H     1.0000    0     1.008   10.291921    3.796611   -9.467698
 109 H     1.0000    0     1.008   12.960762    0.129012   -8.424418
 110 H     1.0000    0     1.008   13.146560   -4.508546  -14.538476
 111 H     1.0000    0     1.008   12.963559   -7.776374  -17.858177
 112 H     1.0000    0     1.008   10.804169  -13.301839  -12.283692
 113 H     1.0000    0     1.008   11.013929  -10.048184   -8.969453
 114 H     1.0000    0     1.008   12.570420  -14.049339    8.823660
 115 H     1.0000    0     1.008   12.957588  -16.103263    6.227592
 116 H     1.0000    0     1.008    8.058737  -15.545416    9.366824
 117 H     1.0000    0     1.008   10.245490  -18.091860    9.547463
 118 H     1.0000    0     1.008    8.436531  -17.603649    6.743828
 119 H     1.0000    0     1.008    7.891629    4.575481    4.392838
 120 H     1.0000    0     1.008   11.174083    4.054124    4.232287
 121 H     1.0000    0     1.008    7.812619    2.651569    8.791233
 122 H     1.0000    0     1.008    9.937522    5.268367    8.622386
 123 H     1.0000    0     1.008   11.117108    2.129003    8.612635
 124 H     1.0000    0     1.008   12.221993  -14.578897  -16.697280
 125 H     1.0000    0     1.008   12.630344  -12.228682  -19.036156
 126 H     1.0000    0     1.008    7.540442  -13.652175  -16.545743
 127 H     1.0000    0     1.008    8.496039  -14.489286  -19.660805
 128 H     1.0000    0     1.008    7.931653  -11.264355  -18.873148
 129 H     1.0000    0     1.008    6.759815    4.887304  -13.895402
 130 H     1.0000    0     1.008    6.112981    5.331012  -10.675460
 131 H     1.0000    0     1.008    2.850822    2.220126  -14.401849
 132 H     1.0000    0     1.008    2.098050    5.192741  -13.067966
 133 H     1.0000    0     1.008    2.240573    2.454546  -11.109662
 134 H     1.0000    0     1.008   -8.045415  -10.122866   -1.930355
 135 H     1.0000    0     1.008   -7.273972   -7.226955    4.644569
 136 H     1.0000    0     1.008   -0.867762   -2.650284    4.295631
 137 H     1.0000    0     1.008   -3.431894   -2.461897    2.057213
 138 H     1.0000    0     1.008   -0.348522   -3.377621    1.018298
 139 H     1.0000    0     1.008  -20.521179   -6.411009   -0.079954
 140 H     1.0000    0     1.008  -16.685412   -5.801516   -3.178538
 141 H     1.0000    0     1.008   26.745275    2.129192   -7.954500
 142 H     1.0000    0     1.008   27.680236   -3.997678  -12.194875
 143 H     1.0000    0     1.008   22.462608   -7.482049   -8.751700
 144 H     1.0000    0     1.008   23.127035   -8.757010  -11.832237
 145 H     1.0000    0     1.008   20.169897   -7.203901  -11.233118
 146 H     1.0000    0     1.008   40.324828    1.791593  -12.208425
 147 H     1.0000    0     1.008   36.342552    4.593471  -11.224425

--------------------------------
INTERNAL COORDINATES (ANGSTROEM)
--------------------------------
 C      0   0   0     0.000000000000     0.00000000     0.00000000
 C      1   0   0     1.445175348530     0.00000000     0.00000000
 S      2   1   0     1.764087830608   119.31955355     0.00000000
 C      3   2   1     1.722581838549    90.45496227   176.39520619
 C      4   3   2     1.383457809404   112.81623038   359.56604515
 C      2   1   3     1.389191616373   128.75211366   175.48318370
 C      4   3   2     1.444547669999   135.52476487   184.33825024
 C      7   4   3     1.419589749822   107.09818110   177.51657753
 C      5   4   3     1.530113799591   110.00852191   182.23754590
 C      7   4   3     1.398511090017   131.00320924     1.93443733
 C     10   7   4     1.385726270877   117.72625482   175.32808906
 C     11  10   7     1.418843948220   120.99758182     0.69270322
 C      8   7   4     1.389851386696   120.40392507   182.99445152
 C     11  10   7     1.538818088859   127.41928790   186.01262277
 C     14  11  10     1.526046288289   100.61235002   177.99437602
 C     15  14  11     1.385673973343   110.23996571   357.98827923
 C     15  14  11     1.416753763538   136.43136444   181.92487335
 C     17  15  14     1.385955271068   112.34979788   176.19787629
 S     16  15  14     1.727280517808   112.17702614   182.53294279
 C      9   5   4     1.537983020485   112.92823815   113.20061411
 C      9   5   4     1.530642411081   109.87166039   238.58870285
 C     14  11  10     1.531628141227   113.69849635   297.45326060
 C     14  11  10     1.541830524961   105.65295466    60.41961617
 C     21   9   5     1.397336343655   122.89589581   101.73016801
 C     24  21   9     1.399486825161   120.71780677   180.09195899
 C     25  24  21     1.399523221708   121.39100818   359.82555611
 C     26  25  24     1.405644420684   117.59233148     1.33192402
 C     27  26  25     1.391540303153   121.17737654   358.87900432
 C     20   9   5     1.398628580646   121.59630182   338.17262721
 C     29  20   9     1.398665476124   120.76727534   186.95499923
 C     30  29  20     1.400216885129   121.26747994     0.41344010
 C     31  30  29     1.403822982110   117.66667055   358.83624078
 C     32  31  30     1.392335960176   121.26216586     0.62239350
 C     23  14  11     1.400843720370   120.18709206   272.50619371
 C     34  23  14     1.395284801609   121.11076364   172.88765354
 C     35  34  23     1.401781479547   121.28914382     0.19049617
 C     36  35  34     1.403563355570   117.31360044   359.95468039
 C     37  36  35     1.395523831147   121.59083987     0.00000000
 C     22  14  11     1.403015191970   119.64711862   167.93430658
 C     39  22  14     1.394548707862   120.96093168   183.00641336
 C     40  39  22     1.403341138569   121.12443743   359.72184245
 C     41  40  39     1.400729871567   117.66206722   358.12600837
 C     42  41  40     1.395929431060   121.34672703     1.98354682
 C     26  25  24     1.512453227508   121.58501106   181.84121974
 C     44  26  25     1.532691705236   114.00612178   240.00010113
 C     31  30  29     1.511553573910   121.93453136   178.71735399
 C     46  31  30     1.531992378702   113.52008641   119.36154436
 C     41  40  39     1.510620461466   121.61145726   175.05004727
 C     48  41  40     1.536860215146   112.52398331   263.21095039
 C     36  35  34     1.515824132345   122.25113402   179.00479446
 C     50  36  35     1.529068923528   115.63895173    26.35011056
 S      1   2   3     1.750073186498   121.51577202    32.24936386
 C     52   1   2     1.715410614663    92.32597889   184.60648119
 C     53  52   1     1.383876978962   112.36512743   359.01348957
 C      1   2   3     1.385317584780   128.20925674   215.17659156
 C     54  53  52     1.447013563931   124.62393996   181.75171049
 O     55   1   2     1.357953885999   124.42841818   357.62287907
 C     57  55   1     1.431857731306   114.99284495    77.07849589
 C     56  54  53     1.358057608793   128.13154891   324.78072107
 C     59  56  54     1.517437946705   119.12699303   159.33848343
 C     60  59  56     1.477272856618   103.54365279   197.68524769
 C     61  60  59     1.392696904319   111.52997830   353.89462252
 C     62  61  60     1.469343598958   109.11279635   358.12692124
 S     61  60  59     1.714218506317   135.91080936   174.41151202
 C     64  61  60     1.741031178181    90.44600842   179.51697429
 C     65  64  61     1.375432162013   113.48165686   359.64118163
 O     60  59  56     1.210121323918   126.79509480    15.34798872
 C     63  62  61     1.379420845464   124.49531253   199.51739651
 C     68  63  62     1.431241698002   120.43630177   352.45750885
 C     68  63  62     1.429800564624   123.35694158   166.27042823
 N     70  68  63     1.161739170210   177.11325122   242.74104278
 N     69  68  63     1.161886645332   178.17534024   354.05618242
 C     18  17  15     1.454551057646   128.88334370   181.22050091
 S     73  18  17     1.763150022091   119.25734592   121.14655838
 C     74  73  18     1.705547346191    92.71168586   183.79557170
 C     75  74  73     1.387733231172   112.79951657     0.18146634
 C     73  18  17     1.383000819595   130.95329007   305.23946233
 C     76  75  74     1.435709254515   128.88338334   187.99971626
 O     77  73  18     1.346871227475   128.44546776   353.46051166
 C     79  77  73     1.423205837889   120.19280494   325.97068061
 C     78  76  75     1.365035377344   135.46387178   345.83128975
 C     81  78  76     1.520102660283   115.81100522   160.94062898
 C     82  81  78     1.474102845021   104.07267066   195.54617487
 C     83  82  81     1.390294347144   111.26639521   355.83641942
 C     81  78  76     1.463886527672   136.06147771   349.56782433
 S     83  82  81     1.713454016687   135.92110887   176.26239145
 C     86  83  82     1.739539551778    90.35325603   179.71500518
 C     87  86  83     1.376142225390   113.45034653   359.45997039
 O     82  81  78     1.211071535047   126.63661466    13.30627389
 C     85  81  78     1.382210084936   128.98635091   331.99081414
 C     90  85  81     1.431720475128   120.68135505   180.06175019
 C     90  85  81     1.426120854556   123.61065511   354.01841652
 N     92  90  85     1.161886154621   178.38442827   216.70030230
 N     91  90  85     1.161952694476   178.57841831   326.93896653
 H      6   2   1     1.089088719664   121.99846171     3.86903740
 H     10   7   4     1.091211065560   120.93691157   357.38101584
 H     13   8   7     1.091410534858   121.11520062   178.14000210
 H     17  15  14     1.090224575856   125.49795152   358.34898408
 H     24  21   9     1.090672963862   119.84133098     0.87040120
 H     25  24  21     1.093745576494   119.31279715   180.44806785
 H     27  26  25     1.093143451016   119.70103752   179.62040861
 H     28  27  26     1.092566461365   119.64324049   181.68963150
 H     29  20   9     1.091244713573   119.60166211     5.77055254
 H     30  29  20     1.093631636613   119.23252790   179.46732822
 H     32  31  30     1.093384464953   119.51731501   180.39176192
 H     33  32  31     1.091391727016   119.47266251   180.53095948
 H     34  23  14     1.091149121477   119.89707375   353.03456427
 H     35  34  23     1.090748782305   118.62909377   180.41777734
 H     37  36  35     1.094130851087   119.45218936   180.46906863
 H     38  37  36     1.091016424533   119.52708577   181.08065626
 H     39  22  14     1.092169956371   119.56326039     0.81156996
 H     40  39  22     1.093922344090   119.30868043   178.99225593
 H     42  41  40     1.094032121101   119.55869936   180.44912317
 H     43  42  41     1.090394770026   119.23840046   178.41233393
 H     44  26  25     1.105044234137   108.90166985   118.02297646
 H     44  26  25     1.101779522454   109.00996393     2.67471081
 H     45  44  26     1.101759967461   111.51334046   300.00621877
 H     45  44  26     1.101881400968   110.88762715   180.06114243
 H     45  44  26     1.101597945577   111.07948660    59.75762357
 H     46  31  30     1.101932397790   109.38589429   356.29274270
 H     46  31  30     1.104593212726   108.87265901   241.02519625
 H     47  46  31     1.101855196203   111.14535620   299.76073263
 H     47  46  31     1.101440007853   111.19393252   179.01036768
 H     47  46  31     1.100897200923   111.42966877    59.25200716
 H     48  41  40     1.103080763453   109.22600968   141.62632506
 H     48  41  40     1.101925296288   109.47272922    25.25976608
 H     49  48  41     1.101809038355   110.93589352   299.82278507
 H     49  48  41     1.101827219577   111.56114095   179.64878558
 H     49  48  41     1.101724721562   111.00160254    59.23216679
 H     50  36  35     1.106261648707   108.45846727   263.39323777
 H     50  36  35     1.103137532903   108.34757737   149.83838204
 H     51  50  36     1.101099760194   112.06519104   296.13874279
 H     51  50  36     1.100671350131   110.73650585   176.78346724
 H     51  50  36     1.102134491612   111.33358833    56.50978654
 H     53  52   1     1.087651284742   120.31509983   181.08235430
 H     56  54  53     1.097279204077   116.63753425   139.63806199
 H     58  57  55     1.098055917383   106.81337486   184.87493887
 H     58  57  55     1.101601727577   110.72734903    64.88726587
 H     58  57  55     1.101805514326   110.96567413   304.28569734
 H     65  64  61     1.089975125129   119.65845511   179.88625532
 H     66  65  64     1.088103280668   123.44419103   181.01167963
 H     75  74  73     1.086749578054   119.64486989   183.99271463
 H     78  76  75     1.097107745165   112.49356809   159.61882832
 H     80  79  77     1.102151423762   110.73954338   322.70110569
 H     80  79  77     1.097811100782   106.08594888   203.71606757
 H     80  79  77     1.100597697708   111.66543368    84.43398381
 H     87  86  83     1.089757527801   119.66856507   179.53282806
 H     88  87  86     1.087501468137   123.38015144   179.90646649

---------------------------
INTERNAL COORDINATES (A.U.)
---------------------------
 C      0   0   0     0.000000000000     0.00000000     0.00000000
 C      1   0   0     2.730985624217     0.00000000     0.00000000
 S      2   1   0     3.333642876033   119.31955355     0.00000000
 C      3   2   1     3.255207918125    90.45496227   176.39520619
 C      4   3   2     2.614356377608   112.81623038   359.56604515
 C      2   1   3     2.625191702484   128.75211366   175.48318370
 C      4   3   2     2.729799483692   135.52476487   184.33825024
 C      7   4   3     2.682635849686   107.09818110   177.51657753
 C      5   4   3     2.891496034961   110.00852191   182.23754590
 C      7   4   3     2.642802955383   131.00320924     1.93443733
 C     10   7   4     2.618643148538   117.72625482   175.32808906
 C     11  10   7     2.681226488907   120.99758182     0.69270322
 C      8   7   4     2.626438487706   120.40392507   182.99445152
 C     11  10   7     2.907944757868   127.41928790   186.01262277
 C     14  11  10     2.883809552553   100.61235002   177.99437602
 C     15  14  11     2.618544320521   110.23996571   357.98827923
 C     15  14  11     2.677276612290   136.43136444   181.92487335
 C     17  15  14     2.619075896182   112.34979788   176.19787629
 S     16  15  14     3.264087135115   112.17702614   182.53294279
 C      9   5   4     2.906366707338   112.92823815   113.20061411
 C      9   5   4     2.892494965908   109.87166039   238.58870285
 C     14  11  10     2.894357725927   113.69849635   297.45326060
 C     14  11  10     2.913637437095   105.65295466    60.41961617
 C     21   9   5     2.640583006483   122.89589581   101.73016801
 C     24  21   9     2.644646827586   120.71780677   180.09195899
 C     25  24  21     2.644715607091   121.39100818   359.82555611
 C     26  25  24     2.656282996767   117.59233148     1.33192402
 C     27  26  25     2.629630077274   121.17737654   358.87900432
 C     20   9   5     2.643024980496   121.59630182   338.17262721
 C     29  20   9     2.643094702844   120.76727534   186.95499923
 C     30  29  20     2.646026440986   121.26747994     0.41344010
 C     31  30  29     2.652840976692   117.66667055   358.83624078
 C     32  31  30     2.631133651143   121.26216586     0.62239350
 C     23  14  11     2.647210987923   120.18709206   272.50619371
 C     34  23  14     2.636706153863   121.11076364   172.88765354
 C     35  34  23     2.648983095946   121.28914382     0.19049617
 C     36  35  34     2.652350353636   117.31360044   359.95468039
 C     37  36  35     2.637157854229   121.59083987     0.00000000
 C     22  14  11     2.651314474555   119.64711862   167.93430658
 C     39  22  14     2.635315138273   120.96093168   183.00641336
 C     40  39  22     2.651930424361   121.12443743   359.72184245
 C     41  40  39     2.646995844864   117.66206722   358.12600837
 C     42  41  40     2.637924326984   121.34672703     1.98354682
 C     26  25  24     2.858122390356   121.58501106   181.84121974
 C     44  26  25     2.896367570629   114.00612178   240.00010113
 C     31  30  29     2.856422291440   121.93453136   178.71735399
 C     46  31  30     2.895046035001   113.52008641   119.36154436
 C     41  40  39     2.854658964469   121.61145726   175.05004727
 C     48  41  40     2.904244912746   112.52398331   263.21095039
 C     36  35  34     2.864492477321   122.25113402   179.00479446
 C     50  36  35     2.889521505358   115.63895173    26.35011056
 S      1   2   3     3.307159036801   121.51577202    32.24936386
 C     52   1   2     3.241656268935    92.32597889   184.60648119
 C     53  52   1     2.615148493276   112.36512743   359.01348957
 C      1   2   3     2.617870843739   128.20925674   215.17659156
 C     54  53  52     2.734459347899   124.62393996   181.75171049
 O     55   1   2     2.566160947032   124.42841818   357.62287907
 C     57  55   1     2.705818974906   114.99284495    77.07849589
 C     56  54  53     2.566356954706   128.13154891   324.78072107
 C     59  56  54     2.867542144492   119.12699303   159.33848343
 C     60  59  56     2.791641124083   103.54365279   197.68524769
 C     61  60  59     2.631815736723   111.52997830   353.89462252
 C     62  61  60     2.776656998662   109.11279635   358.12692124
 S     61  60  59     3.239403510639   135.91080936   174.41151202
 C     64  61  60     3.290072117381    90.44600842   179.51697429
 C     65  64  61     2.599190101992   113.48165686   359.64118163
 O     60  59  56     2.286797891022   126.79509480    15.34798872
 C     63  62  61     2.606727621349   124.49531253   199.51739651
 C     68  63  62     2.704654840672   120.43630177   352.45750885
 C     68  63  62     2.701931493266   123.35694158   166.27042823
 N     70  68  63     2.195368870746   177.11325122   242.74104278
 N     69  68  63     2.195647558337   178.17534024   354.05618242
 C     18  17  15     2.748703146757   128.88334370   181.22050091
 S     73  18  17     3.331870674769   119.25734592   121.14655838
 C     74  73  18     3.223017392738    92.71168586   183.79557170
 C     75  74  73     2.622435753857   112.79951657     0.18146634
 C     73  18  17     2.613492792023   130.95329007   305.23946233
 C     76  75  74     2.713097298970   128.88338334   187.99971626
 O     77  73  18     2.545217757586   128.44546776   353.46051166
 C     79  77  73     2.689469265807   120.19280494   325.97068061
 C     78  76  75     2.579543026294   135.46387178   345.83128975
 C     81  78  76     2.872577723380   115.81100522   160.94062898
 C     82  81  78     2.785650670324   104.07267066   195.54617487
 C     83  82  81     2.627275561641   111.26639521   355.83641942
 C     81  78  76     2.766344628437   136.06147771   349.56782433
 S     83  82  81     3.237958834605   135.92110887   176.26239145
 C     86  83  82     3.287253351985    90.35325603   179.71500518
 C     87  86  83     2.600531927311   113.45034653   359.45997039
 O     82  81  78     2.288593529826   126.63661466    13.30627389
 C     85  81  78     2.611998520074   128.98635091   331.99081414
 C     90  85  81     2.705559598319   120.68135505   180.06175019
 C     90  85  81     2.694977848985   123.61065511   354.01841652
 N     92  90  85     2.195646631029   178.38442827   216.70030230
 N     91  90  85     2.195772373131   178.57841831   326.93896653
 H      6   2   1     2.058079415708   121.99846171     3.86903740
 H     10   7   4     2.062090068212   120.93691157   357.38101584
 H     13   8   7     2.062467010559   121.11520062   178.14000210
 H     17  15  14     2.060225872838   125.49795152   358.34898408
 H     24  21   9     2.061073203372   119.84133098     0.87040120
 H     25  24  21     2.066879599761   119.31279715   180.44806785
 H     27  26  25     2.065741747511   119.70103752   179.62040861
 H     28  27  26     2.064651395088   119.64324049   181.68963150
 H     29  20   9     2.062153653741   119.60166211     5.77055254
 H     30  29  20     2.066664284590   119.23252790   179.46732822
 H     32  31  30     2.066197197845   119.51731501   180.39176192
 H     33  32  31     2.062431468888   119.47266251   180.53095948
 H     34  23  14     2.061973010860   119.89707375   353.03456427
 H     35  34  23     2.061216479465   118.62909377   180.41777734
 H     37  36  35     2.067607663228   119.45218936   180.46906863
 H     38  37  36     2.061722249977   119.52708577   181.08065626
 H     39  22  14     2.063902109238   119.56326039     0.81156996
 H     40  39  22     2.067213642108   119.30868043   178.99225593
 H     42  41  40     2.067421090593   119.55869936   180.44912317
 H     43  42  41     2.060547493209   119.23840046   178.41233393
 H     44  26  25     2.088230968388   108.90166985   118.02297646
 H     44  26  25     2.082061557401   109.00996393     2.67471081
 H     45  44  26     2.082024603820   111.51334046   300.00621877
 H     45  44  26     2.082254079892   110.88762715   180.06114243
 H     45  44  26     2.081718426831   111.07948660    59.75762357
 H     46  31  30     2.082350449919   109.38589429   356.29274270
 H     46  31  30     2.087378661440   108.87265901   241.02519625
 H     47  46  31     2.082204560062   111.14535620   299.76073263
 H     47  46  31     2.081419967787   111.19393252   179.01036768
 H     47  46  31     2.080394211345   111.42966877    59.25200716
 H     48  41  40     2.084520546523   109.22600968   141.62632506
 H     48  41  40     2.082337030025   109.47272922    25.25976608
 H     49  48  41     2.082117334369   110.93589352   299.82278507
 H     49  48  41     2.082151691900   111.56114095   179.64878558
 H     49  48  41     2.081957998722   111.00160254    59.23216679
 H     50  36  35     2.090531548516   108.45846727   263.39323777
 H     50  36  35     2.084627825237   108.34757737   149.83838204
 H     51  50  36     2.080776992894   112.06519104   296.13874279
 H     51  50  36     2.079967415202   110.73650585   176.78346724
 H     51  50  36     2.082732351894   111.33358833    56.50978654
 H     53  52   1     2.055363057369   120.31509983   181.08235430
 H     56  54  53     2.073557188153   116.63753425   139.63806199
 H     58  57  55     2.075024963586   106.81337486   184.87493887
 H     58  57  55     2.081725573775   110.72734903    64.88726587
 H     58  57  55     2.082110674921   110.96567413   304.28569734
 H     65  64  61     2.059754479280   119.65845511   179.88625532
 H     66  65  64     2.056217205883   123.44419103   181.01167963
 H     75  74  73     2.053659078676   119.64486989   183.99271463
 H     78  76  75     2.073233177765   112.49356809   159.61882832
 H     80  79  77     2.082764349021   110.73954338   322.70110569
 H     80  79  77     2.074562327256   106.08594888   203.71606757
 H     80  79  77     2.079828232292   111.66543368    84.43398381
 H     87  86  83     2.059343279924   119.66856507   179.53282806
 H     88  87  86     2.055079945016   123.38015144   179.90646649

---------------------
BASIS SET INFORMATION
---------------------
There are 5 groups of distinct atoms

 Group   1 Type C   : 7s4p1d contracted to 3s2p1d pattern {511/31/1}
 Group   2 Type S   : 10s7p1d contracted to 4s3p1d pattern {5311/511/1}
 Group   3 Type O   : 7s4p1d contracted to 3s2p1d pattern {511/31/1}
 Group   4 Type N   : 7s4p1d contracted to 3s2p1d pattern {511/31/1}
 Group   5 Type H   : 4s1p contracted to 2s1p pattern {31/1}

Atom   0C    basis set group =>   1
Atom   1C    basis set group =>   1
Atom   2S    basis set group =>   2
Atom   3C    basis set group =>   1
Atom   4C    basis set group =>   1
Atom   5C    basis set group =>   1
Atom   6C    basis set group =>   1
Atom   7C    basis set group =>   1
Atom   8C    basis set group =>   1
Atom   9C    basis set group =>   1
Atom  10C    basis set group =>   1
Atom  11C    basis set group =>   1
Atom  12C    basis set group =>   1
Atom  13C    basis set group =>   1
Atom  14C    basis set group =>   1
Atom  15C    basis set group =>   1
Atom  16C    basis set group =>   1
Atom  17C    basis set group =>   1
Atom  18S    basis set group =>   2
Atom  19C    basis set group =>   1
Atom  20C    basis set group =>   1
Atom  21C    basis set group =>   1
Atom  22C    basis set group =>   1
Atom  23C    basis set group =>   1
Atom  24C    basis set group =>   1
Atom  25C    basis set group =>   1
Atom  26C    basis set group =>   1
Atom  27C    basis set group =>   1
Atom  28C    basis set group =>   1
Atom  29C    basis set group =>   1
Atom  30C    basis set group =>   1
Atom  31C    basis set group =>   1
Atom  32C    basis set group =>   1
Atom  33C    basis set group =>   1
Atom  34C    basis set group =>   1
Atom  35C    basis set group =>   1
Atom  36C    basis set group =>   1
Atom  37C    basis set group =>   1
Atom  38C    basis set group =>   1
Atom  39C    basis set group =>   1
Atom  40C    basis set group =>   1
Atom  41C    basis set group =>   1
Atom  42C    basis set group =>   1
Atom  43C    basis set group =>   1
Atom  44C    basis set group =>   1
Atom  45C    basis set group =>   1
Atom  46C    basis set group =>   1
Atom  47C    basis set group =>   1
Atom  48C    basis set group =>   1
Atom  49C    basis set group =>   1
Atom  50C    basis set group =>   1
Atom  51S    basis set group =>   2
Atom  52C    basis set group =>   1
Atom  53C    basis set group =>   1
Atom  54C    basis set group =>   1
Atom  55C    basis set group =>   1
Atom  56O    basis set group =>   3
Atom  57C    basis set group =>   1
Atom  58C    basis set group =>   1
Atom  59C    basis set group =>   1
Atom  60C    basis set group =>   1
Atom  61C    basis set group =>   1
Atom  62C    basis set group =>   1
Atom  63S    basis set group =>   2
Atom  64C    basis set group =>   1
Atom  65C    basis set group =>   1
Atom  66O    basis set group =>   3
Atom  67C    basis set group =>   1
Atom  68C    basis set group =>   1
Atom  69C    basis set group =>   1
Atom  70N    basis set group =>   4
Atom  71N    basis set group =>   4
Atom  72C    basis set group =>   1
Atom  73S    basis set group =>   2
Atom  74C    basis set group =>   1
Atom  75C    basis set group =>   1
Atom  76C    basis set group =>   1
Atom  77C    basis set group =>   1
Atom  78O    basis set group =>   3
Atom  79C    basis set group =>   1
Atom  80C    basis set group =>   1
Atom  81C    basis set group =>   1
Atom  82C    basis set group =>   1
Atom  83C    basis set group =>   1
Atom  84C    basis set group =>   1
Atom  85S    basis set group =>   2
Atom  86C    basis set group =>   1
Atom  87C    basis set group =>   1
Atom  88O    basis set group =>   3
Atom  89C    basis set group =>   1
Atom  90C    basis set group =>   1
Atom  91C    basis set group =>   1
Atom  92N    basis set group =>   4
Atom  93N    basis set group =>   4
Atom  94H    basis set group =>   5
Atom  95H    basis set group =>   5
Atom  96H    basis set group =>   5
Atom  97H    basis set group =>   5
Atom  98H    basis set group =>   5
Atom  99H    basis set group =>   5
Atom 100H    basis set group =>   5
Atom 101H    basis set group =>   5
Atom 102H    basis set group =>   5
Atom 103H    basis set group =>   5
Atom 104H    basis set group =>   5
Atom 105H    basis set group =>   5
Atom 106H    basis set group =>   5
Atom 107H    basis set group =>   5
Atom 108H    basis set group =>   5
Atom 109H    basis set group =>   5
Atom 110H    basis set group =>   5
Atom 111H    basis set group =>   5
Atom 112H    basis set group =>   5
Atom 113H    basis set group =>   5
Atom 114H    basis set group =>   5
Atom 115H    basis set group =>   5
Atom 116H    basis set group =>   5
Atom 117H    basis set group =>   5
Atom 118H    basis set group =>   5
Atom 119H    basis set group =>   5
Atom 120H    basis set group =>   5
Atom 121H    basis set group =>   5
Atom 122H    basis set group =>   5
Atom 123H    basis set group =>   5
Atom 124H    basis set group =>   5
Atom 125H    basis set group =>   5
Atom 126H    basis set group =>   5
Atom 127H    basis set group =>   5
Atom 128H    basis set group =>   5
Atom 129H    basis set group =>   5
Atom 130H    basis set group =>   5
Atom 131H    basis set group =>   5
Atom 132H    basis set group =>   5
Atom 133H    basis set group =>   5
Atom 134H    basis set group =>   5
Atom 135H    basis set group =>   5
Atom 136H    basis set group =>   5
Atom 137H    basis set group =>   5
Atom 138H    basis set group =>   5
Atom 139H    basis set group =>   5
Atom 140H    basis set group =>   5
Atom 141H    basis set group =>   5
Atom 142H    basis set group =>   5
Atom 143H    basis set group =>   5
Atom 144H    basis set group =>   5
Atom 145H    basis set group =>   5
Atom 146H    basis set group =>   5
Atom 147H    basis set group =>   5
------------------------------------------------------------------------------
                           ORCA GTO INTEGRAL CALCULATION
------------------------------------------------------------------------------

                         BASIS SET STATISTICS AND STARTUP INFO

 # of primitive gaussian shells          ... 1434
 # of primitive gaussian functions       ... 2706
 # of contracted shells                  ...  738
 # of contracted basis functions         ... 1610
 Highest angular momentum                ...    2
 Maximum contraction depth               ...    5
 Integral package used                   ... LIBINT
 Integral threshhold            Thresh   ...  2.500e-11
 Primitive cut-off              TCut     ...  2.500e-12


------------------------------ INTEGRAL EVALUATION ----------------------------


 * One electron integrals 
 Pre-screening matrix                    ... done
 Shell pair data                         ... done (   0.028 sec)

-------------------------------------------------------------------------------
                                 ORCA SCF
-------------------------------------------------------------------------------

------------
SCF SETTINGS
------------
Hamiltonian:
 Ab initio Hamiltonian  Method          .... Hartree-Fock(GTOs)


General Settings:
 Integral files         IntName         .... i-cc23
 Hartree-Fock type      HFTyp           .... RHF
 Total Charge           Charge          ....    0
 Multiplicity           Mult            ....    1
 Number of Electrons    NEL             ....  690
 Basis Dimension        Dim             .... 1610
 Nuclear Repulsion      ENuc            ....  16799.6909183051 Eh

Convergence Acceleration:
 DIIS                   CNVDIIS         .... on
   Start iteration      DIISMaxIt       ....    12
   Startup error        DIISStart       ....  0.200000
   # of expansion vecs  DIISMaxEq       ....     5
   Bias factor          DIISBfac        ....   1.050
   Max. coefficient     DIISMaxC        ....  10.000
 Newton-Raphson         CNVNR           .... off
 SOSCF                  CNVSOSCF        .... on
   Start iteration      SOSCFMaxIt      ....   150
   Startup grad/error   SOSCFStart      ....  0.003300
 Level Shifting         CNVShift        .... on
   Level shift para.    LevelShift      ....    0.2500
   Turn off err/grad.   ShiftErr        ....    0.0010
 Zerner damping         CNVZerner       .... off
 Static damping         CNVDamp         .... on
   Fraction old density DampFac         ....    0.7000
   Max. Damping (<1)    DampMax         ....    0.9800
   Min. Damping (>=0)   DampMin         ....    0.0000
   Turn off err/grad.   DampErr         ....    0.1000
 Fernandez-Rico         CNVRico         .... off

SCF Procedure:
 Maximum # iterations   MaxIter         ....   125
 SCF integral mode      SCFMode         .... Direct
   Integral package                     .... LIBINT
 Reset frequency        DirectResetFreq ....    20
 Integral Threshold     Thresh          ....  2.500e-11 Eh
 Primitive CutOff       TCut            ....  2.500e-12 Eh

Convergence Tolerance:
 Convergence Check Mode ConvCheckMode   .... Total+1el-Energy
 Convergence forced     ConvForced      .... 1
 Energy Change          TolE            ....  1.000e-08 Eh
 1-El. energy change                    ....  1.000e-05 Eh
 Orbital Gradient       TolG            ....  1.000e-05
 Orbital Rotation angle TolX            ....  1.000e-05
 DIIS Error             TolErr          ....  5.000e-07


Diagonalization of the overlap matrix:
Smallest eigenvalue                        ... 2.093e-04
Time for diagonalization                   ...    0.789 sec
Threshold for overlap eigenvalues          ... 1.000e-08
Number of eigenvalues below threshold      ... 0
Time for construction of square roots      ...    0.346 sec
Total time needed                          ...    1.143 sec

-------------------
DFT GRID GENERATION
-------------------

General Integration Accuracy     IntAcc      ...  4.340
Radial Grid Type                 RadialGrid  ... Gauss-Chebyshev
Angular Grid (max. acc.)         AngularGrid ... Lebedev-110
Angular grid pruning method      GridPruning ... 3 (G Style)
Weight generation scheme         WeightScheme... Becke
Basis function cutoff            BFCut       ...    1.0000e-11
Integration weight cutoff        WCut        ...    1.0000e-14
Grids for H and He will be reduced by one unit

# of grid points (after initial pruning)     ... 199864 (   0.4 sec)
# of grid points (after weights+screening)   ... 172796 (  11.0 sec)
nearest neighbour list constructed           ...    0.0 sec
Grid point re-assignment to atoms done       ...    0.0 sec
Grid point division into batches done        ...    0.2 sec
Reduced shell lists constructed in    4.2 sec

Total number of grid points                  ...   172796
Total number of batches                      ...     2774
Average number of points per batch           ...       62
Average number of grid points per atom       ...     1168
Average number of shells per batch           ...   120.83 (16.37%)
Average number of basis functions per batch  ...   244.56 (15.19%)
Average number of large shells per batch     ...    68.97 (57.08%)
Average number of large basis fcns per batch ...   142.74 (58.37%)
Maximum spatial batch extension              ...  25.77, 20.75, 22.44 au
Average spatial batch extension              ...   3.04,  3.22,  3.28 au

Time for grid setup =   15.597 sec

------------------------------
INITIAL GUESS: MODEL POTENTIAL
------------------------------
Loading Hartree-Fock densities                     ... done
Calculating cut-offs                               ... done
Setting up the integral package                    ... done
Initializing the effective Hamiltonian             ... done
Starting the Coulomb interaction                   ... done (  20.0 sec)
Reading the grid                                   ... done
Mapping shells                                     ... done
Starting the XC term evaluation                    ... done (   3.7 sec)
Transforming the Hamiltonian                       ... done (   0.3 sec)
Diagonalizing the Hamiltonian                      ... done (   0.8 sec)
Back transforming the eigenvectors                 ... done (   0.2 sec)
Now organizing SCF variables                       ... done
                      ------------------
                      INITIAL GUESS DONE (  41.2 sec)
                      ------------------
--------------
SCF ITERATIONS
--------------
ITER       Energy         Delta-E        Max-DP      RMS-DP      [F,P]     Damp
               ***  Starting incremental Fock matrix formation  ***
  0  -5956.5978743793   0.000000000000 0.30180558  0.00114755  0.2488084 0.7000
  1  -5957.6512946709  -1.053420291606 0.23142907  0.00089441  0.1528306 0.7000
                               ***Turning on DIIS***
  2  -5958.2910817937  -0.639787122782 0.54645321  0.00208734  0.0876095 0.0000
  3  -5954.0504050848   4.240676708891 0.06139966  0.00047336  0.0552111 0.0000
  4  -5959.9473197455  -5.896914660741 0.02747389  0.00018071  0.0167829 0.0000
  5  -5959.8466028257   0.100716919820 0.01129153  0.00008472  0.0096844 0.0000
  6  -5959.5891834781   0.257419347618 0.00643576  0.00005093  0.0035368 0.0000
                      *** Initiating the SOSCF procedure ***
                           *** Shutting down DIIS ***
                      *** Re-Reading the Fockian *** 
                      *** Removing any level shift *** 
ITER      Energy       Delta-E        Grad      Rot      Max-DP    RMS-DP
  7  -5959.68989675  -0.1007132712  0.002723  0.002723  0.005044  0.000030
               *** Restarting incremental Fock matrix formation ***
  8  -5959.66214184   0.0277549087  0.001244  0.003106  0.003840  0.000019
  9  -5959.66234412  -0.0002022770  0.000614  0.003970  0.005274  0.000028
 10  -5959.66243696  -0.0000928398  0.000245  0.000461  0.000526  0.000006
 11  -5959.66244358  -0.0000066222  0.000094  0.000220  0.000298  0.000002
 12  -5959.66244581  -0.0000022305  0.000022  0.000065  0.000113  0.000001
 13  -5959.66244597  -0.0000001634  0.000013  0.000044  0.000061  0.000000
 14  -5959.66244604  -0.0000000619  0.000005  0.000027  0.000022  0.000000
                  ***Gradient check signals convergence***
              ***Rediagonalizing the Fockian in SOSCF/NRSCF***

               *****************************************************
               *                     SUCCESS                       *
               *           SCF CONVERGED AFTER  15 CYCLES          *
               *****************************************************


----------------
TOTAL SCF ENERGY
----------------

Total Energy       :        -5959.66244607 Eh         -162170.65975 eV

Components:
Nuclear Repulsion  :        16799.69091831 Eh          457142.83058 eV
Electronic Energy  :       -22759.35336437 Eh         -619313.49033 eV
One Electron Energy:       -41653.29009526 Eh        -1133443.64665 eV
Two Electron Energy:        18893.93673089 Eh          514130.15632 eV

Virial components:
Potential Energy   :       -11900.73750913 Eh         -323835.53110 eV
Kinetic Energy     :         5941.07506307 Eh          161664.87135 eV
Virial Ratio       :            2.00312862


---------------
SCF CONVERGENCE
---------------

  Last Energy change         ...   -2.9653e-08  Tolerance :   1.0000e-08
  Last MAX-Density change    ...    9.3580e-06  Tolerance :   1.0000e-07
  Last RMS-Density change    ...    7.6245e-08  Tolerance :   5.0000e-09
  Last Orbital Gradient      ...    2.4052e-06  Tolerance :   1.0000e-05
  Last Orbital Rotation      ...    9.2393e-06  Tolerance :   1.0000e-05

             **** THE GBW FILE WAS UPDATED (i-cc23.gbw) ****
             **** DENSITY FILE WAS UPDATED (i-cc23.scfp) ****
             **** ENERGY FILE WAS UPDATED (i-cc23.en.tmp) ****
             **** THE GBW FILE WAS UPDATED (i-cc23.gbw) ****
             **** DENSITY FILE WAS UPDATED (i-cc23.scfp) ****
----------------
ORBITAL ENERGIES
----------------

  NO   OCC          E(Eh)            E(eV) 
   0   2.0000     -91.999021     -2503.4206 
   1   2.0000     -91.992730     -2503.2494 
   2   2.0000     -91.973601     -2502.7289 
   3   2.0000     -91.972672     -2502.7036 
   4   2.0000     -91.961745     -2502.4063 
   5   2.0000     -91.960057     -2502.3604 
   6   2.0000     -20.596468      -560.4584 
   7   2.0000     -20.586378      -560.1838 
   8   2.0000     -20.572170      -559.7972 
   9   2.0000     -20.564088      -559.5773 
  10   2.0000     -15.599573      -424.4860 
  11   2.0000     -15.596917      -424.4137 
  12   2.0000     -15.593812      -424.3292 
  13   2.0000     -15.592478      -424.2929 
  14   2.0000     -11.377876      -309.6078 
  15   2.0000     -11.368992      -309.3660 
  16   2.0000     -11.353483      -308.9440 
  17   2.0000     -11.348008      -308.7950 
  18   2.0000     -11.335710      -308.4603 
  19   2.0000     -11.332922      -308.3845 
  20   2.0000     -11.328626      -308.2676 
  21   2.0000     -11.319920      -308.0307 
  22   2.0000     -11.314729      -307.8894 
  23   2.0000     -11.314719      -307.8891 
  24   2.0000     -11.310895      -307.7851 
  25   2.0000     -11.310198      -307.7661 
  26   2.0000     -11.310034      -307.7617 
  27   2.0000     -11.308051      -307.7077 
  28   2.0000     -11.307995      -307.7062 
  29   2.0000     -11.306877      -307.6758 
  30   2.0000     -11.305698      -307.6437 
  31   2.0000     -11.305691      -307.6435 
  32   2.0000     -11.301894      -307.5402 
  33   2.0000     -11.301514      -307.5298 
  34   2.0000     -11.301308      -307.5242 
  35   2.0000     -11.300877      -307.5125 
  36   2.0000     -11.298243      -307.4408 
  37   2.0000     -11.295243      -307.3592 
  38   2.0000     -11.290235      -307.2229 
  39   2.0000     -11.289780      -307.2105 
  40   2.0000     -11.288849      -307.1852 
  41   2.0000     -11.288265      -307.1693 
  42   2.0000     -11.287337      -307.1441 
  43   2.0000     -11.283952      -307.0519 
  44   2.0000     -11.280950      -306.9703 
  45   2.0000     -11.277614      -306.8795 
  46   2.0000     -11.276373      -306.8457 
  47   2.0000     -11.275948      -306.8341 
  48   2.0000     -11.275271      -306.8157 
  49   2.0000     -11.275008      -306.8086 
  50   2.0000     -11.272411      -306.7379 
  51   2.0000     -11.270392      -306.6830 
  52   2.0000     -11.260866      -306.4237 
  53   2.0000     -11.260688      -306.4189 
  54   2.0000     -11.259183      -306.3779 
  55   2.0000     -11.256861      -306.3148 
  56   2.0000     -11.255206      -306.2697 
  57   2.0000     -11.254165      -306.2414 
  58   2.0000     -11.253334      -306.2188 
  59   2.0000     -11.250009      -306.1283 
  60   2.0000     -11.249927      -306.1261 
  61   2.0000     -11.249672      -306.1191 
  62   2.0000     -11.249230      -306.1071 
  63   2.0000     -11.248746      -306.0939 
  64   2.0000     -11.248710      -306.0930 
  65   2.0000     -11.245952      -306.0179 
  66   2.0000     -11.243834      -305.9603 
  67   2.0000     -11.242603      -305.9268 
  68   2.0000     -11.241618      -305.9000 
  69   2.0000     -11.241334      -305.8922 
  70   2.0000     -11.240060      -305.8576 
  71   2.0000     -11.239879      -305.8527 
  72   2.0000     -11.239313      -305.8372 
  73   2.0000     -11.239038      -305.8298 
  74   2.0000     -11.238760      -305.8222 
  75   2.0000     -11.238606      -305.8180 
  76   2.0000     -11.238289      -305.8094 
  77   2.0000     -11.238011      -305.8018 
  78   2.0000     -11.237713      -305.7937 
  79   2.0000     -11.237252      -305.7812 
  80   2.0000     -11.237067      -305.7761 
  81   2.0000     -11.236828      -305.7696 
  82   2.0000     -11.236721      -305.7667 
  83   2.0000     -11.236473      -305.7600 
  84   2.0000     -11.235536      -305.7345 
  85   2.0000     -11.234675      -305.7110 
  86   2.0000     -11.234568      -305.7081 
  87   2.0000     -11.232763      -305.6590 
  88   2.0000     -11.232192      -305.6435 
  89   2.0000     -11.232097      -305.6409 
  90   2.0000     -11.229128      -305.5601 
  91   2.0000     -11.228260      -305.5365 
  92   2.0000     -11.227981      -305.5289 
  93   2.0000     -11.224261      -305.4277 
  94   2.0000      -9.034006      -245.8278 
  95   2.0000      -9.027742      -245.6573 
  96   2.0000      -9.009315      -245.1559 
  97   2.0000      -9.008494      -245.1336 
  98   2.0000      -8.996690      -244.8124 
  99   2.0000      -8.995218      -244.7723 
 100   2.0000      -6.721287      -182.8955 
 101   2.0000      -6.720302      -182.8687 
 102   2.0000      -6.718638      -182.8234 
 103   2.0000      -6.715038      -182.7255 
 104   2.0000      -6.714059      -182.6988 
 105   2.0000      -6.712392      -182.6535 
 106   2.0000      -6.696771      -182.2284 
 107   2.0000      -6.695905      -182.2048 
 108   2.0000      -6.695624      -182.1972 
 109   2.0000      -6.694661      -182.1710 
 110   2.0000      -6.693865      -182.1493 
 111   2.0000      -6.692958      -182.1246 
 112   2.0000      -6.684202      -181.8864 
 113   2.0000      -6.683194      -181.8590 
 114   2.0000      -6.682754      -181.8470 
 115   2.0000      -6.681742      -181.8194 
 116   2.0000      -6.681347      -181.8087 
 117   2.0000      -6.679841      -181.7677 
 118   2.0000      -1.415846       -38.5271 
 119   2.0000      -1.403323       -38.1864 
 120   2.0000      -1.402251       -38.1572 
 121   2.0000      -1.394613       -37.9493 
 122   2.0000      -1.250316       -34.0228 
 123   2.0000      -1.243659       -33.8417 
 124   2.0000      -1.230528       -33.4844 
 125   2.0000      -1.224632       -33.3239 
 126   2.0000      -1.223175       -33.2843 
 127   2.0000      -1.218347       -33.1529 
 128   2.0000      -1.217863       -33.1397 
 129   2.0000      -1.207288       -32.8520 
 130   2.0000      -1.194899       -32.5149 
 131   2.0000      -1.191545       -32.4236 
 132   2.0000      -1.166944       -31.7542 
 133   2.0000      -1.160651       -31.5829 
 134   2.0000      -1.156708       -31.4756 
 135   2.0000      -1.155887       -31.4533 
 136   2.0000      -1.147036       -31.2124 
 137   2.0000      -1.143441       -31.1146 
 138   2.0000      -1.141554       -31.0633 
 139   2.0000      -1.116163       -30.3723 
 140   2.0000      -1.101709       -29.9790 
 141   2.0000      -1.095817       -29.8187 
 142   2.0000      -1.086603       -29.5680 
 143   2.0000      -1.077713       -29.3261 
 144   2.0000      -1.072694       -29.1895 
 145   2.0000      -1.064140       -28.9567 
 146   2.0000      -1.052821       -28.6487 
 147   2.0000      -1.051399       -28.6100 
 148   2.0000      -1.039620       -28.2895 
 149   2.0000      -1.035588       -28.1798 
 150   2.0000      -1.031792       -28.0765 
 151   2.0000      -1.025277       -27.8992 
 152   2.0000      -1.020179       -27.7605 
 153   2.0000      -1.014375       -27.6026 
 154   2.0000      -1.008712       -27.4485 
 155   2.0000      -1.006976       -27.4012 
 156   2.0000      -1.005239       -27.3540 
 157   2.0000      -1.004271       -27.3276 
 158   2.0000      -1.002528       -27.2802 
 159   2.0000      -0.999560       -27.1994 
 160   2.0000      -0.993881       -27.0449 
 161   2.0000      -0.984945       -26.8017 
 162   2.0000      -0.981450       -26.7066 
 163   2.0000      -0.978760       -26.6334 
 164   2.0000      -0.972142       -26.4533 
 165   2.0000      -0.970426       -26.4066 
 166   2.0000      -0.948733       -25.8163 
 167   2.0000      -0.936697       -25.4888 
 168   2.0000      -0.926901       -25.2223 
 169   2.0000      -0.922989       -25.1158 
 170   2.0000      -0.921311       -25.0701 
 171   2.0000      -0.915801       -24.9202 
 172   2.0000      -0.907553       -24.6958 
 173   2.0000      -0.903191       -24.5771 
 174   2.0000      -0.897999       -24.4358 
 175   2.0000      -0.864456       -23.5230 
 176   2.0000      -0.855889       -23.2899 
 177   2.0000      -0.855808       -23.2877 
 178   2.0000      -0.851781       -23.1781 
 179   2.0000      -0.841560       -22.9000 
 180   2.0000      -0.829987       -22.5851 
 181   2.0000      -0.827978       -22.5304 
 182   2.0000      -0.826465       -22.4893 
 183   2.0000      -0.823676       -22.4134 
 184   2.0000      -0.821536       -22.3551 
 185   2.0000      -0.815818       -22.1995 
 186   2.0000      -0.815423       -22.1888 
 187   2.0000      -0.813763       -22.1436 
 188   2.0000      -0.809864       -22.0375 
 189   2.0000      -0.801766       -21.8172 
 190   2.0000      -0.799025       -21.7426 
 191   2.0000      -0.792630       -21.5686 
 192   2.0000      -0.786568       -21.4036 
 193   2.0000      -0.780987       -21.2517 
 194   2.0000      -0.779395       -21.2084 
 195   2.0000      -0.772064       -21.0089 
 196   2.0000      -0.760282       -20.6883 
 197   2.0000      -0.758917       -20.6512 
 198   2.0000      -0.757832       -20.6217 
 199   2.0000      -0.747431       -20.3386 
 200   2.0000      -0.745755       -20.2930 
 201   2.0000      -0.739012       -20.1095 
 202   2.0000      -0.733000       -19.9459 
 203   2.0000      -0.728531       -19.8243 
 204   2.0000      -0.726455       -19.7678 
 205   2.0000      -0.722577       -19.6623 
 206   2.0000      -0.719642       -19.5825 
 207   2.0000      -0.701738       -19.0953 
 208   2.0000      -0.694232       -18.8910 
 209   2.0000      -0.691416       -18.8144 
 210   2.0000      -0.690227       -18.7820 
 211   2.0000      -0.687161       -18.6986 
 212   2.0000      -0.684499       -18.6262 
 213   2.0000      -0.680970       -18.5301 
 214   2.0000      -0.677411       -18.4333 
 215   2.0000      -0.670293       -18.2396 
 216   2.0000      -0.666240       -18.1293 
 217   2.0000      -0.659765       -17.9531 
 218   2.0000      -0.657662       -17.8959 
 219   2.0000      -0.654421       -17.8077 
 220   2.0000      -0.651402       -17.7256 
 221   2.0000      -0.649823       -17.6826 
 222   2.0000      -0.649001       -17.6602 
 223   2.0000      -0.647754       -17.6263 
 224   2.0000      -0.646486       -17.5918 
 225   2.0000      -0.641568       -17.4580 
 226   2.0000      -0.638108       -17.3638 
 227   2.0000      -0.636626       -17.3235 
 228   2.0000      -0.631285       -17.1781 
 229   2.0000      -0.629708       -17.1352 
 230   2.0000      -0.626550       -17.0493 
 231   2.0000      -0.625026       -17.0078 
 232   2.0000      -0.623502       -16.9663 
 233   2.0000      -0.621481       -16.9114 
 234   2.0000      -0.617763       -16.8102 
 235   2.0000      -0.617248       -16.7962 
 236   2.0000      -0.616747       -16.7825 
 237   2.0000      -0.609898       -16.5962 
 238   2.0000      -0.608135       -16.5482 
 239   2.0000      -0.607184       -16.5223 
 240   2.0000      -0.606542       -16.5048 
 241   2.0000      -0.603241       -16.4150 
 242   2.0000      -0.596801       -16.2398 
 243   2.0000      -0.595761       -16.2115 
 244   2.0000      -0.594760       -16.1842 
 245   2.0000      -0.593091       -16.1388 
 246   2.0000      -0.590601       -16.0711 
 247   2.0000      -0.589088       -16.0299 
 248   2.0000      -0.587299       -15.9812 
 249   2.0000      -0.583243       -15.8708 
 250   2.0000      -0.582301       -15.8452 
 251   2.0000      -0.581464       -15.8224 
 252   2.0000      -0.580724       -15.8023 
 253   2.0000      -0.578557       -15.7433 
 254   2.0000      -0.577450       -15.7132 
 255   2.0000      -0.576989       -15.7007 
 256   2.0000      -0.576328       -15.6827 
 257   2.0000      -0.575597       -15.6628 
 258   2.0000      -0.574313       -15.6278 
 259   2.0000      -0.572929       -15.5902 
 260   2.0000      -0.571327       -15.5466 
 261   2.0000      -0.569496       -15.4968 
 262   2.0000      -0.567043       -15.4300 
 263   2.0000      -0.565734       -15.3944 
 264   2.0000      -0.563196       -15.3253 
[...]

      *** CONVERGENCE OF RESIDUAL NORM REACHED ***

Storing the converged CI vectors               ... i-cc23.cis1

                 *** DAVIDSON DONE ***

Total time for solving the CIS problem: 53477.011sec

-----------------------------
CIS-EXCITED STATES (SINGLETS)
-----------------------------

the weight of the individual excitations are printed if larger than 1.0e-02

STATE  1:  E=   0.135503 au      3.687 eV    29739.4 cm**-1
   343a -> 350a  :     0.075930 (c=  0.27555414)
   344a -> 349a  :     0.756243 (c=  0.86962226)
   344a -> 351a  :     0.012068 (c= -0.10985639)

STATE  2:  E=   0.147281 au      4.008 eV    32324.4 cm**-1
   323a -> 345a  :     0.014936 (c= -0.12221478)
   326a -> 345a  :     0.017039 (c=  0.13053542)
   332a -> 345a  :     0.027851 (c=  0.16688496)
   334a -> 345a  :     0.029951 (c= -0.17306364)
   335a -> 345a  :     0.266362 (c= -0.51610304)
   335a -> 347a  :     0.059064 (c=  0.24303169)
   337a -> 345a  :     0.018098 (c=  0.13452805)
   338a -> 345a  :     0.023321 (c=  0.15271272)
   340a -> 345a  :     0.013814 (c=  0.11753280)
   343a -> 345a  :     0.139662 (c= -0.37371318)
   343a -> 347a  :     0.042205 (c=  0.20543886)
   344a -> 345a  :     0.180620 (c= -0.42499456)
   344a -> 347a  :     0.046020 (c=  0.21452163)

STATE  3:  E=   0.151151 au      4.113 eV    33173.9 cm**-1
   322a -> 346a  :     0.010539 (c=  0.10266084)
   331a -> 346a  :     0.013562 (c=  0.11645595)
   338a -> 346a  :     0.387919 (c=  0.62283136)
   338a -> 348a  :     0.055993 (c= -0.23662770)
   339a -> 346a  :     0.199795 (c= -0.44698457)
   339a -> 348a  :     0.033356 (c=  0.18263631)
   340a -> 346a  :     0.044085 (c=  0.20996376)
   342a -> 346a  :     0.014097 (c=  0.11873037)
   343a -> 346a  :     0.054269 (c=  0.23295730)
   343a -> 348a  :     0.013986 (c= -0.11826224)
   344a -> 346a  :     0.023126 (c= -0.15207113)
   344a -> 349a  :     0.014440 (c=  0.12016493)


----------------------
CIS-EXCITATION SPECTRA
----------------------

Center of mass = (  9.8166, -4.4936, -4.8946)
Calculating the Dipole integrals                  ... done
Transforming integrals                            ... done
Calculating the Linear Momentum integrals         ... done
Transforming integrals                            ... done
Calculating angular momentum integrals            ... done
Transforming integrals                            ... done

-----------------------------------------------------------------------------
         ABSORPTION SPECTRUM VIA TRANSITION ELECTRIC DIPOLE MOMENTS
-----------------------------------------------------------------------------
State   Energy    Wavelength  fosc         T2        TX        TY        TZ  
        (cm-1)      (nm)                 (au**2)    (au)      (au)      (au) 
-----------------------------------------------------------------------------
   1   29739.4    336.3   2.114937167  23.41212  -4.41674  -0.92415   1.74657
   2   32324.4    309.4   0.156476386   1.59365  -0.74635   0.91206  -0.45250
   3   33173.9    301.4   0.263831169   2.61821   1.01128   1.06733  -0.67553

-----------------------------------------------------------------------------
         ABSORPTION SPECTRUM VIA TRANSITION VELOCITY DIPOLE MOMENTS
-----------------------------------------------------------------------------
State   Energy    Wavelength   fosc        P2         PX        PY        PZ  
        (cm-1)      (nm)                 (au**2)     (au)      (au)      (au) 
-----------------------------------------------------------------------------
   1   29739.4    336.3   1.130068519   0.22969   0.44285   0.05543  -0.17466
   2   32324.4    309.4   0.107067881   0.02365   0.15013   0.01265   0.03092
   3   33173.9    301.4   0.254146335   0.05762  -0.19488  -0.13785   0.02535

-------------------------------------------------------------------
                             CD SPECTRUM
-------------------------------------------------------------------
State  Energy     Wavelength     R         MX        MY        MZ   
       (cm-1)       (nm)     (1e40*cgs)   (au)      (au)      (au)  
-------------------------------------------------------------------
   1   29739.4    336.3    -76.69273  -0.26673  -0.37571  -0.96644
   2   32324.4    309.4    -228.79804  -0.26159  -1.00526  -0.52224
   3   33173.9    301.4    -183.95892   0.44144  -0.22689   0.87997

Total run time:    53667.118 sec

           *** ORCA-CIS/TD-DFT FINISHED WITHOUT ERROR ***

-----------------------
CIS/TD-DFT TOTAL ENERGY
-----------------------

    E(SCF)  =  -5959.662446065 Eh
    DE(CIS) =      0.135502698 Eh (Root  1)
    ----------------------------- ---------
    E(tot)  =  -5959.526943367 Eh


-------------------------   --------------------
FINAL SINGLE POINT ENERGY     -5959.526943366979
-------------------------   --------------------

------------------------------------------------------------------------------
                         ORCA SCF GRADIENT CALCULATION
------------------------------------------------------------------------------


------------
CIS GRADIENT
------------

Reference wavefunction             ... RHF
State of interest                  ... 1
Basis dimension                    ... 1610
DFT-XC contribution needed         ... NO
RI-approximation                   ... OFF
CIS-vectors being read from        ... i-cc23.cis

 => Number of Vectors found: 3
 => Orbital Window: 118...344 -> 345...1609

Reading the CIS file                     ... done
Norm of the CI vector                    ... 1.000000000
Making the CIS (pseudo)densities         ... done
Making operators G(D) and Q(T)           ... done
Transforming the Fock operators          ... done
Making the frozen-core relaxed density   ... done
Constructing the G(H) operator           ... done
Transforming the G(H) operator           ... done
Calculating the CIS Lagrangian           ... done
Solving the Z-vector equations           ... done
Finalizing the relaxed density           ... done
Storing the relaxed density              ... done
Constructing the G(Z) operator           ... done
Transforming the G(Z) operator           ... done
Making the W-matrix                      ... done
Finalizing the W-matrix                  ... done
Transforming the W-matrix                ... done
Nuclear repulsion gradient               ... done
One-Electron gradient                    ... done
Prescreening matrices                    ... done
Two-Electron gradient (4-center)         ... done
                 ---------------------------
                 EXCITED STATE GRADIENT DONE
                 ---------------------------


------------------
CARTESIAN GRADIENT
------------------

   1   C   :   -0.000229660   -0.003147622   -0.006777751
   2   C   :    0.007330132    0.000925445    0.000628763
   3   S   :    0.001736887    0.002408932    0.004456017
   4   C   :   -0.026359608   -0.006421381    0.020515424
   5   C   :    0.012762124    0.002823027   -0.014096724
   6   C   :   -0.016441949   -0.003529389   -0.000753378
   7   C   :    0.036798579    0.009125488   -0.014080887
   8   C   :   -0.024541030   -0.007263114   -0.004543904
   9   C   :   -0.000744715   -0.001390041   -0.003055967
  10   C   :   -0.019766948   -0.006700504    0.020361141
  11   C   :    0.025713579    0.006691888    0.003138465
  12   C   :   -0.027539341   -0.009572146    0.009992632
  13   C   :    0.017433671    0.005741170   -0.017339900
  14   C   :    0.002073574   -0.002189674    0.001987326
  15   C   :   -0.004890683   -0.001096831   -0.000826809
  16   C   :    0.018948065    0.006477907   -0.008665854
  17   C   :   -0.001401835   -0.000089166   -0.005285168
  18   C   :    0.012651722    0.004456434    0.002334835
  19   S   :   -0.000811803   -0.000293319    0.001749267
  20   C   :    0.000001970   -0.009427645   -0.003314280
  21   C   :   -0.004455639    0.009032950   -0.004630666
  22   C   :    0.000064242    0.007683791    0.006601792
  23   C   :    0.005455498   -0.007142520    0.002722455
  24   C   :    0.002349762   -0.001549531   -0.002119077
  25   C   :    0.001109058    0.000470139   -0.004749441
  26   C   :    0.002618264   -0.006460901    0.008856563
  27   C   :    0.000436347   -0.002169911    0.002492382
  28   C   :   -0.002876206    0.003537690   -0.001262806
  29   C   :   -0.003517260    0.000616871   -0.001019393
  30   C   :   -0.003210762   -0.000515854   -0.001855173
  31   C   :    0.003790781    0.009120472    0.004582921
  32   C   :    0.001397970    0.002292488    0.001612651
  33   C   :    0.001289555   -0.004450528   -0.000798472
  34   C   :   -0.000056659   -0.004158933    0.000108392
  35   C   :   -0.002423548   -0.000015425   -0.000799050
  36   C   :   -0.005811988    0.008302651   -0.003135816
  37   C   :    0.001491163    0.000662166    0.001501689
  38   C   :    0.002507735    0.000663156    0.001811783
  39   C   :    0.000086384    0.004116440    0.000475140
  40   C   :   -0.000705485    0.000500983   -0.001873560
  41   C   :    0.000086904   -0.006639997   -0.008631689
  42   C   :   -0.000275977   -0.001477926    0.002631267
  43   C   :   -0.000952732   -0.001322344    0.002306018
  44   C   :   -0.006260855    0.002672543   -0.003993577
  45   C   :    0.004390137    0.003374272   -0.001557440
  46   C   :   -0.001995939   -0.007919189    0.002205753
  47   C   :    0.000206298   -0.000044549   -0.006520462
  48   C   :   -0.003290330    0.005619815    0.004722833
  49   C   :    0.004674072    0.000143560    0.000943093
  50   C   :   -0.002900372   -0.009065054    0.001804665
  51   C   :    0.005831708    0.001476250    0.000736323
  52   S   :    0.004958762   -0.004553362   -0.005735030
  53   C   :   -0.004814437   -0.004454944   -0.012550261
  54   C   :   -0.012422837    0.012745482    0.019898452
  55   C   :   -0.003670974    0.001793714   -0.000626145
  56   C   :    0.021119529   -0.004941352   -0.009387591
  57   O   :    0.002789576   -0.005204562    0.016717293
  58   C   :    0.000033082   -0.000538633   -0.000912459
  59   C   :   -0.014243505    0.005207707   -0.014534510
  60   C   :   -0.013737650    0.002324512   -0.038110901
  61   C   :    0.003572634   -0.002927355    0.022960766
  62   C   :    0.007769221    0.005486571   -0.031989025
  63   C   :   -0.010682281   -0.013417400    0.023786913
  64   S   :   -0.005844329   -0.002213313    0.010690621
  65   C   :   -0.012068331   -0.001051634    0.004231739
  66   C   :    0.017975927    0.000844803   -0.003434516
  67   O   :    0.010874129   -0.003009953    0.049554032
  68   C   :    0.011827771    0.012027996   -0.024447922
  69   C   :    0.048522776   -0.017037731    0.059078810
  70   C   :   -0.073559848   -0.027776593    0.008262247
  71   N   :    0.070212726    0.021852986   -0.005200655
  72   N   :   -0.046546269    0.015687217   -0.053251597
  73   C   :   -0.017022698    0.000147757    0.012995656
  74   S   :   -0.007483371    0.005301560    0.006824497
  75   C   :    0.000486614    0.014027275    0.005148775
  76   C   :    0.012764749   -0.013964104   -0.017729700
  77   C   :    0.011614074    0.000363628   -0.006483910
  78   C   :   -0.018942973    0.004641820    0.008974072
  79   O   :    0.007722810   -0.003847594   -0.013091717
  80   C   :   -0.000021338    0.001340990    0.001087757
  81   C   :    0.008818545    0.016895757    0.001190038
  82   C   :    0.012806478    0.036692778    0.009842070
  83   C   :   -0.002269057   -0.022791027   -0.005762015
  84   C   :   -0.008959990    0.031225235    0.007755007
  85   C   :    0.011928332   -0.024473258    0.000616696
  86   S   :    0.006477341   -0.010089884   -0.002799689
  87   C   :    0.012511546   -0.004157430   -0.001649371
  88   C   :   -0.018575331    0.002364864    0.000268824
  89   O   :   -0.008860358   -0.047655741   -0.013223733
  90   C   :   -0.012765909    0.024172849   -0.000023137
  91   C   :   -0.043514529   -0.063643148   -0.009042824
  92   C   :    0.075633648   -0.013917519    0.016660125
  93   N   :   -0.070628115    0.010684641   -0.012746107
  94   N   :    0.041941367    0.058034764    0.008468440
  95   H   :   -0.002175548   -0.000344410    0.007802564
  96   H   :   -0.005175398   -0.000752000   -0.006810514
  97   H   :    0.004796492    0.001378998    0.006750899
  98   H   :    0.000944414    0.002061217   -0.007337943
  99   H   :    0.002624907    0.001658902   -0.007953387
 100   H   :    0.004926196   -0.005926518   -0.002220484
 101   H   :   -0.002678929   -0.000878425    0.007215344
 102   H   :   -0.005147070    0.006580221    0.001688684
 103   H   :   -0.006834936   -0.003190504   -0.004717247
 104   H   :   -0.005197890    0.005775115   -0.001206856
 105   H   :    0.006098571    0.002184758    0.004640743
 106   H   :    0.004682862   -0.006706818    0.001187439
 107   H   :   -0.001440329   -0.007912776   -0.002363046
 108   H   :   -0.006811039   -0.000360552   -0.004092262
 109   H   :    0.001999443    0.007238172    0.002744290
 110   H   :    0.007015086   -0.000433926    0.004461883
 111   H   :    0.001971966    0.007744217   -0.000974688
 112   H   :    0.001892385    0.001712555   -0.007495033
 113   H   :   -0.002500958   -0.007205775    0.001738786
 114   H   :   -0.002579298   -0.000905538    0.008683522
 115   H   :    0.003445712    0.003340291    0.005724451
 116   H   :    0.004927577   -0.003877567   -0.003737656
 117   H   :   -0.005174451    0.004240877    0.003525102
 118   H   :    0.002466908   -0.004897328    0.004423991
 119   H   :   -0.003730580   -0.002973940   -0.005046140
 120   H   :   -0.004980031    0.004691912   -0.002805899
 121   H   :    0.006136528    0.002570155   -0.002816749
 122   H   :   -0.005572893   -0.003034301    0.003105489
 123   H   :    0.001873478    0.005920860    0.002707490
 124   H   :    0.004929082   -0.004407855    0.002301527
 125   H   :    0.002476881   -0.006193989    0.003048716
 126   H   :    0.003872183    0.002131322   -0.005494769
 127   H   :   -0.003971631   -0.001986783    0.005557215
 128   H   :   -0.001824363   -0.004554862   -0.004866608
 129   H   :   -0.002854330    0.005993337   -0.002237374
 130   H   :    0.003496605    0.003586983   -0.005502482
 131   H   :    0.001775147    0.005377701    0.005163964
 132   H   :   -0.001204039   -0.004910712   -0.005436959
 133   H   :   -0.003889993    0.005212222   -0.001689555
 134   H   :   -0.002936254   -0.003911412    0.005249328
 135   H   :   -0.006354236   -0.002521659   -0.002817530
 136   H   :    0.002502132    0.001171622    0.009005336
 137   H   :    0.003970237    0.003950521    0.006491113
 138   H   :   -0.006976438    0.004944747   -0.003489471
 139   H   :    0.006729679    0.001148028   -0.008148175
 140   H   :   -0.007977077   -0.000064566   -0.001646690
 141   H   :   -0.000087606    0.001882671   -0.008611768
 142   H   :    0.005545590    0.005822406    0.002097795
 143   H   :   -0.001213494   -0.009637890   -0.003996499
 144   H   :    0.000553790   -0.001380647    0.008980956
 145   H   :    0.003649849   -0.006288837   -0.004001961
 146   H   :   -0.010736874   -0.000203503   -0.001104546
 147   H   :    0.007814896    0.001872454    0.000051590
 148   H   :   -0.000595275    0.008189425    0.002401716

Difference to translation invariance:
           :   -0.0000000001    0.0000000000   -0.0000000001

Norm of the cartesian gradient     ...    0.2833424697
RMS gradient                       ...    0.0134468385
MAX gradient                       ...    0.0756336480

-------
TIMINGS
-------

Total CIS gradient time            ...    35000.407 sec

Fock matrix formation       ....    3069.644 sec  (  8.8%)
  Coulomb formation         ....    3069.644 sec  (100.0% of F)
Z-vector equation           ....   28397.363 sec  ( 81.1%)
One electron gradient       ....      30.222 sec  (  0.1%)
Prescreening matrices       ....       1.628 sec  (  0.0%)
Two electron gradient       ....    3494.828 sec  ( 10.0%)

                            ***************************************
                            *     ORCA property calculations      *
                            ***************************************

                                    ---------------------
                                    Active property flags
                                    ---------------------
   (+) Dipole Moment


------------------------------------------------------------------------------
                       ORCA ELECTRIC PROPERTIES CALCULATION
------------------------------------------------------------------------------

Dipole Moment Calculation                       ... on
Quadrupole Moment Calculation                   ... off
Polarizability Calculation                      ... off
GBWName                                         ... i-cc23.gbw
Electron density file                           ... i-cc23.scfp
The origin for moment calculation is the CENTER OF MASS  = ( 9.816631, -4.493646 -4.894646)

-------------
DIPOLE MOMENT
-------------
                                X             Y             Z
Electronic contribution:     10.99046      15.09736     -12.95790
Nuclear contribution   :    -11.78054     -17.00201      14.25288
                        -----------------------------------------
Total Dipole Moment    :     -0.79008      -1.90465       1.29498
                        -----------------------------------------
Magnitude (a.u.)       :      2.43493
Magnitude (Debye)      :      6.18911



--------------------
Rotational spectrum 
--------------------
 
Rotational constants in cm-1:     0.000976     0.000181     0.000175 
Rotational constants in MHz :    29.253779     5.434151     5.232340 

 Dipole components along the rotational axes: 
x,y,z [a.u.] :     1.437946     1.208080     1.549761 
x,y,z [Debye]:     3.654968     3.070695     3.939180 

 

                        *** CIS RELAXED DENSITY ***

------------------------------------------------------------------------------
                       ORCA ELECTRIC PROPERTIES CALCULATION
------------------------------------------------------------------------------

Dipole Moment Calculation                       ... on
Quadrupole Moment Calculation                   ... off
Polarizability Calculation                      ... off
GBWName                                         ... i-cc23.gbw
Electron density file                           ... i-cc23.cisp
The origin for moment calculation is the CENTER OF MASS  = ( 9.816631, -4.493646 -4.894646)

-------------
DIPOLE MOMENT
-------------
                                X             Y             Z
Electronic contribution:     11.04930      15.10061     -12.90259
Nuclear contribution   :    -11.78054     -17.00201      14.25288
                        -----------------------------------------
Total Dipole Moment    :     -0.73125      -1.90140       1.35028
                        -----------------------------------------
Magnitude (a.u.)       :      2.44404
Magnitude (Debye)      :      6.21225



--------------------
Rotational spectrum 
--------------------
 
Rotational constants in cm-1:     0.000976     0.000181     0.000175 
Rotational constants in MHz :    29.253779     5.434151     5.232340 

 Dipole components along the rotational axes: 
x,y,z [a.u.] :     1.399613     1.278843     1.542390 
x,y,z [Debye]:     3.557534     3.250561     3.920444 

 

Timings for individual modules:

Sum of individual times         ...   102603.362 sec (=1710.056 min)
GTO integral calculation        ...        2.764 sec (=   0.046 min)   0.0 %
SCF iterations                  ...    13932.835 sec (= 232.214 min)  13.6 %
CIS module                      ...    53667.318 sec (= 894.455 min)  52.3 %
SCF Gradient evaluation         ...    35000.445 sec (= 583.341 min)  34.1 %
                             ****ORCA TERMINATED NORMALLY****
TOTAL RUN TIME: 1 days 4 hours 30 minutes 4 seconds 681 msec
