
                                 *****************
                                 * O   R   C   A *
                                 *****************

           --- An Ab Initio, DFT and Semiempirical electronic structure package ---

                  #######################################################
                  #                        -***-                        #
                  #          Department of theory and spectroscopy      #
                  #               Directorship: Frank Neese             #
                  #        Max Planck Institute fuer Kohlenforschung    #
                  #                Kaiser Wilhelm Platz 1               #
                  #                 D-45470 Muelheim/Ruhr               #
                  #                      Germany                        #
                  #                                                     #
                  #                  All rights reserved                #
                  #                        -***-                        #
                  #######################################################


                         Program Version 4.2.0 -  RELEASE  -


 With contributions from (in alphabetic order):
   Daniel Aravena         : Magnetic Suceptibility
   Michael Atanasov       : Ab Initio Ligand Field Theory (pilot matlab implementation)
   Alexander A. Auer      : GIAO ZORA, VPT2
   Ute Becker             : Parallelization
   Giovanni Bistoni       : ED, misc. LED, open-shell LED, HFLED
   Martin Brehm           : Molecular dynamics
   Dmytro Bykov           : SCF Hessian
   Vijay G. Chilkuri      : MRCI spin determinant printing, contributions to CSF-ICE
   Dipayan Datta          : RHF DLPNO-CCSD density
   Achintya Kumar Dutta   : EOM-CC, STEOM-CC
   Dmitry Ganyushin       : Spin-Orbit,Spin-Spin,Magnetic field MRCI
   Miquel Garcia          : C-PCM Hessian, Gaussian charge scheme
   Yang Guo               : DLPNO-NEVPT2, CIM, IAO-localization
   Andreas Hansen         : Spin unrestricted coupled pair/coupled cluster methods
   Benjamin Helmich-Paris : CASSCF linear response (MC-RPA)
   Lee Huntington         : MR-EOM, pCC
   Robert Izsak           : Overlap fitted RIJCOSX, COSX-SCS-MP3, EOM
   Christian Kollmar      : KDIIS, OOCD, Brueckner-CCSD(T), CCSD density
   Simone Kossmann        : Meta GGA functionals, TD-DFT gradient, OOMP2, MP2 Hessian
   Martin Krupicka        : AUTO-CI
   Lucas Lang             : DCDCAS
   Dagmar Lenk            : GEPOL surface, SMD
   Dimitrios Liakos       : Extrapolation schemes; Compound Job, initial MDCI parallelization
   Dimitrios Manganas     : Further ROCIS development; embedding schemes
   Dimitrios Pantazis     : SARC Basis sets
   Taras Petrenko         : DFT Hessian,TD-DFT gradient, ASA, ECA, R-Raman, ABS, FL, XAS/XES, NRVS
   Peter Pinski           : DLPNO-MP2, DLPNO-MP2 Gradient
   Christoph Reimann      : Effective Core Potentials
   Marius Retegan         : Local ZFS, SOC
   Christoph Riplinger    : Optimizer, TS searches, QM/MM, DLPNO-CCSD(T), (RO)-DLPNO pert. Triples
   Tobias Risthaus        : Range-separated hybrids, TD-DFT gradient, RPA, STAB
   Michael Roemelt        : Original ROCIS implementation
   Masaaki Saitow         : Open-shell DLPNO-CCSD energy and density
   Barbara Sandhoefer     : DKH picture change effects
   Avijit Sen             : IP-ROCIS
   Kantharuban Sivalingam : CASSCF convergence, NEVPT2, FIC-MRCI
   Bernardo de Souza      : ESD, SOC TD-DFT
   Georgi Stoychev        : AutoAux, RI-MP2 NMR
   Willem Van den Heuvel  : Paramagnetic NMR
   Boris Wezisla          : Elementary symmetry handling
   Frank Wennmohs         : Technical directorship


 We gratefully acknowledge several colleagues who have allowed us to
 interface, adapt or use parts of their codes:
   Stefan Grimme, W. Hujo, H. Kruse,             : VdW corrections, initial TS optimization,
                  C. Bannwarth                     DFT functionals, gCP, sTDA/sTD-DF
   Ed Valeev, F. Pavosevic, A. Kumar             : LibInt (2-el integral package), F12 methods
   Garnet Chan, S. Sharma, J. Yang, R. Olivares  : DMRG
   Ulf Ekstrom                                   : XCFun DFT Library
   Mihaly Kallay                                 : mrcc  (arbitrary order and MRCC methods)
   Andreas Klamt, Michael Diedenhofen            : otool_cosmo (COSMO solvation model)
   Jiri Pittner, Ondrej Demel                    : Mk-CCSD
   Frank Weinhold                                : gennbo (NPA and NBO analysis)
   Christopher J. Cramer and Donald G. Truhlar   : smd solvation model
   Lars Goerigk                                  : TD-DFT with DH, B97 family of functionals
   V. Asgeirsson, H. Jonsson                     : NEB implementation
   FAccTs GmbH                                   : IRC, NEB, NEB-TS, Multilevel, MM, QM/MM, CI optimization
   S Lehtola, MJT Oliveira, MAL Marques          : LibXC Library


 Your calculation uses the libint2 library for the computation of 2-el integrals
 For citations please refer to: http://libint.valeyev.net

 Your ORCA version has been built with support for libXC version: 4.2.3
 For citations please refer to: https://tddft.org/programs/libxc/

 This ORCA versions uses:
   CBLAS   interface :  Fast vector & matrix operations
   LAPACKE interface :  Fast linear algebra routines
   SCALAPACK package :  Parallel linear algebra routines


----- Orbital basis set information -----
Your calculation utilizes the basis: def2-SVP
   F. Weigend and R. Ahlrichs, Phys. Chem. Chem. Phys. 7, 3297 (2005).

================================================================================
                                        WARNINGS
                       Please study these warnings very carefully!
================================================================================

INFO   : Checking CIS options ...

WARNING: CIS/ROCIS methods need fully converged wavefunctions
  ===> : Setting SCFConvForced true
         You can overwrite this default with %scf ConvForced false 


INFO   : the flag for use of LIBINT has been found!

================================================================================
                                       INPUT FILE
================================================================================
NAME = IDF-4F.inp
|  1> # ORCA input file
|  2> # IDF-4F.out
|  3> ! Engrad Keepdens
|  4> %maxcore 1000
|  5> %tddft
|  6>   nroots 3 
|  7>   # nroots is the number of states to be computed
|  8>   Iroot 1
|  9>   end
| 10> * xyz 0 1
| 11>    C        0.27522        -2.56479        -2.16661
| 12>    C       -0.90535        -2.79370        -1.50781
| 13>    C       -2.08193        -3.37517        -2.13136
| 14>    C       -3.17141        -3.32825        -1.15540
| 15>    C       -2.67841        -2.79032         0.04317
| 16>    C       -1.24480        -2.45509        -0.11019
| 17>    C       -4.50299        -3.70526        -1.24370
| 18>    C       -5.30463        -3.53335        -0.12512
| 19>    C       -4.80313        -3.00095         1.06310
| 20>    C       -3.47444        -2.62168         1.15882
| 21>    F       -5.61385        -2.85396         2.11796
| 22>    F       -6.59288        -3.88771        -0.19218
| 23>    O       -0.53596        -1.99921         0.76147
| 24>    C       -2.18858        -3.90526        -3.39048
| 25>    C       -3.37783        -4.45338        -3.91887
| 26>    C       -1.15657        -4.01307        -4.34787
| 27>    N       -4.30648        -4.91115        -4.41399
| 28>    N       -0.38815        -4.15611        -5.18955
| 29>    C        1.48142        -1.98833        -1.73816
| 30>    O        2.43429        -1.84365        -2.72525
| 31>    C        3.47496        -1.25768        -2.15219
| 32>    C        3.24508        -1.01063        -0.79739
| 33>    C        1.97341        -1.48752        -0.52301
| 34>    C       10.85829         3.63262        -3.56402
| 35>    C       10.89425         4.55336        -2.55621
| 36>    C        9.87709         4.96095        -1.61142
| 37>    C       10.55896         5.63739        -0.50919
| 38>    C       11.90214         5.84650        -0.87068
| 39>    C       12.15853         5.24183        -2.20108
| 40>    C       10.08466         6.09668         0.70866
| 41>    C       10.97277         6.75888         1.54277
| 42>    C       12.30179         6.97211         1.17437
| 43>    C       12.78216         6.51557        -0.04303
| 44>    F       13.12152         7.62350         2.00772
| 45>    F       10.54100         7.20037         2.72946
| 46>    O       13.18589         5.26364        -2.83704
| 47>    C        8.52390         4.97035        -1.82590
| 48>    C        7.57516         5.41284        -0.88328
| 49>    C        7.93185         4.62758        -3.05963
| 50>    N        6.75891         5.73053        -0.14156
| 51>    N        7.42033         4.42902        -4.06784
| 52>    C        4.74322        -0.74910        -2.56051
| 53>    C        5.31361        -0.15098        -1.40465
| 54>    C        4.46516        -0.40213        -0.16632
| 55>    C        5.38614        -0.73252        -3.79739
| 56>    C        6.57980        -0.05403        -3.87604
| 57>    C        7.08234         0.64965        -2.74976
| 58>    C        6.47222         0.58245        -1.49827
| 59>    C        7.47227         0.12825        -5.09756
| 60>    C        8.46132         1.12605        -4.56480
| 61>    C        8.21408         1.37572        -3.21799
| 62>    C        4.24124         0.87593         0.61324
| 63>    C        5.04947        -1.49202         0.72651
| 64>    C        8.24604        -1.12658        -5.47067
| 65>    C        6.63704         0.63484        -6.25903
| 66>    C        6.18210        -2.21535         0.38689
| 67>    C        6.63776        -3.22728         1.21443
| 68>    C        5.97482        -3.54345         2.39150
| 69>    C        4.83703        -2.81709         2.72316
| 70>    C        4.37783        -1.80648         1.90259
| 71>    C        3.16663         1.70695         0.33487
| 72>    C        2.98031         2.87434         1.05388
| 73>    C        3.85837         3.24060         2.06436
| 74>    C        4.94608         2.41459         2.32214
| 75>    C        5.13988         1.25060         1.60511
| 76>    C        6.03409        -0.26814        -7.12548
| 77>    C        5.24301         0.18205        -8.16523
| 78>    C        5.02868         1.54028        -8.36121
| 79>    C        5.62294         2.43581        -7.48210
| 80>    C        6.41327         1.99299        -6.43703
| 81>    C        9.01843        -1.10981        -6.62641
| 82>    C        9.76856        -2.21200        -6.98517
| 83>    C        9.77584        -3.35635        -6.19652
| 84>    C        9.00895        -3.36395        -5.04011
| 85>    C        8.25543        -2.26192        -4.67509
| 86>    C        6.44001        -4.67884         3.25643
| 87>    C        5.76378        -5.98354         2.82958
| 88>    C        3.66242         4.50386         2.85107
| 89>    C        4.67267         5.57365         2.43463
| 90>    C       10.55349        -4.57107        -6.61238
| 91>    C        9.69018        -5.48236        -7.48745
| 92>    C        4.21483         2.02662        -9.52525
| 93>    C        5.10695         2.22418       -10.75265
| 94>    C        9.56043         1.90537        -4.90632
| 95>    C        9.88270         2.63256        -3.75579
| 96>    O        9.05340         2.28120        -2.72245
| 97>    H        0.31465        -2.83969        -3.21385
| 98>    H       -4.94244        -4.11986        -2.13568
| 99>    H       -3.08002        -2.20796         2.07320
|100>    H        1.43412        -1.47921         0.40080
|101>    H       11.69559         3.62923        -4.25092
|102>    H        9.06654         5.95373         1.03275
|103>    H       13.80866         6.68205        -0.32823
|104>    H        4.95155        -1.22229        -4.65450
|105>    H        6.88964         1.09643        -0.64645
|106>    H        6.71841        -1.99233        -0.52391
|107>    H        7.52487        -3.77904         0.93720
|108>    H        4.30411        -3.04749         3.63425
|109>    H        3.49382        -1.24936         2.17476
|110>    H        2.46512         1.43766        -0.44166
|111>    H        2.13239         3.50530         0.82938
|112>    H        5.64436         2.68128         3.10244
|113>    H        5.98487         0.61523         1.83055
|114>    H        6.19260        -1.32900        -6.99354
|115>    H        4.78343        -0.53303        -8.83257
|116>    H        5.46314         3.49645        -7.61070
|117>    H        6.85184         2.71065        -5.76022
|118>    H        9.01963        -0.22853        -7.25099
|119>    H       10.36046        -2.18379        -7.88871
|120>    H        9.00161        -4.24293        -4.41139
|121>    H        7.67102        -2.29358        -3.76728
|122>    H        6.19670        -4.47301         4.30055
|123>    H        7.52283        -4.79060         3.17251
|124>    H        4.68319        -5.89548         2.91681
|125>    H        6.09726        -6.80763         3.45573
|126>    H        6.00496        -6.21370         1.79412
|127>    H        3.78465         4.29069         3.91633
|128>    H        2.64993         4.88096         2.69514
|129>    H        5.68826         5.23298         2.61933
|130>    H        4.50717         6.48910         2.99762
|131>    H        4.58124         5.79315         1.37456
|132>    H       10.87874        -5.12364        -5.72868
|133>    H       11.44035        -4.26911        -7.17289
|134>    H        8.80660        -5.80503        -6.94137
|135>    H       10.25229        -6.36247        -7.79029
|136>    H        9.36576        -4.95275        -8.38036
|137>    H        3.73559         2.97431        -9.27249
|138>    H        3.43468         1.30013        -9.76129
|139>    H        5.88336         2.95616       -10.54151
|140>    H        4.51948         2.57454       -11.59800
|141>    H        5.58592         1.28679       -11.02706
|142>    H       10.05281         1.99594        -5.85277
|143> *
|144> 
|145>                          ****END OF INPUT****
================================================================================

                     *******************************
                     * Energy+Gradient Calculation *
                     *******************************

---------------------------------
CARTESIAN COORDINATES (ANGSTROEM)
---------------------------------
  C      0.275220   -2.564790   -2.166610
  C     -0.905350   -2.793700   -1.507810
  C     -2.081930   -3.375170   -2.131360
  C     -3.171410   -3.328250   -1.155400
  C     -2.678410   -2.790320    0.043170
  C     -1.244800   -2.455090   -0.110190
  C     -4.502990   -3.705260   -1.243700
  C     -5.304630   -3.533350   -0.125120
  C     -4.803130   -3.000950    1.063100
  C     -3.474440   -2.621680    1.158820
  F     -5.613850   -2.853960    2.117960
  F     -6.592880   -3.887710   -0.192180
  O     -0.535960   -1.999210    0.761470
  C     -2.188580   -3.905260   -3.390480
  C     -3.377830   -4.453380   -3.918870
  C     -1.156570   -4.013070   -4.347870
  N     -4.306480   -4.911150   -4.413990
  N     -0.388150   -4.156110   -5.189550
  C      1.481420   -1.988330   -1.738160
  O      2.434290   -1.843650   -2.725250
  C      3.474960   -1.257680   -2.152190
  C      3.245080   -1.010630   -0.797390
  C      1.973410   -1.487520   -0.523010
  C     10.858290    3.632620   -3.564020
  C     10.894250    4.553360   -2.556210
  C      9.877090    4.960950   -1.611420
  C     10.558960    5.637390   -0.509190
  C     11.902140    5.846500   -0.870680
  C     12.158530    5.241830   -2.201080
  C     10.084660    6.096680    0.708660
  C     10.972770    6.758880    1.542770
  C     12.301790    6.972110    1.174370
  C     12.782160    6.515570   -0.043030
  F     13.121520    7.623500    2.007720
  F     10.541000    7.200370    2.729460
  O     13.185890    5.263640   -2.837040
  C      8.523900    4.970350   -1.825900
  C      7.575160    5.412840   -0.883280
  C      7.931850    4.627580   -3.059630
  N      6.758910    5.730530   -0.141560
  N      7.420330    4.429020   -4.067840
  C      4.743220   -0.749100   -2.560510
  C      5.313610   -0.150980   -1.404650
  C      4.465160   -0.402130   -0.166320
  C      5.386140   -0.732520   -3.797390
  C      6.579800   -0.054030   -3.876040
  C      7.082340    0.649650   -2.749760
  C      6.472220    0.582450   -1.498270
  C      7.472270    0.128250   -5.097560
  C      8.461320    1.126050   -4.564800
  C      8.214080    1.375720   -3.217990
  C      4.241240    0.875930    0.613240
  C      5.049470   -1.492020    0.726510
  C      8.246040   -1.126580   -5.470670
  C      6.637040    0.634840   -6.259030
  C      6.182100   -2.215350    0.386890
  C      6.637760   -3.227280    1.214430
  C      5.974820   -3.543450    2.391500
  C      4.837030   -2.817090    2.723160
  C      4.377830   -1.806480    1.902590
  C      3.166630    1.706950    0.334870
  C      2.980310    2.874340    1.053880
  C      3.858370    3.240600    2.064360
  C      4.946080    2.414590    2.322140
  C      5.139880    1.250600    1.605110
  C      6.034090   -0.268140   -7.125480
  C      5.243010    0.182050   -8.165230
  C      5.028680    1.540280   -8.361210
  C      5.622940    2.435810   -7.482100
  C      6.413270    1.992990   -6.437030
  C      9.018430   -1.109810   -6.626410
  C      9.768560   -2.212000   -6.985170
  C      9.775840   -3.356350   -6.196520
  C      9.008950   -3.363950   -5.040110
  C      8.255430   -2.261920   -4.675090
  C      6.440010   -4.678840    3.256430
  C      5.763780   -5.983540    2.829580
  C      3.662420    4.503860    2.851070
  C      4.672670    5.573650    2.434630
  C     10.553490   -4.571070   -6.612380
  C      9.690180   -5.482360   -7.487450
  C      4.214830    2.026620   -9.525250
  C      5.106950    2.224180  -10.752650
  C      9.560430    1.905370   -4.906320
  C      9.882700    2.632560   -3.755790
  O      9.053400    2.281200   -2.722450
  H      0.314650   -2.839690   -3.213850
  H     -4.942440   -4.119860   -2.135680
  H     -3.080020   -2.207960    2.073200
  H      1.434120   -1.479210    0.400800
  H     11.695590    3.629230   -4.250920
  H      9.066540    5.953730    1.032750
  H     13.808660    6.682050   -0.328230
  H      4.951550   -1.222290   -4.654500
  H      6.889640    1.096430   -0.646450
  H      6.718410   -1.992330   -0.523910
  H      7.524870   -3.779040    0.937200
  H      4.304110   -3.047490    3.634250
  H      3.493820   -1.249360    2.174760
  H      2.465120    1.437660   -0.441660
  H      2.132390    3.505300    0.829380
  H      5.644360    2.681280    3.102440
  H      5.984870    0.615230    1.830550
  H      6.192600   -1.329000   -6.993540
  H      4.783430   -0.533030   -8.832570
  H      5.463140    3.496450   -7.610700
  H      6.851840    2.710650   -5.760220
  H      9.019630   -0.228530   -7.250990
  H     10.360460   -2.183790   -7.888710
  H      9.001610   -4.242930   -4.411390
  H      7.671020   -2.293580   -3.767280
  H      6.196700   -4.473010    4.300550
  H      7.522830   -4.790600    3.172510
  H      4.683190   -5.895480    2.916810
  H      6.097260   -6.807630    3.455730
  H      6.004960   -6.213700    1.794120
  H      3.784650    4.290690    3.916330
  H      2.649930    4.880960    2.695140
  H      5.688260    5.232980    2.619330
  H      4.507170    6.489100    2.997620
  H      4.581240    5.793150    1.374560
  H     10.878740   -5.123640   -5.728680
  H     11.440350   -4.269110   -7.172890
  H      8.806600   -5.805030   -6.941370
  H     10.252290   -6.362470   -7.790290
  H      9.365760   -4.952750   -8.380360
  H      3.735590    2.974310   -9.272490
  H      3.434680    1.300130   -9.761290
  H      5.883360    2.956160  -10.541510
  H      4.519480    2.574540  -11.598000
  H      5.585920    1.286790  -11.027060
  H     10.052810    1.995940   -5.852770

----------------------------
CARTESIAN COORDINATES (A.U.)
----------------------------
  NO LB      ZA    FRAG     MASS         X           Y           Z
   0 C     6.0000    0    12.011    0.520090   -4.846751   -4.094300
   1 C     6.0000    0    12.011   -1.710864   -5.279328   -2.849348
   2 C     6.0000    0    12.011   -3.934278   -6.378147   -4.027687
   3 C     6.0000    0    12.011   -5.993096   -6.289481   -2.183390
   4 C     6.0000    0    12.011   -5.061461   -5.272941    0.081579
   5 C     6.0000    0    12.011   -2.352331   -4.639448   -0.208229
   6 C     6.0000    0    12.011   -8.509418   -7.001927   -2.350252
   7 C     6.0000    0    12.011  -10.024298   -6.677064   -0.236443
   8 C     6.0000    0    12.011   -9.076600   -5.670974    2.008968
   9 C     6.0000    0    12.011   -6.565740   -4.954257    2.189852
  10 F     9.0000    0    18.998  -10.608639   -5.393203    4.002364
  11 F     9.0000    0    18.998  -12.458738   -7.346707   -0.363168
  12 O     8.0000    0    15.999   -1.012818   -3.777959    1.438970
  13 C     6.0000    0    12.011   -4.135817   -7.379872   -6.407079
  14 C     6.0000    0    12.011   -6.383174   -8.415669   -7.405591
  15 C     6.0000    0    12.011   -2.185601   -7.583603   -8.216284
  16 N     7.0000    0    14.007   -8.138068   -9.280729   -8.341232
  17 N     7.0000    0    14.007   -0.733497   -7.853910   -9.806828
  18 C     6.0000    0    12.011    2.799478   -3.757399   -3.284646
  19 O     8.0000    0    15.999    4.600141   -3.483994   -5.149976
  20 C     6.0000    0    12.011    6.566723   -2.376671   -4.067050
  21 C     6.0000    0    12.011    6.132312   -1.909814   -1.506849
  22 C     6.0000    0    12.011    3.729204   -2.811005   -0.988346
  23 C     6.0000    0    12.011   20.519194    6.864657   -6.735022
  24 C     6.0000    0    12.011   20.587149    8.604603   -4.830537
  25 C     6.0000    0    12.011   18.664995    9.374837   -3.045142
  26 C     6.0000    0    12.011   19.953543   10.653123   -0.962230
  27 C     6.0000    0    12.011   22.491785   11.048284   -1.645347
  28 C     6.0000    0    12.011   22.976292    9.905623   -4.159438
  29 C     6.0000    0    12.011   19.057246   11.521056    1.339173
  30 C     6.0000    0    12.011   20.735530   12.772432    2.915413
  31 C     6.0000    0    12.011   23.247014   13.175378    2.219238
  32 C     6.0000    0    12.011   24.154782   12.312643   -0.081315
  33 F     9.0000    0    18.998   24.796079   14.406327    3.794041
  34 F     9.0000    0    18.998   19.919603   13.606727    5.157932
  35 O     8.0000    0    15.999   24.917721    9.946838   -5.361229
  36 C     6.0000    0    12.011   16.107837    9.392600   -3.450451
  37 C     6.0000    0    12.011   14.314978   10.228785   -1.669157
  38 C     6.0000    0    12.011   14.989024    8.744859   -5.781863
  39 N     7.0000    0    14.007   12.772489   10.829132   -0.267510
  40 N     7.0000    0    14.007   14.022392    8.369635   -7.687104
  41 C     6.0000    0    12.011    8.963387   -1.415594   -4.838663
  42 C     6.0000    0    12.011   10.041268   -0.285311   -2.654404
  43 C     6.0000    0    12.011    8.437930   -0.759916   -0.314299
  44 C     6.0000    0    12.011   10.178330   -1.384262   -7.176027
  45 C     6.0000    0    12.011   12.434020   -0.102102   -7.324654
  46 C     6.0000    0    12.011   13.383683    1.227661   -5.196293
  47 C     6.0000    0    12.011   12.230723    1.100671   -2.831320
  48 C     6.0000    0    12.011   14.120544    0.242357   -9.632992
  49 C     6.0000    0    12.011   15.989578    2.127926   -8.626222
  50 C     6.0000    0    12.011   15.522362    2.599734   -6.081120
  51 C     6.0000    0    12.011    8.014782    1.655268    1.158856
  52 C     6.0000    0    12.011    9.542115   -2.819509    1.372905
  53 C     6.0000    0    12.011   15.582757   -2.128928  -10.338068
  54 C     6.0000    0    12.011   12.542188    1.199674  -11.827853
  55 C     6.0000    0    12.011   11.682476   -4.186405    0.731116
  56 C     6.0000    0    12.011   12.543549   -6.098675    2.294940
  57 C     6.0000    0    12.011   11.290773   -6.696150    4.519280
  58 C     6.0000    0    12.011    9.140662   -5.323529    5.146027
  59 C     6.0000    0    12.011    8.272900   -3.413752    3.595374
  60 C     6.0000    0    12.011    5.984063    3.225668    0.632813
  61 C     6.0000    0    12.011    5.631970    5.431715    1.991545
  62 C     6.0000    0    12.011    7.291263    6.123847    3.901075
  63 C     6.0000    0    12.011    9.346737    4.562914    4.388209
  64 C     6.0000    0    12.011    9.712966    2.363292    3.033218
  65 C     6.0000    0    12.011   11.402778   -0.506711  -13.465206
  66 C     6.0000    0    12.011    9.907853    0.344025  -15.430049
  67 C     6.0000    0    12.011    9.502828    2.910707  -15.800397
  68 C     6.0000    0    12.011   10.625817    4.603014  -14.139120
  69 C     6.0000    0    12.011   12.119324    3.766205  -12.164224
  70 C     6.0000    0    12.011   17.042363   -2.097237  -12.522100
  71 C     6.0000    0    12.011   18.459903   -4.180074  -13.200058
  72 C     6.0000    0    12.011   18.473660   -6.342582  -11.709726
  73 C     6.0000    0    12.011   17.024448   -6.356944   -9.524428
  74 C     6.0000    0    12.011   15.600502   -4.274409   -8.834640
  75 C     6.0000    0    12.011   12.169855   -8.841726    6.153761
  76 C     6.0000    0    12.011   10.891966  -11.307252    5.347131
  77 C     6.0000    0    12.011    6.920971    8.511062    5.387741
  78 C     6.0000    0    12.011    8.830067   10.532672    4.600784
  79 C     6.0000    0    12.011   19.943206   -8.638070  -12.495587
  80 C     6.0000    0    12.011   18.311786  -10.360159  -14.149230
  81 C     6.0000    0    12.011    7.964874    3.829757  -18.000114
  82 C     6.0000    0    12.011    9.650737    4.203091  -20.319564
  83 C     6.0000    0    12.011   18.066594    3.600627   -9.271601
  84 C     6.0000    0    12.011   18.675596    4.974817   -7.097415
  85 O     8.0000    0    15.999   17.108447    4.310843   -5.144685
  86 H     1.0000    0     1.008    0.594602   -5.366236   -6.073296
  87 H     1.0000    0     1.008   -9.339858   -7.785407   -4.035850
  88 H     1.0000    0     1.008   -5.820394   -4.172440    3.917780
  89 H     1.0000    0     1.008    2.710094   -2.795302    0.757402
  90 H     1.0000    0     1.008   22.101462    6.858251   -8.033075
  91 H     1.0000    0     1.008   17.133278   11.250919    1.951615
  92 H     1.0000    0     1.008   26.094586   12.627245   -0.620265
  93 H     1.0000    0     1.008    9.357073   -2.309793   -8.795730
  94 H     1.0000    0     1.008   13.019533    2.071952   -1.221613
  95 H     1.0000    0     1.008   12.695955   -3.764958   -0.990046
  96 H     1.0000    0     1.008   14.219943   -7.141351    1.771051
  97 H     1.0000    0     1.008    8.133589   -5.758921    6.867737
  98 H     1.0000    0     1.008    6.602363   -2.360948    4.109701
  99 H     1.0000    0     1.008    4.658402    2.716784   -0.834616
 100 H     1.0000    0     1.008    4.029633    6.624057    1.567301
 101 H     1.0000    0     1.008   10.666295    5.066885    5.862762
 102 H     1.0000    0     1.008   11.309765    1.162616    3.459238
 103 H     1.0000    0     1.008   11.702318   -2.511446  -13.215875
 104 H     1.0000    0     1.008    9.039373   -1.007281  -16.691138
 105 H     1.0000    0     1.008   10.323838    6.607333  -14.382139
 106 H     1.0000    0     1.008   12.948101    5.122386  -10.885238
 107 H     1.0000    0     1.008   17.044631   -0.431859  -13.702385
 108 H     1.0000    0     1.008   19.578432   -4.126765  -14.907501
 109 H     1.0000    0     1.008   17.010578   -8.017976   -8.336319
 110 H     1.0000    0     1.008   14.496127   -4.334238   -7.119127
 111 H     1.0000    0     1.008   11.710066   -8.452764    8.126862
 112 H     1.0000    0     1.008   14.216088   -9.052922    5.995175
 113 H     1.0000    0     1.008    8.849947  -11.140843    5.511972
 114 H     1.0000    0     1.008   11.522152  -12.864556    6.530383
 115 H     1.0000    0     1.008   11.347730  -11.742191    3.390395
 116 H     1.0000    0     1.008    7.151952    8.108229    7.400791
 117 H     1.0000    0     1.008    5.007642    9.223678    5.093076
 118 H     1.0000    0     1.008   10.749254    9.888899    4.949816
 119 H     1.0000    0     1.008    8.517317   12.262622    5.664681
 120 H     1.0000    0     1.008    8.657289   10.947467    2.597542
 121 H     1.0000    0     1.008   20.557839   -9.682276  -10.825636
 122 H     1.0000    0     1.008   21.619128   -8.067449  -13.554798
 123 H     1.0000    0     1.008   16.642062  -10.969917  -13.117288
 124 H     1.0000    0     1.008   19.374020  -12.023326  -14.721515
 125 H     1.0000    0     1.008   17.698721   -9.359341  -15.836585
 126 H     1.0000    0     1.008    7.059242    5.620631  -17.522467
 127 H     1.0000    0     1.008    6.490605    2.456890  -18.446165
 128 H     1.0000    0     1.008   11.117939    5.586333  -19.920567
 129 H     1.0000    0     1.008    8.540579    4.865176  -21.917044
 130 H     1.0000    0     1.008   10.555859    2.431681  -20.838123
 131 H     1.0000    0     1.008   18.997058    3.771780  -11.060132

--------------------------------
INTERNAL COORDINATES (ANGSTROEM)
--------------------------------
 C      0   0   0     0.000000000000     0.00000000     0.00000000
 C      1   0   0     1.371190268708     0.00000000     0.00000000
 C      2   1   0     1.453018396236   123.90391350     0.00000000
 C      3   2   1     1.463443226914   107.68639682   185.89160045
 C      4   3   2     1.403206232098   108.68526006   357.70859369
 C      2   1   3     1.477573923362   127.87928890   183.18716507
 C      4   3   2     1.386736718523   131.58053680   177.58704003
 C      7   4   3     1.386867316689   118.03267873   180.06934185
 C      8   7   4     1.395284479380   121.76248154   359.87758873
 C      5   4   3     1.380861373564   122.30277937   180.12988693
 F      9   8   7     1.338507601062   119.69184492   180.04417002
 F      8   7   4     1.337780294256   118.90484813   179.81430420
 O      6   2   1     1.212465205934   129.18821167   354.23960718
 C      3   2   1     1.370311207354   127.74489986     7.04659480
 C     14   3   2     1.412071913537   124.02382328   179.96354435
 C     14   3   2     1.411829751882   126.56569603     0.93900627
 N     15  14   3     1.147644548543   176.16419770   177.99380577
 N     16  14   3     1.148631777551   174.51758308   174.61097019
 C      1   2   3     1.403849697831   131.42814502   178.08260318
 O     19   1   2     1.379579721292   114.71767396   184.18650374
 C     20  19   1     1.324670771701   106.22894206   178.32362213
 C     21  20  19     1.396195386363   111.63566502     0.29610922
 C     22  21  20     1.385587617367   106.40129330     0.33058771
 C     21  20  19     8.967823589244   145.07633858   202.08419764
 C     24  21  20     1.365553464827   105.85343291   138.78057000
 C     25  24  21     1.446849065314   130.79542438   345.95138039
 C     26  25  24     1.461994782275   107.14353013   162.01782471
 C     27  26  25     1.406603897549   108.68692851     9.90662032
 C     25  24  21     1.482738067293   120.81667115   160.25268683
 C     27  26  25     1.385303727202   131.03378842   187.49607246
 C     30  27  26     1.386718321866   117.89415364   182.60890968
 C     31  30  27     1.395521319543   121.60750314     0.51977659
 C     28  27  26     1.380975882411   121.77026224   177.40690074
 F     32  31  30     1.338184750885   119.56147477   179.58639988
 F     31  30  27     1.337748821379   118.97755721   180.62872795
 O     29  25  24     1.208465707954   127.38867346    12.98538784
 C     26  25  24     1.370114304173   126.44455538   329.55801233
 C     37  26  25     1.408700625435   124.23393818   181.85128126
 C     37  26  25     1.410710526047   123.34875116   356.99096474
 N     38  37  26     1.147754136128   176.68944723   209.65757478
 N     39  37  26     1.147852859952   175.71641530   243.08899815
 C     21  20  19     1.426135430596   137.09867287   184.30695724
 C     42  21  20     1.420952014003   105.91363529   175.46611433
 C     22  21  20     1.502370394177   110.21551860   177.51654114
 C     42  21  20     1.394092234108   131.94275743   357.52691317
 C     45  42  21     1.375266773466   117.18613898   174.68779062
 C     46  45  42     1.419936136733   120.41842701   356.89127861
 C     43  42  21     1.374431301084   120.50354806   188.11547270
 C     46  45  42     1.523758448607   127.82288048   180.57966472
 C     49  46  45     1.502550485042   100.41263350   171.23852444
 C     50  49  46     1.391890765326   110.19890913     4.11016583
 C     44  22  21     1.513701200237   115.98707327   128.23794120
 C     44  22  21     1.525261878203   105.51988051   251.55796964
 C     49  46  45     1.520700303775   113.32819917   285.53515279
 C     49  46  45     1.517647897867   109.33566105    50.68326634
 C     53  44  22     1.386145284665   122.85276138   104.60859021
 C     56  53  44     1.384359350783   120.26039808   182.41254973
 C     57  56  53     1.387424483495   121.09431042     0.25592752
 C     58  57  56     1.390022765749   118.32418628     0.00000000
 C     59  58  57     1.380410206062   120.86540929     0.00000000
 C     52  44  22     1.386676151594   121.14794528   335.06253911
 C     61  52  44     1.383650943916   120.37508346   180.26770619
 C     62  61  52     1.387878086000   121.05103302     0.02336263
 C     63  62  61     1.389912260756   118.24914019     1.07576734
 C     64  63  62     1.380783538792   120.96465514   359.14205891
 C     55  49  46     1.389121011791   119.95038738   269.80854680
 C     66  55  49     1.381867817485   120.39956377   178.29928905
 C     67  66  55     1.388932770943   120.86984807   359.64688180
 C     68  67  66     1.388507587520   118.38034261   359.65189963
 C     69  68  67     1.383069906476   121.09589602     0.18290936
 C     54  49  46     1.390180740983   118.47194609   175.35423040
 C     71  54  49     1.380661635087   120.54813270   178.12814481
 C     72  71  54     1.389805289744   120.84457963   359.54582725
 C     73  72  71     1.387610219118   118.32814307     0.07337687
 C     74  73  72     1.384016658751   121.08657342   359.90012783
 C     58  57  56     1.501204880454   120.86981510   177.44104162
 C     76  58  57     1.530271226090   110.31527518   270.66499520
 C     63  62  61     1.501044587679   121.40574712   180.11589012
 C     78  63  62     1.529208285421   111.08680261   254.20040516
 C     73  72  71     1.501074195535   120.78509727   177.83648072
 C     80  73  72     1.530196433501   110.36985680   271.08555371
 C     68  67  66     1.501288626381   120.65348783   177.47169413
 C     82  68  67     1.530169535705   110.34740992   271.97577010
 C     50  49  46     1.389970634546   143.67915129   183.34786670
 C     84  50  49     1.398707449719   105.75828604   178.18098211
 O     51  50  49     1.330380390866   111.74261680   181.52466205
 H      1   2   3     1.083437285910   116.96090065     0.02362080
 H      7   4   3     1.077329004019   123.30038842   359.86199426
 H     10   5   4     1.078342320045   121.40553593   179.91372854
 H     23  22  21     1.069732525588   129.12581332   180.27063070
 H     24  21  20     1.083011722974   137.27903870   314.19747243
 H     30  27  26     1.077978369449   122.93631344     3.13559847
 H     33  28  27     1.078312051495   121.52784353   180.60119631
 H     45  42  21     1.078601257694   120.91860115   355.51304217
 H     48  43  42     1.078893974958   121.77469434   176.11475728
 H     56  53  44     1.080242091617   120.29928447     2.60440664
 H     57  56  53     1.080860639768   119.33870830   180.25551283
 H     59  58  57     1.080357753015   119.57396095   179.89394734
 H     60  59  58     1.079783720659   120.01605416   180.14792204
 H     61  52  44     1.080570323996   119.86879180     0.83100552
 H     62  61  52     1.080499466913   119.36592496   180.55415072
 H     64  63  62     1.080549214289   119.53629008   179.83088143
 H     65  64  63     1.080983964081   119.79515159   180.83916502
 H     66  55  49     1.080720835045   119.88620429   357.61556181
 H     67  66  55     1.080692305145   119.50603695   179.80690431
 H     69  68  67     1.080292187142   119.63993454   180.50532225
 H     70  69  68     1.079560696117   119.53938573   180.85390525
 H     71  54  49     1.080164827607   119.41773891   357.45713812
 H     72  71  54     1.080521145420   119.60812164   179.76464498
 H     74  73  72     1.080716685538   119.54049491   180.11165637
 H     75  74  73     1.080118697088   119.53162588   180.27074561
 H     76  58  57     1.091674090285   109.83996269   150.22786895
 H     76  58  57     1.091802187395   109.90501248    31.18183821
 H     77  76  58     1.087675679879   110.34214866   300.29544849
 H     77  76  58     1.087380826114   110.48780247   180.11674378
 H     77  76  58     1.087804591643   110.36097252    59.93211172
 H     78  63  62     1.093233959132   109.39024730   133.65064179
 H     78  63  62     1.091629321244   109.69042096    15.27289742
 H     79  78  63     1.087011125518   110.59202484   298.98203672
 H     79  78  63     1.087380656716   110.32923906   178.87918710
 H     79  78  63     1.086410649708   110.57700491    58.46744879
 H     80  73  72     1.091808983934   109.85574794   150.56728723
 H     80  73  72     1.091728886354   109.83163747    31.58034491
 H     81  80  73     1.087673164007   110.35754838   300.11369814
 H     81  80  73     1.087323930483   110.46635282   179.95328935
 H     81  80  73     1.087668771548   110.35081637    59.79669416
 H     82  68  67     1.091638645019   109.85800076   151.46550877
 H     82  68  67     1.091850092366   109.84127134    32.43642715
 H     83  82  68     1.087744137240   110.32409740   300.04552273
 H     83  82  68     1.087423446961   110.49930608   179.88357186
 H     83  82  68     1.087847931055   110.35184910    59.72611887
 H     84  50  49     1.070704717371   128.92125308     1.10438061

---------------------------
INTERNAL COORDINATES (A.U.)
---------------------------
 C      0   0   0     0.000000000000     0.00000000     0.00000000
 C      1   0   0     2.591174085356     0.00000000     0.00000000
 C      2   1   0     2.745806836435   123.90391350     0.00000000
 C      3   2   1     2.765506911409   107.68639682   185.89160045
 C      4   3   2     2.651675488078   108.68526006   357.70859369
 C      2   1   3     2.792210057778   127.87928890   183.18716507
 C      4   3   2     2.620552617861   131.58053680   177.58704003
 C      7   4   3     2.620799412628   118.03267873   180.06934185
 C      8   7   4     2.636705544940   121.76248154   359.87758873
 C      5   4   3     2.609449824946   122.30277937   180.12988693
 F      9   8   7     2.529412794179   119.69184492   180.04417002
 F      8   7   4     2.528038383501   118.90484813   179.81430420
 O      6   2   1     2.291227186123   129.18821167   354.23960718
 C      3   2   1     2.589512900142   127.74489986     7.04659480
 C     14   3   2     2.668429197987   124.02382328   179.96354435
 C     14   3   2     2.667971578780   126.56569603     0.93900627
 N     15  14   3     2.168733895834   176.16419770   177.99380577
 N     16  14   3     2.170599488291   174.51758308   174.61097019
 C      1   2   3     2.652891462089   131.42814502   178.08260318
 O     19   1   2     2.607027853153   114.71767396   184.18650374
 C     20  19   1     2.503264976126   106.22894206   178.32362213
 C     21  20  19     2.638426909670   111.63566502     0.29610922
 C     22  21  20     2.618381131376   106.40129330     0.33058771
 C     21  20  19    16.946730600990   145.07633858   202.08419764
 C     24  21  20     2.580522069750   105.85343291   138.78057000
 C     25  24  21     2.734148490563   130.79542438   345.95138039
 C     26  25  24     2.762769747722   107.14353013   162.01782471
 C     27  26  25     2.658096145274   108.68692851     9.90662032
 C     25  24  21     2.801968875524   120.81667115   160.25268683
 C     27  26  25     2.617844656712   131.03378842   187.49607246
 C     30  27  26     2.620517853218   117.89415364   182.60890968
 C     31  30  27     2.637153107985   121.60750314     0.51977659
 C     28  27  26     2.609666215306   121.77026224   177.40690074
 F     32  31  30     2.528802695761   119.56147477   179.58639988
 F     31  30  27     2.527978908382   118.97755721   180.62872795
 O     29  25  24     2.283669230268   127.38867346    12.98538784
 C     26  25  24     2.589140807055   126.44455538   329.55801233
 C     37  26  25     2.662058386755   124.23393818   181.85128126
 C     37  26  25     2.665856548469   123.34875116   356.99096474
 N     38  37  26     2.168940986358   176.68944723   209.65757478
 N     39  37  26     2.169127547348   175.71641530   243.08899815
 C     21  20  19     2.695005393707   137.09867287   184.30695724
 C     42  21  20     2.685210155910   105.91363529   175.46611433
 C     22  21  20     2.839068596706   110.21551860   177.51654114
 C     42  21  20     2.634452527890   131.94275743   357.52691317
 C     45  42  21     2.598877562933   117.18613898   174.68779062
 C     46  45  42     2.683290426083   120.41842701   356.89127861
 C     43  42  21     2.597298748938   120.50354806   188.11547270
 C     46  45  42     2.879486162115   127.82288048   180.57966472
 C     49  46  45     2.839408919120   100.41263350   171.23852444
 C     50  49  46     2.630292354800   110.19890913     4.11016583
 C     44  22  21     2.860480717036   115.98707327   128.23794120
 C     44  22  21     2.882327232314   105.51988051   251.55796964
 C     49  46  45     2.873707105905   113.32819917   285.53515279
 C     49  46  45     2.867938894690   109.33566105    50.68326634
 C     53  44  22     2.619434969844   122.85276138   104.60859021
 C     56  53  44     2.616060043913   120.26039808   182.41254973
 C     57  56  53     2.621852305302   121.09431042     0.25592752
 C     58  57  56     2.626762347181   118.32418628     0.00000000
 C     59  58  57     2.608597241927   120.86540929     0.00000000
 C     52  44  22     2.620438162953   121.14794528   335.06253911
 C     61  52  44     2.614721348943   120.37508346   180.26770619
 C     62  61  52     2.622709489811   121.05103302     0.02336263
 C     63  62  61     2.626553523008   118.24914019     1.07576734
 C     64  63  62     2.609302738544   120.96465514   359.14205891
 C     55  49  46     2.625058279161   119.95038738   269.80854680
 C     66  55  49     2.611351728326   120.39956377   178.29928905
 C     67  66  55     2.624702555511   120.86984807   359.64688180
 C     68  67  66     2.623899075284   118.38034261   359.65189963
 C     69  68  67     2.613623347308   121.09589602     0.18290936
 C     54  49  46     2.627060877110   118.47194609   175.35423040
 C     71  54  49     2.609072373926   120.54813270   178.12814481
 C     72  71  54     2.626351377091   120.84457963   359.54582725
 C     73  72  71     2.622203294763   118.32814307     0.07337687
 C     74  73  72     2.615412449824   121.08657342   359.90012783
 C     58  57  56     2.836866094965   120.86981510   177.44104162
 C     76  58  57     2.891793527931   110.31527518   270.66499520
 C     63  62  61     2.836563185518   121.40574712   180.11589012
 C     78  63  62     2.889784861169   111.08680261   254.20040516
 C     73  72  71     2.836619136257   120.78509727   177.83648072
 C     80  73  72     2.891652190420   110.36985680   271.08555371
 C     68  67  66     2.837024351830   120.65348783   177.47169413
 C     82  68  67     2.891601360952   110.34740992   271.97577010
 C     50  49  46     2.626663833485   143.67915129   183.34786670
 C     84  50  49     2.643174021445   105.75828604   178.18098211
 O     51  50  49     2.514054592675   111.74261680   181.52466205
 H      1   2   3     2.047399753649   116.96090065     0.02362080
 H      7   4   3     2.035856773726   123.30038842   359.86199426
 H     10   5   4     2.037771663502   121.40553593   179.91372854
 H     23  22  21     2.021501509908   129.12581332   180.27063070
 H     24  21  20     2.046595556248   137.27903870   314.19747243
 H     30  27  26     2.037083896550   122.93631344     3.13559847
 H     33  28  27     2.037714464233   121.52784353   180.60119631
 H     45  42  21     2.038260984745   120.91860115   355.51304217
 H     48  43  42     2.038814140208   121.77469434   176.11475728
 H     56  53  44     2.041361711489   120.29928447     2.60440664
 H     57  56  53     2.042530598097   119.33870830   180.25551283
 H     59  58  57     2.041580279857   119.57396095   179.89394734
 H     60  59  58     2.040495515912   120.01605416   180.14792204
 H     61  52  44     2.041981980794   119.86879180     0.83100552
 H     62  61  52     2.041848080314   119.36592496   180.55415072
 H     64  63  62     2.041942089229   119.53629008   179.83088143
 H     65  64  63     2.042763647273   119.79515159   180.83916502
 H     66  55  49     2.042266405457   119.88620429   357.61556181
 H     67  66  55     2.042212491760   119.50603695   179.80690431
 H     69  68  67     2.041456378313   119.63993454   180.50532225
 H     70  69  68     2.040074060606   119.53938573   180.85390525
 H     71  54  49     2.041215703672   119.41773891   357.45713812
 H     72  71  54     2.041889046755   119.60812164   179.76464498
 H     74  73  72     2.042258564026   119.54049491   180.11165637
 H     75  74  73     2.041128529625   119.53162588   180.27074561
 H     76  58  57     2.062965058137   109.83996269   150.22786895
 H     76  58  57     2.063207126592   109.90501248    31.18183821
 H     77  76  58     2.055409157498   110.34214866   300.29544849
 H     77  76  58     2.054851964632   110.48780247   180.11674378
 H     77  76  58     2.055652765428   110.36097252    59.93211172
 H     78  63  62     2.065912783062   109.39024730   133.65064179
 H     78  63  62     2.062880456910   109.69042096    15.27289742
 H     79  78  63     2.054153331755   110.59202484   298.98203672
 H     79  78  63     2.054851644517   110.32923906   178.87918710
 H     79  78  63     2.053018596924   110.57700491    58.46744879
 H     80  73  72     2.063219970191   109.85574794   150.56728723
 H     80  73  72     2.063068607700   109.83163747    31.58034491
 H     81  80  73     2.055404403188   110.35754838   300.11369814
 H     81  80  73     2.054744447471   110.46635282   179.95328935
 H     81  80  73     2.055396102644   110.35081637    59.79669416
 H     82  68  67     2.062898076292   109.85800076   151.46550877
 H     82  68  67     2.063297653869   109.84127134    32.43642715
 H     83  82  68     2.055538523162   110.32409740   300.04552273
 H     83  82  68     2.054932506360   110.49930608   179.88357186
 H     83  82  68     2.055734665046   110.35184910    59.72611887
 H     84  50  49     2.023338686128   128.92125308     1.10438061

---------------------
BASIS SET INFORMATION
---------------------
There are 5 groups of distinct atoms

 Group   1 Type C   : 7s4p1d contracted to 3s2p1d pattern {511/31/1}
 Group   2 Type F   : 7s4p1d contracted to 3s2p1d pattern {511/31/1}
 Group   3 Type O   : 7s4p1d contracted to 3s2p1d pattern {511/31/1}
 Group   4 Type N   : 7s4p1d contracted to 3s2p1d pattern {511/31/1}
 Group   5 Type H   : 4s1p contracted to 2s1p pattern {31/1}

Atom   0C    basis set group =>   1
Atom   1C    basis set group =>   1
Atom   2C    basis set group =>   1
Atom   3C    basis set group =>   1
Atom   4C    basis set group =>   1
Atom   5C    basis set group =>   1
Atom   6C    basis set group =>   1
Atom   7C    basis set group =>   1
Atom   8C    basis set group =>   1
Atom   9C    basis set group =>   1
Atom  10F    basis set group =>   2
Atom  11F    basis set group =>   2
Atom  12O    basis set group =>   3
Atom  13C    basis set group =>   1
Atom  14C    basis set group =>   1
Atom  15C    basis set group =>   1
Atom  16N    basis set group =>   4
Atom  17N    basis set group =>   4
Atom  18C    basis set group =>   1
Atom  19O    basis set group =>   3
Atom  20C    basis set group =>   1
Atom  21C    basis set group =>   1
Atom  22C    basis set group =>   1
Atom  23C    basis set group =>   1
Atom  24C    basis set group =>   1
Atom  25C    basis set group =>   1
Atom  26C    basis set group =>   1
Atom  27C    basis set group =>   1
Atom  28C    basis set group =>   1
Atom  29C    basis set group =>   1
Atom  30C    basis set group =>   1
Atom  31C    basis set group =>   1
Atom  32C    basis set group =>   1
Atom  33F    basis set group =>   2
Atom  34F    basis set group =>   2
Atom  35O    basis set group =>   3
Atom  36C    basis set group =>   1
Atom  37C    basis set group =>   1
Atom  38C    basis set group =>   1
Atom  39N    basis set group =>   4
Atom  40N    basis set group =>   4
Atom  41C    basis set group =>   1
Atom  42C    basis set group =>   1
Atom  43C    basis set group =>   1
Atom  44C    basis set group =>   1
Atom  45C    basis set group =>   1
Atom  46C    basis set group =>   1
Atom  47C    basis set group =>   1
Atom  48C    basis set group =>   1
Atom  49C    basis set group =>   1
Atom  50C    basis set group =>   1
Atom  51C    basis set group =>   1
Atom  52C    basis set group =>   1
Atom  53C    basis set group =>   1
Atom  54C    basis set group =>   1
Atom  55C    basis set group =>   1
Atom  56C    basis set group =>   1
Atom  57C    basis set group =>   1
Atom  58C    basis set group =>   1
Atom  59C    basis set group =>   1
Atom  60C    basis set group =>   1
Atom  61C    basis set group =>   1
Atom  62C    basis set group =>   1
Atom  63C    basis set group =>   1
Atom  64C    basis set group =>   1
Atom  65C    basis set group =>   1
Atom  66C    basis set group =>   1
Atom  67C    basis set group =>   1
Atom  68C    basis set group =>   1
Atom  69C    basis set group =>   1
Atom  70C    basis set group =>   1
Atom  71C    basis set group =>   1
Atom  72C    basis set group =>   1
Atom  73C    basis set group =>   1
Atom  74C    basis set group =>   1
Atom  75C    basis set group =>   1
Atom  76C    basis set group =>   1
Atom  77C    basis set group =>   1
Atom  78C    basis set group =>   1
Atom  79C    basis set group =>   1
Atom  80C    basis set group =>   1
Atom  81C    basis set group =>   1
Atom  82C    basis set group =>   1
Atom  83C    basis set group =>   1
Atom  84C    basis set group =>   1
Atom  85O    basis set group =>   3
Atom  86H    basis set group =>   5
Atom  87H    basis set group =>   5
Atom  88H    basis set group =>   5
Atom  89H    basis set group =>   5
Atom  90H    basis set group =>   5
Atom  91H    basis set group =>   5
Atom  92H    basis set group =>   5
Atom  93H    basis set group =>   5
Atom  94H    basis set group =>   5
Atom  95H    basis set group =>   5
Atom  96H    basis set group =>   5
Atom  97H    basis set group =>   5
Atom  98H    basis set group =>   5
Atom  99H    basis set group =>   5
Atom 100H    basis set group =>   5
Atom 101H    basis set group =>   5
Atom 102H    basis set group =>   5
Atom 103H    basis set group =>   5
Atom 104H    basis set group =>   5
Atom 105H    basis set group =>   5
Atom 106H    basis set group =>   5
Atom 107H    basis set group =>   5
Atom 108H    basis set group =>   5
Atom 109H    basis set group =>   5
Atom 110H    basis set group =>   5
Atom 111H    basis set group =>   5
Atom 112H    basis set group =>   5
Atom 113H    basis set group =>   5
Atom 114H    basis set group =>   5
Atom 115H    basis set group =>   5
Atom 116H    basis set group =>   5
Atom 117H    basis set group =>   5
Atom 118H    basis set group =>   5
Atom 119H    basis set group =>   5
Atom 120H    basis set group =>   5
Atom 121H    basis set group =>   5
Atom 122H    basis set group =>   5
Atom 123H    basis set group =>   5
Atom 124H    basis set group =>   5
Atom 125H    basis set group =>   5
Atom 126H    basis set group =>   5
Atom 127H    basis set group =>   5
Atom 128H    basis set group =>   5
Atom 129H    basis set group =>   5
Atom 130H    basis set group =>   5
Atom 131H    basis set group =>   5
------------------------------------------------------------------------------
                           ORCA GTO INTEGRAL CALCULATION
------------------------------------------------------------------------------

                         BASIS SET STATISTICS AND STARTUP INFO

 # of primitive gaussian shells          ... 1262
 # of primitive gaussian functions       ... 2386
 # of contracted shells                  ...  654
 # of contracted basis functions         ... 1434
 Highest angular momentum                ...    2
 Maximum contraction depth               ...    5
 Integral package used                   ... LIBINT
 Integral threshhold            Thresh   ...  2.500e-11
 Primitive cut-off              TCut     ...  2.500e-12


------------------------------ INTEGRAL EVALUATION ----------------------------


 * One electron integrals 
 Pre-screening matrix                    ... done
 Shell pair data                         ... done (   0.028 sec)

-------------------------------------------------------------------------------
                                 ORCA SCF
-------------------------------------------------------------------------------

------------
SCF SETTINGS
------------
Hamiltonian:
 Ab initio Hamiltonian  Method          .... Hartree-Fock(GTOs)


General Settings:
 Integral files         IntName         .... IDF-4F
 Hartree-Fock type      HFTyp           .... RHF
 Total Charge           Charge          ....    0
 Multiplicity           Mult            ....    1
 Number of Electrons    NEL             ....  586
 Basis Dimension        Dim             .... 1434
 Nuclear Repulsion      ENuc            ....  13671.3980913644 Eh

Convergence Acceleration:
 DIIS                   CNVDIIS         .... on
   Start iteration      DIISMaxIt       ....    12
   Startup error        DIISStart       ....  0.200000
   # of expansion vecs  DIISMaxEq       ....     5
   Bias factor          DIISBfac        ....   1.050
   Max. coefficient     DIISMaxC        ....  10.000
 Newton-Raphson         CNVNR           .... off
 SOSCF                  CNVSOSCF        .... on
   Start iteration      SOSCFMaxIt      ....   150
   Startup grad/error   SOSCFStart      ....  0.003300
 Level Shifting         CNVShift        .... on
   Level shift para.    LevelShift      ....    0.2500
   Turn off err/grad.   ShiftErr        ....    0.0010
 Zerner damping         CNVZerner       .... off
 Static damping         CNVDamp         .... on
   Fraction old density DampFac         ....    0.7000
   Max. Damping (<1)    DampMax         ....    0.9800
   Min. Damping (>=0)   DampMin         ....    0.0000
   Turn off err/grad.   DampErr         ....    0.1000
 Fernandez-Rico         CNVRico         .... off

SCF Procedure:
 Maximum # iterations   MaxIter         ....   125
 SCF integral mode      SCFMode         .... Direct
   Integral package                     .... LIBINT
 Reset frequency        DirectResetFreq ....    20
 Integral Threshold     Thresh          ....  2.500e-11 Eh
 Primitive CutOff       TCut            ....  2.500e-12 Eh

Convergence Tolerance:
 Convergence Check Mode ConvCheckMode   .... Total+1el-Energy
 Convergence forced     ConvForced      .... 1
 Energy Change          TolE            ....  1.000e-08 Eh
 1-El. energy change                    ....  1.000e-05 Eh
 Orbital Gradient       TolG            ....  1.000e-05
 Orbital Rotation angle TolX            ....  1.000e-05
 DIIS Error             TolErr          ....  5.000e-07


Diagonalization of the overlap matrix:
Smallest eigenvalue                        ... 1.873e-04
Time for diagonalization                   ...    0.691 sec
Threshold for overlap eigenvalues          ... 1.000e-08
Number of eigenvalues below threshold      ... 0
Time for construction of square roots      ...    0.249 sec
Total time needed                          ...    0.948 sec

-------------------
DFT GRID GENERATION
-------------------

General Integration Accuracy     IntAcc      ...  4.340
Radial Grid Type                 RadialGrid  ... Gauss-Chebyshev
Angular Grid (max. acc.)         AngularGrid ... Lebedev-110
Angular grid pruning method      GridPruning ... 3 (G Style)
Weight generation scheme         WeightScheme... Becke
Basis function cutoff            BFCut       ...    1.0000e-11
Integration weight cutoff        WCut        ...    1.0000e-14
Grids for H and He will be reduced by one unit

# of grid points (after initial pruning)     ... 179700 (   0.4 sec)
# of grid points (after weights+screening)   ... 154991 (  10.8 sec)
nearest neighbour list constructed           ...    0.0 sec
Grid point re-assignment to atoms done       ...    0.0 sec
Grid point division into batches done        ...    0.1 sec
Reduced shell lists constructed in    4.5 sec

Total number of grid points                  ...   154991
Total number of batches                      ...     2493
Average number of points per batch           ...       62
Average number of grid points per atom       ...     1174
Average number of shells per batch           ...   125.65 (19.21%)
Average number of basis functions per batch  ...   254.48 (17.75%)
Average number of large shells per batch     ...    70.38 (56.02%)
Average number of large basis fcns per batch ...   146.10 (57.41%)
Maximum spatial batch extension              ...  25.60, 23.55, 21.62 au
Average spatial batch extension              ...   3.12,  3.33,  3.18 au

Time for grid setup =   15.715 sec

------------------------------
INITIAL GUESS: MODEL POTENTIAL
------------------------------
Loading Hartree-Fock densities                     ... done
Calculating cut-offs                               ... done
Setting up the integral package                    ... done
Initializing the effective Hamiltonian             ... done
Starting the Coulomb interaction                   ... done (  15.7 sec)
Reading the grid                                   ... done
Mapping shells                                     ... done
Starting the XC term evaluation                    ... done (   3.2 sec)
Transforming the Hamiltonian                       ... done (   0.2 sec)
Diagonalizing the Hamiltonian                      ... done (   0.7 sec)
Back transforming the eigenvectors                 ... done (   0.1 sec)
Now organizing SCF variables                       ... done
                      ------------------
                      INITIAL GUESS DONE (  36.0 sec)
                      ------------------
--------------
SCF ITERATIONS
--------------
ITER       Energy         Delta-E        Max-DP      RMS-DP      [F,P]     Damp
               ***  Starting incremental Fock matrix formation  ***
  0  -3738.5060285954   0.000000000000 0.33328580  0.00140271  0.2382467 0.7000
  1  -3739.3574355022  -0.851406906804 0.25723297  0.00108916  0.1433694 0.7000
                               ***Turning on DIIS***
  2  -3739.8891502380  -0.531714735793 0.61651658  0.00256844  0.0819952 0.0000
  3  -3736.8842743390   3.004875899023 0.04709095  0.00041405  0.0474646 0.0000
  4  -3741.3945767534  -4.510302414459 0.02693446  0.00018056  0.0161921 0.0000
  5  -3741.2717722623   0.122804491144 0.01209951  0.00008583  0.0101021 0.0000
  6  -3740.9859159827   0.285856279537 0.00530033  0.00004674  0.0027168 0.0000
                      *** Initiating the SOSCF procedure ***
                           *** Shutting down DIIS ***
                      *** Re-Reading the Fockian *** 
                      *** Removing any level shift *** 
ITER      Energy       Delta-E        Grad      Rot      Max-DP    RMS-DP
  7  -3741.08618032  -0.1002643330  0.003184  0.003184  0.002421  0.000026
               *** Restarting incremental Fock matrix formation ***
  8  -3741.04947642   0.0367038955  0.001761  0.006858  0.001646  0.000019
  9  -3741.04963212  -0.0001557003  0.000784  0.007515  0.002067  0.000024
 10  -3741.04969823  -0.0000661089  0.000237  0.000539  0.000766  0.000005
 11  -3741.04970274  -0.0000045144  0.000131  0.000494  0.000412  0.000002
 12  -3741.04970480  -0.0000020587  0.000039  0.000219  0.000114  0.000001
 13  -3741.04970509  -0.0000002873  0.000034  0.000263  0.000100  0.000001
 14  -3741.04970523  -0.0000001417  0.000019  0.000217  0.000063  0.000001
 15  -3741.04970528  -0.0000000502  0.000008  0.000096  0.000028  0.000000
 16  -3741.04970529  -0.0000000035  0.000003  0.000030  0.000013  0.000000
                  ***Gradient check signals convergence***
              ***Rediagonalizing the Fockian in SOSCF/NRSCF***

               *****************************************************
               *                     SUCCESS                       *
               *           SCF CONVERGED AFTER  17 CYCLES          *
               *****************************************************


----------------
TOTAL SCF ENERGY
----------------

Total Energy       :        -3741.04970521 Eh         -101799.13785 eV

Components:
Nuclear Repulsion  :        13671.39809136 Eh          372017.65508 eV
Electronic Energy  :       -17412.44779658 Eh         -473816.79293 eV
One Electron Energy:       -32346.83859793 Eh         -880202.22687 eV
Two Electron Energy:        14934.39080135 Eh          406385.43394 eV

Virial components:
Potential Energy   :        -7467.93760054 Eh         -203212.91326 eV
Kinetic Energy     :         3726.88789533 Eh          101413.77541 eV
Virial Ratio       :            2.00379990


---------------
SCF CONVERGENCE
---------------

  Last Energy change         ...    7.2898e-08  Tolerance :   1.0000e-08
  Last MAX-Density change    ...    4.4373e-06  Tolerance :   1.0000e-07
  Last RMS-Density change    ...    5.4623e-08  Tolerance :   5.0000e-09
  Last Orbital Gradient      ...    1.8783e-06  Tolerance :   1.0000e-05
  Last Orbital Rotation      ...    6.2805e-06  Tolerance :   1.0000e-05

             **** THE GBW FILE WAS UPDATED (IDF-4F.gbw) ****
             **** DENSITY FILE WAS UPDATED (IDF-4F.scfp) ****
             **** ENERGY FILE WAS UPDATED (IDF-4F.en.tmp) ****
             **** THE GBW FILE WAS UPDATED (IDF-4F.gbw) ****
             **** DENSITY FILE WAS UPDATED (IDF-4F.scfp) ****
----------------
ORBITAL ENERGIES
----------------

  NO   OCC          E(Eh)            E(eV) 
   0   2.0000     -26.336992      -716.6660 
   1   2.0000     -26.336845      -716.6620 
   2   2.0000     -26.333287      -716.5652 
   3   2.0000     -26.330842      -716.4986 
   4   2.0000     -20.668103      -562.4077 
   5   2.0000     -20.662794      -562.2632 
   6   2.0000     -20.569842      -559.7339 
   7   2.0000     -20.569471      -559.7238 
   8   2.0000     -15.594175      -424.3391 
   9   2.0000     -15.591582      -424.2685 
  10   2.0000     -15.588808      -424.1930 
  11   2.0000     -15.585075      -424.0914 
  12   2.0000     -11.380702      -309.6846 
  13   2.0000     -11.379239      -309.6448 
  14   2.0000     -11.375586      -309.5454 
  15   2.0000     -11.374045      -309.5035 
  16   2.0000     -11.368142      -309.3429 
  17   2.0000     -11.367856      -309.3351 
  18   2.0000     -11.344320      -308.6946 
  19   2.0000     -11.342654      -308.6493 
  20   2.0000     -11.341601      -308.6207 
  21   2.0000     -11.340245      -308.5838 
  22   2.0000     -11.334000      -308.4138 
  23   2.0000     -11.325419      -308.1803 
  24   2.0000     -11.323987      -308.1413 
  25   2.0000     -11.322546      -308.1021 
  26   2.0000     -11.317127      -307.9547 
  27   2.0000     -11.316637      -307.9413 
  28   2.0000     -11.306751      -307.6723 
  29   2.0000     -11.305129      -307.6282 
  30   2.0000     -11.304679      -307.6160 
  31   2.0000     -11.300624      -307.5056 
  32   2.0000     -11.299215      -307.4673 
  33   2.0000     -11.298124      -307.4376 
  34   2.0000     -11.297960      -307.4331 
  35   2.0000     -11.296486      -307.3930 
  36   2.0000     -11.296070      -307.3817 
  37   2.0000     -11.292914      -307.2958 
  38   2.0000     -11.292262      -307.2781 
  39   2.0000     -11.291638      -307.2611 
  40   2.0000     -11.287829      -307.1574 
  41   2.0000     -11.287541      -307.1496 
  42   2.0000     -11.286300      -307.1158 
  43   2.0000     -11.286220      -307.1137 
  44   2.0000     -11.285864      -307.1040 
  45   2.0000     -11.283203      -307.0316 
  46   2.0000     -11.280740      -306.9645 
  47   2.0000     -11.280256      -306.9514 
  48   2.0000     -11.278781      -306.9112 
  49   2.0000     -11.275662      -306.8264 
  50   2.0000     -11.274922      -306.8062 
  51   2.0000     -11.274505      -306.7949 
  52   2.0000     -11.264909      -306.5337 
  53   2.0000     -11.260065      -306.4019 
  54   2.0000     -11.258268      -306.3530 
  55   2.0000     -11.256494      -306.3048 
  56   2.0000     -11.249831      -306.1235 
  57   2.0000     -11.249208      -306.1065 
  58   2.0000     -11.248343      -306.0830 
  59   2.0000     -11.247783      -306.0677 
  60   2.0000     -11.247649      -306.0641 
  61   2.0000     -11.245977      -306.0186 
  62   2.0000     -11.245698      -306.0110 
  63   2.0000     -11.244984      -305.9916 
  64   2.0000     -11.244468      -305.9775 
  65   2.0000     -11.243937      -305.9631 
  66   2.0000     -11.242042      -305.9115 
  67   2.0000     -11.241840      -305.9060 
  68   2.0000     -11.240937      -305.8814 
  69   2.0000     -11.240818      -305.8782 
  70   2.0000     -11.240415      -305.8673 
  71   2.0000     -11.240214      -305.8618 
  72   2.0000     -11.239873      -305.8525 
  73   2.0000     -11.239791      -305.8503 
  74   2.0000     -11.238087      -305.8039 
  75   2.0000     -11.236113      -305.7502 
  76   2.0000     -11.235938      -305.7454 
  77   2.0000     -11.235218      -305.7258 
  78   2.0000     -11.235020      -305.7204 
  79   2.0000     -11.233277      -305.6730 
  80   2.0000     -11.232452      -305.6506 
  81   2.0000     -11.229517      -305.5707 
  82   2.0000     -11.228137      -305.5331 
  83   2.0000     -11.226834      -305.4977 
  84   2.0000     -11.224065      -305.4223 
  85   2.0000     -11.209572      -305.0280 
  86   2.0000      -1.647179       -44.8220 
  87   2.0000      -1.642289       -44.6889 
  88   2.0000      -1.632288       -44.4168 
  89   2.0000      -1.627325       -44.2818 
  90   2.0000      -1.505323       -40.9619 
  91   2.0000      -1.498153       -40.7668 
  92   2.0000      -1.402809       -38.1724 
  93   2.0000      -1.402130       -38.1539 
  94   2.0000      -1.256154       -34.1817 
  95   2.0000      -1.250349       -34.0237 
  96   2.0000      -1.237429       -33.6721 
  97   2.0000      -1.234592       -33.5950 
  98   2.0000      -1.230547       -33.4849 
  99   2.0000      -1.229596       -33.4590 
 100   2.0000      -1.223193       -33.2848 
 101   2.0000      -1.212579       -32.9960 
 102   2.0000      -1.177139       -32.0316 
 103   2.0000      -1.173301       -31.9271 
 104   2.0000      -1.171064       -31.8663 
 105   2.0000      -1.162748       -31.6400 
 106   2.0000      -1.159253       -31.5449 
 107   2.0000      -1.157219       -31.4895 
 108   2.0000      -1.137696       -30.9583 
 109   2.0000      -1.125589       -30.6288 
 110   2.0000      -1.114032       -30.3143 
 111   2.0000      -1.101733       -29.9797 
 112   2.0000      -1.097799       -29.8726 
 113   2.0000      -1.096208       -29.8293 
 114   2.0000      -1.090344       -29.6698 
 115   2.0000      -1.076731       -29.2993 
 116   2.0000      -1.074878       -29.2489 
 117   2.0000      -1.069840       -29.1118 
 118   2.0000      -1.066710       -29.0267 
 119   2.0000      -1.064104       -28.9558 
 120   2.0000      -1.056627       -28.7523 
 121   2.0000      -1.041014       -28.3274 
 122   2.0000      -1.025340       -27.9009 
 123   2.0000      -1.022674       -27.8284 
 124   2.0000      -1.020311       -27.7641 
 125   2.0000      -1.014215       -27.5982 
 126   2.0000      -1.012739       -27.5580 
 127   2.0000      -1.008247       -27.4358 
 128   2.0000      -1.005618       -27.3643 
 129   2.0000      -0.982430       -26.7333 
 130   2.0000      -0.979383       -26.6504 
 131   2.0000      -0.979175       -26.6447 
 132   2.0000      -0.951442       -25.8901 
 133   2.0000      -0.948195       -25.8017 
 134   2.0000      -0.942043       -25.6343 
 135   2.0000      -0.939034       -25.5524 
 136   2.0000      -0.931359       -25.3436 
 137   2.0000      -0.914295       -24.8792 
 138   2.0000      -0.888285       -24.1715 
 139   2.0000      -0.878609       -23.9082 
 140   2.0000      -0.868824       -23.6419 
 141   2.0000      -0.866778       -23.5862 
 142   2.0000      -0.863810       -23.5055 
 143   2.0000      -0.861654       -23.4468 
 144   2.0000      -0.857020       -23.3207 
 145   2.0000      -0.852852       -23.2073 
 146   2.0000      -0.846031       -23.0217 
 147   2.0000      -0.841770       -22.9057 
 148   2.0000      -0.837534       -22.7905 
 149   2.0000      -0.835615       -22.7382 
 150   2.0000      -0.832747       -22.6602 
 151   2.0000      -0.831011       -22.6130 
 152   2.0000      -0.822813       -22.3899 
 153   2.0000      -0.821534       -22.3551 
 154   2.0000      -0.812425       -22.1072 
 155   2.0000      -0.804465       -21.8906 
 156   2.0000      -0.795552       -21.6481 
 157   2.0000      -0.793483       -21.5918 
 158   2.0000      -0.792699       -21.5704 
 159   2.0000      -0.791639       -21.5416 
 160   2.0000      -0.790329       -21.5059 
 161   2.0000      -0.788244       -21.4492 
 162   2.0000      -0.785822       -21.3833 
 163   2.0000      -0.781219       -21.2581 
 164   2.0000      -0.773125       -21.0378 
 165   2.0000      -0.765679       -20.8352 
 166   2.0000      -0.755520       -20.5587 
 167   2.0000      -0.750557       -20.4237 
 168   2.0000      -0.744284       -20.2530 
 169   2.0000      -0.740530       -20.1509 
 170   2.0000      -0.739439       -20.1211 
 171   2.0000      -0.737741       -20.0750 
 172   2.0000      -0.732649       -19.9364 
 173   2.0000      -0.722089       -19.6490 
 174   2.0000      -0.720759       -19.6128 
 175   2.0000      -0.716223       -19.4894 
 176   2.0000      -0.715072       -19.4581 
 177   2.0000      -0.711354       -19.3569 
 178   2.0000      -0.710968       -19.3464 
 179   2.0000      -0.706789       -19.2327 
 180   2.0000      -0.699200       -19.0262 
 181   2.0000      -0.695548       -18.9268 
 182   2.0000      -0.694229       -18.8909 
 183   2.0000      -0.685909       -18.6645 
 184   2.0000      -0.680802       -18.5256 
 185   2.0000      -0.676420       -18.4063 
 186   2.0000      -0.674279       -18.3481 
 187   2.0000      -0.670322       -18.2404 
 188   2.0000      -0.669778       -18.2256 
 189   2.0000      -0.665569       -18.1110 
 190   2.0000      -0.664306       -18.0767 
 191   2.0000      -0.663110       -18.0441 
 192   2.0000      -0.662124       -18.0173 
 193   2.0000      -0.659406       -17.9434 
 194   2.0000      -0.654749       -17.8166 
 195   2.0000      -0.647014       -17.6062 
 196   2.0000      -0.645509       -17.5652 
 197   2.0000      -0.641507       -17.4563 
 198   2.0000      -0.639223       -17.3941 
 199   2.0000      -0.638991       -17.3878 
 200   2.0000      -0.636322       -17.3152 
 201   2.0000      -0.632099       -17.2003 
 202   2.0000      -0.629431       -17.1277 
 203   2.0000      -0.628119       -17.0920 
 204   2.0000      -0.623323       -16.9615 
 205   2.0000      -0.622608       -16.9420 
 206   2.0000      -0.621467       -16.9110 
 207   2.0000      -0.619543       -16.8586 
 208   2.0000      -0.615152       -16.7391 
 209   2.0000      -0.614355       -16.7174 
 210   2.0000      -0.611143       -16.6301 
 211   2.0000      -0.607972       -16.5438 
 212   2.0000      -0.606921       -16.5152 
 213   2.0000      -0.605522       -16.4771 
 214   2.0000      -0.604662       -16.4537 
 215   2.0000      -0.602455       -16.3936 
 216   2.0000      -0.601979       -16.3807 
 217   2.0000      -0.598435       -16.2842 
 218   2.0000      -0.598173       -16.2771 
 219   2.0000      -0.595968       -16.2171 
 220   2.0000      -0.591993       -16.1089 
 221   2.0000      -0.590994       -16.0818 
 222   2.0000      -0.586293       -15.9538 
 223   2.0000      -0.583514       -15.8782 
 224   2.0000      -0.582535       -15.8516 
 225   2.0000      -0.579960       -15.7815 
 226   2.0000      -0.576136       -15.6775 
 227   2.0000      -0.575231       -15.6528 
 228   2.0000      -0.574694       -15.6382 
 229   2.0000      -0.574323       -15.6281 
 230   2.0000      -0.570416       -15.5218 
 231   2.0000      -0.568779       -15.4773 
 232   2.0000      -0.567221       -15.4349 
 233   2.0000      -0.565640       -15.3918 
 234   2.0000      -0.562173       -15.2975 
 235   2.0000      -0.560468       -15.2511 
 236   2.0000      -0.555861       -15.1257 
 237   2.0000      -0.548158       -14.9161 
 238   2.0000      -0.543255       -14.7827 
 239   2.0000      -0.540827       -14.7167 
 240   2.0000      -0.538644       -14.6573 
 241   2.0000      -0.536441       -14.5973 
 242   2.0000      -0.534865       -14.5544 
 243   2.0000      -0.531653       -14.4670 
 244   2.0000      -0.526946       -14.3389 
 245   2.0000      -0.521986       -14.2040 
 246   2.0000      -0.520688       -14.1686 
 247   2.0000      -0.513806       -13.9814 
 248   2.0000      -0.512349       -13.9417 
 249   2.0000      -0.510485       -13.8910 
 250   2.0000      -0.507676       -13.8146 
 251   2.0000      -0.504524       -13.7288 
 252   2.0000      -0.501796       -13.6546 
 253   2.0000      -0.501466       -13.6456 
 254   2.0000      -0.499452       -13.5908 
 255   2.0000      -0.495992       -13.4966 
 256   2.0000      -0.495698       -13.4886 
 257   2.0000      -0.494621       -13.4593 
 258   2.0000      -0.492962       -13.4142 
 259   2.0000      -0.491621       -13.3777 
 260   2.0000      -0.491129       -13.3643 
 261   2.0000      -0.487928       -13.2772 
 262   2.0000      -0.486398       -13.2356 
 263   2.0000      -0.485786       -13.2189 
 264   2.0000      -0.485313       -13.2060 
 265   2.0000      -0.483642       -13.1606 
 266   2.0000      -0.480697       -13.0804 
 267   2.0000      -0.477678       -12.9983 
 268   2.0000      -0.476261       -12.9597 
 269   2.0000      -0.474971       -12.9246 
 270   2.0000      -0.473697       -12.8899 
 271   2.0000      -0.456193       -12.4136 
 272   2.0000      -0.448327       -12.1996 
 273   2.0000      -0.445754       -12.1296 
 274   2.0000      -0.436942       -11.8898 
 275   2.0000      -0.436024       -11.8648 
 276   2.0000      -0.411202       -11.1894 
 277   2.0000      -0.396395       -10.7864 
 278   2.0000      -0.391498       -10.6532 
 279   2.0000      -0.380728       -10.3601 
 280   2.0000      -0.375949       -10.2301 
 281   2.0000      -0.358966        -9.7680 
 282   2.0000      -0.357212        -9.7202 
 283   2.0000      -0.355528        -9.6744 
 284   2.0000      -0.353279        -9.6132 
 285   2.0000      -0.345995        -9.4150 
 286   2.0000      -0.345040        -9.3890 
 287   2.0000      -0.339080        -9.2268 
 288   2.0000      -0.335756        -9.1364 
 289   2.0000      -0.324130        -8.8200 
 290   2.0000      -0.320480        -8.7207 
 291   2.0000      -0.313246        -8.5239 
 292   2.0000      -0.270128        -7.3505 
 293   0.0000      -0.034518        -0.9393 
 294   0.0000      -0.011093        -0.3019 
 295   0.0000       0.014416         0.3923 
 296   0.0000       0.022119         0.6019 
 297   0.0000       0.056149         1.5279 
 298   0.0000       0.084662         2.3038 
 299   0.0000       0.087108         2.3703 
 300   0.0000       0.102405         2.7866 
 301   0.0000       0.106331         2.8934 
 302   0.0000       0.109011         2.9663 
 303   0.0000       0.117737         3.2038 
 304   0.0000       0.122155         3.3240 
 305   0.0000       0.127188         3.4610 
 306   0.0000       0.132324         3.6007 
 307   0.0000       0.133162         3.6235 
 308   0.0000       0.139751         3.8028 
 309   0.0000       0.142831         3.8866 
 310   0.0000       0.146411         3.9841 
 311   0.0000       0.149504         4.0682 
 312   0.0000       0.156609         4.2615 
 313   0.0000       0.158976         4.3260 
 314   0.0000       0.168786         4.5929 
 315   0.0000       0.171491         4.6665 
 316   0.0000       0.173980         4.7342 
 317   0.0000       0.177698         4.8354 
 318   0.0000       0.178557         4.8588 
 319   0.0000       0.179728         4.8906 
 320   0.0000       0.189627         5.1600 
 321   0.0000       0.193681         5.2703 
 322   0.0000       0.196742         5.3536 
 323   0.0000       0.197696         5.3796 
 324   0.0000       0.199375         5.4253 
 325   0.0000       0.202405         5.5077 
 326   0.0000       0.202554         5.5118 
 327   0.0000       0.205674         5.5967 
 328   0.0000       0.206237         5.6120 
 329   0.0000       0.207455         5.6451 
 330   0.0000       0.213526         5.8103 
 331   0.0000       0.214707         5.8425 
 332   0.0000       0.216944         5.9034 
 333   0.0000       0.218729         5.9519 
 334   0.0000       0.219818         5.9815 
 335   0.0000       0.221367         6.0237 
 336   0.0000       0.222356         6.0506 
 337   0.0000       0.223702         6.0872 
 338   0.0000       0.224615         6.1121 
 339   0.0000       0.227151         6.1811 
 340   0.0000       0.229774         6.2525 
 341   0.0000       0.235207         6.4003 
 342   0.0000       0.236215         6.4277 
 343   0.0000       0.238981         6.5030 
 344   0.0000       0.241354         6.5676 
 345   0.0000       0.244544         6.6544 
 346   0.0000       0.244956         6.6656 
 347   0.0000       0.246634         6.7113 
 348   0.0000       0.251184         6.8351 
 349   0.0000       0.252177         6.8621 
 350   0.0000       0.256350         6.9756 
 351   0.0000       0.258137         7.0243 
 352   0.0000       0.265256         7.2180 
 353   0.0000       0.267751         7.2859 
 354   0.0000       0.272968         7.4278 
 355   0.0000       0.273795         7.4503 
 356   0.0000       0.274120         7.4592 
 357   0.0000       0.277094         7.5401 
 358   0.0000       0.278019         7.5653 
 359   0.0000       0.279312         7.6005 
 360   0.0000       0.279730         7.6118 
 361   0.0000       0.283481         7.7139 
 362   0.0000       0.285032         7.7561 
 363   0.0000       0.287520         7.8238 
 364   0.0000       0.288406         7.8479 
 365   0.0000       0.288660         7.8548 
 366   0.0000       0.290480         7.9044 
 367   0.0000       0.293521         7.9871 
 368   0.0000       0.294364         8.0100 
 369   0.0000       0.297699         8.1008 
 370   0.0000       0.300355         8.1731 
 371   0.0000       0.310607         8.4520 
 372   0.0000       0.312336         8.4991 
 373   0.0000       0.316288         8.6066 
 374   0.0000       0.318932         8.6786 
 375   0.0000       0.320449         8.7199 
 376   0.0000       0.324449         8.8287 
 377   0.0000       0.327391         8.9088 
 378   0.0000       0.331056         9.0085 
 379   0.0000       0.333609         9.0780 
 380   0.0000       0.336321         9.1518 
 381   0.0000       0.339459         9.2372 
 382   0.0000       0.341946         9.3048 
[...]
   Maximum residual norm  :     0.000000822542

                       ****Iteration   13****
   Time for densities:     2.109
   Using LibInt in JK Direct
   Time for J+K (Direct):  2564.167
   Time for Sigma-Completion:    25.735
   Size of expansion space: 21
   Lowest Energy          :     0.096030791711
   Maximum Energy change  :     0.000003450926 (vector 2)
   Maximum residual norm  :     0.000000781135

                       ****Iteration   14****
   Time for densities:     2.106
   Using LibInt in JK Direct
   Time for J+K (Direct):  2587.097
   Time for Sigma-Completion:    25.795
   Size of expansion space: 24
   Lowest Energy          :     0.096030791708
   Maximum Energy change  :     0.000001886339 (vector 2)
   Maximum residual norm  :     0.000000263434

                       ****Iteration   15****
   Time for densities:     2.092
   Using LibInt in JK Direct
   Time for J+K (Direct):  2550.675
   Time for Sigma-Completion:    25.278
   Size of expansion space: 27
   Lowest Energy          :     0.096030791707
   Maximum Energy change  :     0.000001122912 (vector 2)
   Maximum residual norm  :     0.000000139364

      *** CONVERGENCE OF RESIDUAL NORM REACHED ***

Storing the converged CI vectors               ... IDF-4F.cis1

                 *** DAVIDSON DONE ***

Total time for solving the CIS problem: 48820.492sec

-----------------------------
CIS-EXCITED STATES (SINGLETS)
-----------------------------

the weight of the individual excitations are printed if larger than 1.0e-02

STATE  1:  E=   0.096031 au      2.613 eV    21076.3 cm**-1
   291a -> 293a  :     0.026549 (c=  0.16293797)
   291a -> 294a  :     0.123109 (c= -0.35086830)
   291a -> 296a  :     0.011549 (c= -0.10746501)
   292a -> 293a  :     0.723258 (c= -0.85044552)
   292a -> 295a  :     0.010947 (c= -0.10462867)
   292a -> 297a  :     0.012031 (c= -0.10968402)

STATE  2:  E=   0.122762 au      3.341 eV    26943.2 cm**-1
   279a -> 294a  :     0.013955 (c= -0.11813162)
   284a -> 294a  :     0.010018 (c= -0.10009090)
   287a -> 293a  :     0.013565 (c=  0.11646780)
   288a -> 294a  :     0.010975 (c=  0.10476338)
   291a -> 293a  :     0.333072 (c=  0.57712359)
   292a -> 294a  :     0.452976 (c=  0.67303502)
   292a -> 296a  :     0.023793 (c=  0.15425095)
   292a -> 298a  :     0.013855 (c= -0.11770685)

STATE  3:  E=   0.162295 au      4.416 eV    35619.7 cm**-1
   279a -> 293a  :     0.022530 (c=  0.15009943)
   279a -> 295a  :     0.031957 (c= -0.17876550)
   284a -> 293a  :     0.010337 (c=  0.10167091)
   287a -> 294a  :     0.010515 (c= -0.10254317)
   288a -> 293a  :     0.013553 (c= -0.11641587)
   291a -> 294a  :     0.139161 (c= -0.37304272)
   291a -> 296a  :     0.089813 (c=  0.29968734)
   292a -> 295a  :     0.454524 (c=  0.67418371)
   292a -> 296a  :     0.015752 (c=  0.12550754)
   292a -> 297a  :     0.041067 (c=  0.20264919)


----------------------
CIS-EXCITATION SPECTRA
----------------------

Center of mass = (  9.5598,  0.6195, -3.6976)
Calculating the Dipole integrals                  ... done
Transforming integrals                            ... done
Calculating the Linear Momentum integrals         ... done
Transforming integrals                            ... done
Calculating angular momentum integrals            ... done
Transforming integrals                            ... done

-----------------------------------------------------------------------------
         ABSORPTION SPECTRUM VIA TRANSITION ELECTRIC DIPOLE MOMENTS
-----------------------------------------------------------------------------
State   Energy    Wavelength  fosc         T2        TX        TY        TZ  
        (cm-1)      (nm)                 (au**2)    (au)      (au)      (au) 
-----------------------------------------------------------------------------
   1   21076.3    474.5   1.575587406  24.61066   3.87434   3.08491   0.28889
   2   26943.2    371.2   0.709415875   8.66816  -2.91451  -0.08577   0.40799
   3   35619.7    280.7   0.272859399   2.52188  -0.95401   0.02124   1.26937

-----------------------------------------------------------------------------
         ABSORPTION SPECTRUM VIA TRANSITION VELOCITY DIPOLE MOMENTS
-----------------------------------------------------------------------------
State   Energy    Wavelength   fosc        P2         PX        PY        PZ  
        (cm-1)      (nm)                 (au**2)     (au)      (au)      (au) 
-----------------------------------------------------------------------------
   1   21076.3    474.5   0.720310929   0.10376  -0.26782  -0.17721  -0.02506
   2   26943.2    371.2   0.345466376   0.06362   0.24329   0.05303  -0.04013
   3   35619.7    280.7   0.025327956   0.00617  -0.03988  -0.00159  -0.06763

-------------------------------------------------------------------
                             CD SPECTRUM
-------------------------------------------------------------------
State  Energy     Wavelength     R         MX        MY        MZ   
       (cm-1)       (nm)     (1e40*cgs)   (au)      (au)      (au)  
-------------------------------------------------------------------
   1   21076.3    474.5    161.85037   0.63834  -0.79190   1.08375
   2   26943.2    371.2    -651.25413   0.57890  -0.85733   0.56939
   3   35619.7    280.7    105.71438  -0.25387   0.49039  -0.02236

Total run time:    48960.059 sec

           *** ORCA-CIS/TD-DFT FINISHED WITHOUT ERROR ***

-----------------------
CIS/TD-DFT TOTAL ENERGY
-----------------------

    E(SCF)  =  -3741.049705212 Eh
    DE(CIS) =      0.096030792 Eh (Root  1)
    ----------------------------- ---------
    E(tot)  =  -3740.953674420 Eh


-------------------------   --------------------
FINAL SINGLE POINT ENERGY     -3740.953674420419
-------------------------   --------------------

------------------------------------------------------------------------------
                         ORCA SCF GRADIENT CALCULATION
------------------------------------------------------------------------------


------------
CIS GRADIENT
------------

Reference wavefunction             ... RHF
State of interest                  ... 1
Basis dimension                    ... 1434
DFT-XC contribution needed         ... NO
RI-approximation                   ... OFF
CIS-vectors being read from        ... IDF-4F.cis

 => Number of Vectors found: 3
 => Orbital Window: 86...292 -> 293...1433

Reading the CIS file                     ... done
Norm of the CI vector                    ... 1.000000000
Making the CIS (pseudo)densities         ... done
Making operators G(D) and Q(T)           ... done
Transforming the Fock operators          ... done
Making the frozen-core relaxed density   ... done
Constructing the G(H) operator           ... done
Transforming the G(H) operator           ... done
Calculating the CIS Lagrangian           ... done
Solving the Z-vector equations           ... done
Finalizing the relaxed density           ... done
Storing the relaxed density              ... done
Constructing the G(Z) operator           ... done
Transforming the G(Z) operator           ... done
Making the W-matrix                      ... done
Finalizing the W-matrix                  ... done
Transforming the W-matrix                ... done
Nuclear repulsion gradient               ... done
One-Electron gradient                    ... done
Prescreening matrices                    ... done
Two-Electron gradient (4-center)         ... done
                 ---------------------------
                 EXCITED STATE GRADIENT DONE
                 ---------------------------


------------------
CARTESIAN GRADIENT
------------------

   1   C   :   -0.005751258   -0.001297447    0.006003075
   2   C   :   -0.001688370   -0.000522576   -0.001031008
   3   C   :   -0.008882316    0.005302523    0.018782750
   4   C   :    0.006191029   -0.005657498   -0.020698203
   5   C   :    0.009981603    0.004379184    0.004826775
   6   C   :   -0.020864142   -0.012577259   -0.024418256
   7   C   :    0.004396122   -0.000049739   -0.003389480
   8   C   :    0.018014058    0.003661415   -0.002774419
   9   C   :    0.013821668   -0.000550312   -0.012208053
  10   C   :    0.002068813    0.001252906    0.001551239
  11   F   :   -0.014554763    0.003700241    0.022108396
  12   F   :   -0.024954282   -0.007569304   -0.003462926
  13   O   :    0.023961061    0.013922746    0.025621343
  14   C   :    0.000345487   -0.008243330   -0.019323132
  15   C   :    0.048536250    0.021713913    0.020926632
  16   C   :   -0.041580539    0.006549053    0.040390189
  17   N   :   -0.025879632   -0.013162137   -0.015063037
  18   N   :    0.021700201   -0.005551938   -0.026430935
  19   C   :   -0.002858937   -0.001788233   -0.004324672
  20   O   :   -0.010922038   -0.005901678   -0.008902656
  21   C   :    0.009085180   -0.003427545   -0.017356289
  22   C   :    0.002220882    0.005320114    0.027749457
  23   C   :   -0.003224149   -0.000283598    0.007314656
  24   C   :    0.008149992    0.015747546    0.010053009
  25   C   :    0.002197180   -0.003869224   -0.012340566
  26   C   :    0.002688632    0.000886175    0.018377277
  27   C   :   -0.018295388   -0.008786410   -0.008319480
  28   C   :    0.005790891   -0.004363176   -0.010395041
  29   C   :   -0.031001570    0.002866563    0.018568627
  30   C   :   -0.002251742   -0.000842838   -0.002799727
  31   C   :   -0.000439095   -0.007528127   -0.016539946
  32   C   :   -0.006203669   -0.008984524   -0.014255759
  33   C   :    0.003222588   -0.000118134   -0.000774628
  34   F   :    0.016489351    0.012018421    0.013901952
  35   F   :   -0.010281818    0.007659934    0.022326529
  36   O   :    0.032596000    0.000042784   -0.020635881
  37   C   :   -0.011767860    0.004633183   -0.001974571
  38   C   :    0.036266372   -0.014106308   -0.036927371
  39   C   :    0.022330717    0.001852929    0.046986528
  40   N   :   -0.024408863    0.006808704    0.021611224
  41   N   :   -0.012596762   -0.005493389   -0.028868465
  42   C   :    0.011611702    0.006351285   -0.000325312
  43   C   :   -0.010740088   -0.008250928    0.003364499
  44   C   :   -0.000245656    0.001475848   -0.007074212
  45   C   :   -0.011749631   -0.004478738    0.008031034
  46   C   :    0.011611032    0.005065937   -0.002272545
  47   C   :   -0.018202389   -0.011055173    0.004983054
  48   C   :    0.014011269    0.005046373   -0.010892528
  49   C   :   -0.000227857    0.001870407    0.007046046
  50   C   :   -0.009630148   -0.011079991   -0.012067916
  51   C   :    0.003072584   -0.001377639    0.006189816
  52   C   :    0.004312723   -0.004357462   -0.000286152
  53   C   :   -0.005239388    0.004095854    0.000568589
  54   C   :   -0.001725241    0.005512536   -0.003145758
  55   C   :    0.001284822   -0.003449202    0.003903832
  56   C   :    0.001314286   -0.001715549    0.000648981
  57   C   :   -0.000610505    0.002330423   -0.002821069
  58   C   :   -0.005080116   -0.002646217    0.000482830
  59   C   :    0.002489901   -0.002184426    0.000354669
  60   C   :   -0.001141411    0.003300420   -0.001622388
  61   C   :   -0.000873034    0.001442949    0.000376614
  62   C   :    0.000794113   -0.001901801   -0.000743492
  63   C   :    0.004162608    0.001970530   -0.000578415
  64   C   :   -0.001294321    0.001036950    0.000304009
  65   C   :   -0.000881995   -0.001571471   -0.001420540
  66   C   :    0.000838901    0.000319004    0.001519005
  67   C   :    0.001296595    0.001425408   -0.000975261
  68   C   :    0.002968228   -0.000735546   -0.003110081
  69   C   :    0.001749701   -0.000515553    0.000555782
  70   C   :   -0.001700340    0.000162028   -0.000201892
  71   C   :   -0.002181479    0.002326710    0.000550564
  72   C   :   -0.000399450   -0.003388789    0.000350332
  73   C   :   -0.001835731   -0.000284332   -0.004905885
  74   C   :   -0.002787864    0.001890886    0.000875719
  75   C   :    0.001159064   -0.001769366    0.000320573
  76   C   :    0.002772964    0.006339869    0.001534934
  77   C   :   -0.003480659   -0.001344941   -0.003731993
  78   C   :   -0.004195880   -0.006078122   -0.000235956
  79   C   :    0.005995628    0.000383945   -0.002099494
  80   C   :    0.003704427    0.004820851    0.004188511
  81   C   :   -0.005045855    0.000206137   -0.001806321
  82   C   :   -0.003719144   -0.001144844    0.005990611
  83   C   :    0.005138580   -0.000687387   -0.001008875
  84   C   :    0.009568772    0.008852331   -0.006057699
  85   C   :   -0.010150919   -0.005070961   -0.002657546
  86   O   :    0.003551977    0.014984196    0.007129996
  87   H   :   -0.002166219   -0.002314237   -0.005329332
  88   H   :    0.001768337   -0.000206337   -0.002120791
  89   H   :    0.000335804   -0.000474201   -0.001722065
  90   H   :    0.002196470    0.000858841   -0.000680234
  91   H   :    0.001477574   -0.000998639    0.001540974
  92   H   :   -0.001252348   -0.001490475   -0.001719909
  93   H   :   -0.001745558   -0.000749241   -0.000300477
  94   H   :    0.000521500   -0.000140433    0.000550404
  95   H   :   -0.000032912   -0.000489057   -0.000138692
  96   H   :   -0.000460642    0.001343757   -0.001593949
  97   H   :   -0.001532473    0.000645339    0.000441671
  98   H   :    0.001126533   -0.000047140   -0.001693415
  99   H   :    0.000641017    0.000110264   -0.001968447
 100   H   :    0.000802527   -0.001109752   -0.000139314
 101   H   :    0.001360264   -0.000741867    0.000222804
 102   H   :   -0.001317359   -0.000010726   -0.001189183
 103   H   :    0.000378495   -0.001088524   -0.001540225
 104   H   :    0.000719667   -0.000141486    0.001632940
 105   H   :    0.000721397    0.001440409    0.000836122
 106   H   :    0.000200286   -0.001947636   -0.000282296
 107   H   :    0.001263438   -0.001191188    0.000984602
 108   H   :   -0.000754583    0.000309557    0.001778294
 109   H   :   -0.001018680   -0.000505906    0.001563626
 110   H   :   -0.000004587    0.001240583   -0.001251216
 111   H   :   -0.001154066    0.001517374    0.000661108
 112   H   :   -0.002659749   -0.000331375   -0.000214385
 113   H   :    0.000173896   -0.001037509   -0.002432349
 114   H   :    0.002475172    0.001469672    0.000293319
 115   H   :    0.000108692    0.003679239   -0.000972400
 116   H   :    0.000354126    0.001851207    0.002027996
 117   H   :    0.002966305   -0.000233514    0.000040344
 118   H   :    0.000118876    0.001025661   -0.002265919
 119   H   :   -0.002353442   -0.001134791    0.000666713
 120   H   :   -0.000640617   -0.003408741   -0.001525228
 121   H   :   -0.001488949   -0.001205480    0.000115396
 122   H   :   -0.002266812   -0.001063187    0.000793075
 123   H   :   -0.001193788    0.000758296   -0.002241017
 124   H   :    0.002346524    0.001611784    0.000156492
 125   H   :   -0.000196656    0.003286639    0.001904528
 126   H   :    0.001491851    0.000281820    0.002500097
 127   H   :    0.002052224    0.001577219   -0.000064950
 128   H   :    0.001467043   -0.001914262   -0.001086957
 129   H   :   -0.002219325   -0.001435999    0.001117613
 130   H   :    0.000239067   -0.001098505    0.003614737
 131   H   :   -0.001711418    0.001232298    0.001921767
 132   H   :   -0.003054567   -0.001495795    0.003994306

Difference to translation invariance:
           :   -0.0000000000    0.0000000001   -0.0000000004

Norm of the cartesian gradient     ...    0.1865401413
RMS gradient                       ...    0.0093739948
MAX gradient                       ...    0.0485362502

-------
TIMINGS
-------

Total CIS gradient time            ...    38675.397 sec

Fock matrix formation       ....    2798.264 sec  (  7.2%)
  Coulomb formation         ....    2798.264 sec  (100.0% of F)
Z-vector equation           ....   32812.638 sec  ( 84.8%)
One electron gradient       ....      23.284 sec  (  0.1%)
Prescreening matrices       ....       1.408 sec  (  0.0%)
Two electron gradient       ....    3034.927 sec  (  7.8%)

                            ***************************************
                            *     ORCA property calculations      *
                            ***************************************

                                    ---------------------
                                    Active property flags
                                    ---------------------
   (+) Dipole Moment


------------------------------------------------------------------------------
                       ORCA ELECTRIC PROPERTIES CALCULATION
------------------------------------------------------------------------------

Dipole Moment Calculation                       ... on
Quadrupole Moment Calculation                   ... off
Polarizability Calculation                      ... off
GBWName                                         ... IDF-4F.gbw
Electron density file                           ... IDF-4F.scfp
The origin for moment calculation is the CENTER OF MASS  = ( 9.559814,  0.619454 -3.697616)

-------------
DIPOLE MOMENT
-------------
                                X             Y             Z
Electronic contribution:    -43.10077      34.99908      39.77883
Nuclear contribution   :     46.33120     -35.26433     -39.26421
                        -----------------------------------------
Total Dipole Moment    :      3.23044      -0.26526       0.51462
                        -----------------------------------------
Magnitude (a.u.)       :      3.28191
Magnitude (Debye)      :      8.34194



--------------------
Rotational spectrum 
--------------------
 
Rotational constants in cm-1:     0.000850     0.000392     0.000330 
Rotational constants in MHz :    25.479997    11.747965     9.891771 

 Dipole components along the rotational axes: 
x,y,z [a.u.] :     2.594011    -0.184220     2.002018 
x,y,z [Debye]:     6.593453    -0.468250     5.088724 

 

                        *** CIS RELAXED DENSITY ***

------------------------------------------------------------------------------
                       ORCA ELECTRIC PROPERTIES CALCULATION
------------------------------------------------------------------------------

Dipole Moment Calculation                       ... on
Quadrupole Moment Calculation                   ... off
Polarizability Calculation                      ... off
GBWName                                         ... IDF-4F.gbw
Electron density file                           ... IDF-4F.cisp
The origin for moment calculation is the CENTER OF MASS  = ( 9.559814,  0.619454 -3.697616)

-------------
DIPOLE MOMENT
-------------
                                X             Y             Z
Electronic contribution:    -43.41955      34.20928      39.50539
Nuclear contribution   :     46.33120     -35.26433     -39.26421
                        -----------------------------------------
Total Dipole Moment    :      2.91165      -1.05505       0.24118
                        -----------------------------------------
Magnitude (a.u.)       :      3.10628
Magnitude (Debye)      :      7.89554



--------------------
Rotational spectrum 
--------------------
 
Rotational constants in cm-1:     0.000850     0.000392     0.000330 
Rotational constants in MHz :    25.479997    11.747965     9.891771 

 Dipole components along the rotational axes: 
x,y,z [a.u.] :     1.931637    -0.685365     2.334106 
x,y,z [Debye]:     4.909831    -1.742059     5.932825 

 

Timings for individual modules:

Sum of individual times         ...   100407.132 sec (=1673.452 min)
GTO integral calculation        ...        2.350 sec (=   0.039 min)   0.0 %
SCF iterations                  ...    12769.210 sec (= 212.820 min)  12.7 %
CIS module                      ...    48960.135 sec (= 816.002 min)  48.8 %
SCF Gradient evaluation         ...    38675.437 sec (= 644.591 min)  38.5 %
                             ****ORCA TERMINATED NORMALLY****
TOTAL RUN TIME: 1 days 3 hours 53 minutes 28 seconds 388 msec
