
                                 *****************
                                 * O   R   C   A *
                                 *****************

           --- An Ab Initio, DFT and Semiempirical electronic structure package ---

                  #######################################################
                  #                        -***-                        #
                  #          Department of theory and spectroscopy      #
                  #               Directorship: Frank Neese             #
                  #        Max Planck Institute fuer Kohlenforschung    #
                  #                Kaiser Wilhelm Platz 1               #
                  #                 D-45470 Muelheim/Ruhr               #
                  #                      Germany                        #
                  #                                                     #
                  #                  All rights reserved                #
                  #                        -***-                        #
                  #######################################################


                         Program Version 4.2.0 -  RELEASE  -


 With contributions from (in alphabetic order):
   Daniel Aravena         : Magnetic Suceptibility
   Michael Atanasov       : Ab Initio Ligand Field Theory (pilot matlab implementation)
   Alexander A. Auer      : GIAO ZORA, VPT2
   Ute Becker             : Parallelization
   Giovanni Bistoni       : ED, misc. LED, open-shell LED, HFLED
   Martin Brehm           : Molecular dynamics
   Dmytro Bykov           : SCF Hessian
   Vijay G. Chilkuri      : MRCI spin determinant printing, contributions to CSF-ICE
   Dipayan Datta          : RHF DLPNO-CCSD density
   Achintya Kumar Dutta   : EOM-CC, STEOM-CC
   Dmitry Ganyushin       : Spin-Orbit,Spin-Spin,Magnetic field MRCI
   Miquel Garcia          : C-PCM Hessian, Gaussian charge scheme
   Yang Guo               : DLPNO-NEVPT2, CIM, IAO-localization
   Andreas Hansen         : Spin unrestricted coupled pair/coupled cluster methods
   Benjamin Helmich-Paris : CASSCF linear response (MC-RPA)
   Lee Huntington         : MR-EOM, pCC
   Robert Izsak           : Overlap fitted RIJCOSX, COSX-SCS-MP3, EOM
   Christian Kollmar      : KDIIS, OOCD, Brueckner-CCSD(T), CCSD density
   Simone Kossmann        : Meta GGA functionals, TD-DFT gradient, OOMP2, MP2 Hessian
   Martin Krupicka        : AUTO-CI
   Lucas Lang             : DCDCAS
   Dagmar Lenk            : GEPOL surface, SMD
   Dimitrios Liakos       : Extrapolation schemes; Compound Job, initial MDCI parallelization
   Dimitrios Manganas     : Further ROCIS development; embedding schemes
   Dimitrios Pantazis     : SARC Basis sets
   Taras Petrenko         : DFT Hessian,TD-DFT gradient, ASA, ECA, R-Raman, ABS, FL, XAS/XES, NRVS
   Peter Pinski           : DLPNO-MP2, DLPNO-MP2 Gradient
   Christoph Reimann      : Effective Core Potentials
   Marius Retegan         : Local ZFS, SOC
   Christoph Riplinger    : Optimizer, TS searches, QM/MM, DLPNO-CCSD(T), (RO)-DLPNO pert. Triples
   Tobias Risthaus        : Range-separated hybrids, TD-DFT gradient, RPA, STAB
   Michael Roemelt        : Original ROCIS implementation
   Masaaki Saitow         : Open-shell DLPNO-CCSD energy and density
   Barbara Sandhoefer     : DKH picture change effects
   Avijit Sen             : IP-ROCIS
   Kantharuban Sivalingam : CASSCF convergence, NEVPT2, FIC-MRCI
   Bernardo de Souza      : ESD, SOC TD-DFT
   Georgi Stoychev        : AutoAux, RI-MP2 NMR
   Willem Van den Heuvel  : Paramagnetic NMR
   Boris Wezisla          : Elementary symmetry handling
   Frank Wennmohs         : Technical directorship


 We gratefully acknowledge several colleagues who have allowed us to
 interface, adapt or use parts of their codes:
   Stefan Grimme, W. Hujo, H. Kruse,             : VdW corrections, initial TS optimization,
                  C. Bannwarth                     DFT functionals, gCP, sTDA/sTD-DF
   Ed Valeev, F. Pavosevic, A. Kumar             : LibInt (2-el integral package), F12 methods
   Garnet Chan, S. Sharma, J. Yang, R. Olivares  : DMRG
   Ulf Ekstrom                                   : XCFun DFT Library
   Mihaly Kallay                                 : mrcc  (arbitrary order and MRCC methods)
   Andreas Klamt, Michael Diedenhofen            : otool_cosmo (COSMO solvation model)
   Jiri Pittner, Ondrej Demel                    : Mk-CCSD
   Frank Weinhold                                : gennbo (NPA and NBO analysis)
   Christopher J. Cramer and Donald G. Truhlar   : smd solvation model
   Lars Goerigk                                  : TD-DFT with DH, B97 family of functionals
   V. Asgeirsson, H. Jonsson                     : NEB implementation
   FAccTs GmbH                                   : IRC, NEB, NEB-TS, Multilevel, MM, QM/MM, CI optimization
   S Lehtola, MJT Oliveira, MAL Marques          : LibXC Library


 Your calculation uses the libint2 library for the computation of 2-el integrals
 For citations please refer to: http://libint.valeyev.net

 Your ORCA version has been built with support for libXC version: 4.2.3
 For citations please refer to: https://tddft.org/programs/libxc/

 This ORCA versions uses:
   CBLAS   interface :  Fast vector & matrix operations
   LAPACKE interface :  Fast linear algebra routines
   SCALAPACK package :  Parallel linear algebra routines


----- Orbital basis set information -----
Your calculation utilizes the basis: def2-SVP
   F. Weigend and R. Ahlrichs, Phys. Chem. Chem. Phys. 7, 3297 (2005).

================================================================================
                                        WARNINGS
                       Please study these warnings very carefully!
================================================================================

INFO   : Checking CIS options ...

WARNING: CIS/ROCIS methods need fully converged wavefunctions
  ===> : Setting SCFConvForced true
         You can overwrite this default with %scf ConvForced false 


INFO   : the flag for use of LIBINT has been found!

================================================================================
                                       INPUT FILE
================================================================================
NAME = IDF-IC.inp
|  1> # ORCA input file
|  2> # IDF-IC.out
|  3> ! Engrad Keepdens
|  4> %maxcore 1000
|  5> %tddft
|  6>   nroots 3 
|  7>   # nroots is the number of states to be computed
|  8>   Iroot 1
|  9>   end
| 10> * xyz 0 1
| 11>    C        2.76735        -4.00645         0.60502
| 12>    C        1.90664        -4.41690        -0.36986
| 13>    C        1.94699        -4.29416        -1.81089
| 14>    C        0.56338        -4.34276        -2.28245
| 15>    C       -0.26256        -4.74535        -1.21603
| 16>    C        0.54808        -4.88606         0.01202
| 17>    C        0.01243        -4.10776        -3.53131
| 18>    C       -1.35516        -4.28572        -3.69461
| 19>    C       -2.16244        -4.69661        -2.64346
| 20>    C       -1.62081        -4.92952        -1.38689
| 21>    H       -3.22107        -4.83326        -2.80535
| 22>    H       -1.79667        -4.10086        -4.66253
| 23>    O        0.18373        -5.24476         1.10886
| 24>    C        3.05874        -4.36531        -2.60687
| 25>    C        3.04029        -4.20529        -4.00585
| 26>    C        4.34178        -4.69457        -2.11842
| 27>    N        3.09735        -4.03794        -5.14056
| 28>    N        5.38009        -5.04387        -1.77627
| 29>    C        3.88671        -3.15787         0.49560
| 30>    O        4.22790        -2.58787        -0.70088
| 31>    C        5.26494        -1.79595        -0.45053
| 32>    C        5.60747        -1.80337         0.89811
| 33>    C        4.72789        -2.68759         1.51186
| 34>    C       10.71528         4.57691        -3.69383
| 35>    C       11.32313         5.16443        -4.76368
| 36>    C       11.47964         4.76206        -6.14326
| 37>    C       11.80458         5.96626        -6.90882
| 38>    C       12.07680         7.01409        -6.00977
| 39>    C       11.87099         6.54093        -4.62512
| 40>    C       11.89567         6.18751        -8.27303
| 41>    C       12.26500         7.45158        -8.71473
| 42>    C       12.54632         8.47664        -7.82310
| 43>    C       12.45211         8.26662        -6.45412
| 44>    H       12.83816         9.44582        -8.19860
| 45>    H       12.33415         7.63666        -9.77621
| 46>    O       12.05621         7.14808        -3.59510
| 47>    C       11.57195         3.47902        -6.61802
| 48>    C       11.79447         3.15151        -7.97065
| 49>    C       11.53924         2.32813        -5.80346
| 50>    N       11.94450         2.82177        -9.06012
| 51>    N       11.56664         1.35908        -5.18891
| 52>    C        6.10544        -0.92488        -1.20046
| 53>    C        6.99605        -0.33901        -0.26440
| 54>    C        6.79352        -0.91001         1.13569
| 55>    C        6.15420        -0.62800        -2.56067
| 56>    C        7.07378         0.31004        -2.96430
| 57>    C        7.88784         0.98059        -2.01201
| 58>    C        7.87495         0.64249        -0.65972
| 59>    C        7.35124         0.79593        -4.37946
| 60>    C        8.26433         1.95021        -4.09088
| 61>    C        8.60891         1.97277        -2.74115
| 62>    C        6.55056         0.22498         2.10954
| 63>    C        7.94009        -1.80066         1.58980
| 64>    C        8.22682        -0.16855        -5.17570
| 65>    C        6.06418         1.10201        -5.10741
| 66>    C        7.94279        -2.26334         2.90039
| 67>    C        8.93969        -3.11010         3.34335
| 68>    C        9.95598        -3.52126         2.48973
| 69>    C        9.94083        -3.06481         1.17931
| 70>    C        8.94435        -2.21692         0.72942
| 71>    C        7.62673         0.86177         2.71526
| 72>    C        7.42007         1.92660         3.57091
| 73>    C        6.13760         2.38681         3.84117
| 74>    C        5.06648         1.75093         3.22853
| 75>    C        5.26816         0.68724         2.36806
| 76>    C        5.37299         0.07607        -5.74114
| 77>    C        4.17255         0.32834        -6.37582
| 78>    C        3.63369         1.60900        -6.39760
| 79>    C        4.32897         2.62993        -5.76401
| 80>    C        5.52720         2.38070        -5.11880
| 81>    C        8.84241        -1.26840        -4.60060
| 82>    C        9.71185        -2.04597        -5.34429
| 83>    C        9.99740        -1.73813        -6.66653
| 84>    C        9.36927        -0.63952        -7.23946
| 85>    C        8.49761         0.13768        -6.50382
| 86>    C       11.01180        -4.48098         2.95652
| 87>    C       10.57503        -5.92287         2.68890
| 88>    C        5.91487         3.50971         4.81240
| 89>    C        5.78802         2.96489         6.23659
| 90>    C       10.93009        -2.59593        -7.47081
| 91>    C       10.16702        -3.74710        -8.12946
| 92>    C        2.35642         1.88695        -7.13658
| 93>    C        2.64572         2.17883        -8.61044
| 94>    C        9.03512         2.92739        -4.70298
| 95>    C        9.80180         3.50414        -3.68358
| 96>    O        9.50786         2.91786        -2.48170
| 97>    H        2.49299        -4.27745         1.61789
| 98>    H        0.61998        -3.78306        -4.36091
| 99>    H       -2.23267        -5.24660        -0.55647
|100>    H        4.67022        -2.97070         2.54310
|101>    H       10.90286         5.04136        -2.73130
|102>    H       11.67571         5.40845        -8.98525
|103>    H       12.66362         9.05177        -5.74469
|104>    H        5.49402        -1.11872        -3.25843
|105>    H        8.52971         1.13795         0.03962
|106>    H        7.16163        -1.94873         3.57744
|107>    H        8.92932        -3.45722         4.36675
|108>    H       10.71917        -3.37576         0.49745
|109>    H        8.95528        -1.88023        -0.29632
|110>    H        8.63143         0.51276         2.52528
|111>    H        8.26817         2.40934         4.03519
|112>    H        4.06031         2.09413         3.42328
|113>    H        4.41937         0.21252         1.89710
|114>    H        5.78432        -0.92294        -5.74722
|115>    H        3.64657        -0.48201        -6.85945
|116>    H        3.92667         3.63327        -5.77060
|117>    H        6.04943         3.18715        -4.62338
|118>    H        8.65025        -1.52209        -3.56858
|119>    H       10.18737        -2.89835        -4.88084
|120>    H        9.57824        -0.38000        -8.26747
|121>    H        8.02144         0.99388        -6.96047
|122>    H       11.18602        -4.34993         4.02643
|123>    H       11.94848        -4.28559         2.43064
|124>    H        9.64933        -6.14184         3.21639
|125>    H       11.33935        -6.62059         3.02308
|126>    H       10.40520        -6.07495         1.62556
|127>    H        5.00334         4.05091         4.55128
|128>    H        6.75246         4.20869         4.76834
|129>    H        4.94979         2.27495         6.30411
|130>    H        5.62771         3.77675         6.94205
|131>    H        6.69302         2.43191         6.51947
|132>    H       11.70719        -3.00366        -6.82149
|133>    H       11.41148        -1.99259        -8.24267
|134>    H        9.68792        -4.36519        -7.37344
|135>    H       10.84403        -4.36955        -8.70998
|136>    H        9.39646        -3.35971        -8.79225
|137>    H        1.84834         2.74509        -6.69184
|138>    H        1.69397         1.02189        -7.06579
|139>    H        3.29498         3.04663        -8.70381
|140>    H        1.72149         2.37675        -9.14835
|141>    H        3.14251         1.32913        -9.07308
|142>    H        9.02246         3.23016        -5.73006
|143> *
|144> 
|145>                          ****END OF INPUT****
================================================================================

                     *******************************
                     * Energy+Gradient Calculation *
                     *******************************

---------------------------------
CARTESIAN COORDINATES (ANGSTROEM)
---------------------------------
  C      2.767350   -4.006450    0.605020
  C      1.906640   -4.416900   -0.369860
  C      1.946990   -4.294160   -1.810890
  C      0.563380   -4.342760   -2.282450
  C     -0.262560   -4.745350   -1.216030
  C      0.548080   -4.886060    0.012020
  C      0.012430   -4.107760   -3.531310
  C     -1.355160   -4.285720   -3.694610
  C     -2.162440   -4.696610   -2.643460
  C     -1.620810   -4.929520   -1.386890
  H     -3.221070   -4.833260   -2.805350
  H     -1.796670   -4.100860   -4.662530
  O      0.183730   -5.244760    1.108860
  C      3.058740   -4.365310   -2.606870
  C      3.040290   -4.205290   -4.005850
  C      4.341780   -4.694570   -2.118420
  N      3.097350   -4.037940   -5.140560
  N      5.380090   -5.043870   -1.776270
  C      3.886710   -3.157870    0.495600
  O      4.227900   -2.587870   -0.700880
  C      5.264940   -1.795950   -0.450530
  C      5.607470   -1.803370    0.898110
  C      4.727890   -2.687590    1.511860
  C     10.715280    4.576910   -3.693830
  C     11.323130    5.164430   -4.763680
  C     11.479640    4.762060   -6.143260
  C     11.804580    5.966260   -6.908820
  C     12.076800    7.014090   -6.009770
  C     11.870990    6.540930   -4.625120
  C     11.895670    6.187510   -8.273030
  C     12.265000    7.451580   -8.714730
  C     12.546320    8.476640   -7.823100
  C     12.452110    8.266620   -6.454120
  H     12.838160    9.445820   -8.198600
  H     12.334150    7.636660   -9.776210
  O     12.056210    7.148080   -3.595100
  C     11.571950    3.479020   -6.618020
  C     11.794470    3.151510   -7.970650
  C     11.539240    2.328130   -5.803460
  N     11.944500    2.821770   -9.060120
  N     11.566640    1.359080   -5.188910
  C      6.105440   -0.924880   -1.200460
  C      6.996050   -0.339010   -0.264400
  C      6.793520   -0.910010    1.135690
  C      6.154200   -0.628000   -2.560670
  C      7.073780    0.310040   -2.964300
  C      7.887840    0.980590   -2.012010
  C      7.874950    0.642490   -0.659720
  C      7.351240    0.795930   -4.379460
  C      8.264330    1.950210   -4.090880
  C      8.608910    1.972770   -2.741150
  C      6.550560    0.224980    2.109540
  C      7.940090   -1.800660    1.589800
  C      8.226820   -0.168550   -5.175700
  C      6.064180    1.102010   -5.107410
  C      7.942790   -2.263340    2.900390
  C      8.939690   -3.110100    3.343350
  C      9.955980   -3.521260    2.489730
  C      9.940830   -3.064810    1.179310
  C      8.944350   -2.216920    0.729420
  C      7.626730    0.861770    2.715260
  C      7.420070    1.926600    3.570910
  C      6.137600    2.386810    3.841170
  C      5.066480    1.750930    3.228530
  C      5.268160    0.687240    2.368060
  C      5.372990    0.076070   -5.741140
  C      4.172550    0.328340   -6.375820
  C      3.633690    1.609000   -6.397600
  C      4.328970    2.629930   -5.764010
  C      5.527200    2.380700   -5.118800
  C      8.842410   -1.268400   -4.600600
  C      9.711850   -2.045970   -5.344290
  C      9.997400   -1.738130   -6.666530
  C      9.369270   -0.639520   -7.239460
  C      8.497610    0.137680   -6.503820
  C     11.011800   -4.480980    2.956520
  C     10.575030   -5.922870    2.688900
  C      5.914870    3.509710    4.812400
  C      5.788020    2.964890    6.236590
  C     10.930090   -2.595930   -7.470810
  C     10.167020   -3.747100   -8.129460
  C      2.356420    1.886950   -7.136580
  C      2.645720    2.178830   -8.610440
  C      9.035120    2.927390   -4.702980
  C      9.801800    3.504140   -3.683580
  O      9.507860    2.917860   -2.481700
  H      2.492990   -4.277450    1.617890
  H      0.619980   -3.783060   -4.360910
  H     -2.232670   -5.246600   -0.556470
  H      4.670220   -2.970700    2.543100
  H     10.902860    5.041360   -2.731300
  H     11.675710    5.408450   -8.985250
  H     12.663620    9.051770   -5.744690
  H      5.494020   -1.118720   -3.258430
  H      8.529710    1.137950    0.039620
  H      7.161630   -1.948730    3.577440
  H      8.929320   -3.457220    4.366750
  H     10.719170   -3.375760    0.497450
  H      8.955280   -1.880230   -0.296320
  H      8.631430    0.512760    2.525280
  H      8.268170    2.409340    4.035190
  H      4.060310    2.094130    3.423280
  H      4.419370    0.212520    1.897100
  H      5.784320   -0.922940   -5.747220
  H      3.646570   -0.482010   -6.859450
  H      3.926670    3.633270   -5.770600
  H      6.049430    3.187150   -4.623380
  H      8.650250   -1.522090   -3.568580
  H     10.187370   -2.898350   -4.880840
  H      9.578240   -0.380000   -8.267470
  H      8.021440    0.993880   -6.960470
  H     11.186020   -4.349930    4.026430
  H     11.948480   -4.285590    2.430640
  H      9.649330   -6.141840    3.216390
  H     11.339350   -6.620590    3.023080
  H     10.405200   -6.074950    1.625560
  H      5.003340    4.050910    4.551280
  H      6.752460    4.208690    4.768340
  H      4.949790    2.274950    6.304110
  H      5.627710    3.776750    6.942050
  H      6.693020    2.431910    6.519470
  H     11.707190   -3.003660   -6.821490
  H     11.411480   -1.992590   -8.242670
  H      9.687920   -4.365190   -7.373440
  H     10.844030   -4.369550   -8.709980
  H      9.396460   -3.359710   -8.792250
  H      1.848340    2.745090   -6.691840
  H      1.693970    1.021890   -7.065790
  H      3.294980    3.046630   -8.703810
  H      1.721490    2.376750   -9.148350
  H      3.142510    1.329130   -9.073080
  H      9.022460    3.230160   -5.730060

----------------------------
CARTESIAN COORDINATES (A.U.)
----------------------------
  NO LB      ZA    FRAG     MASS         X           Y           Z
   0 C     6.0000    0    12.011    5.229534   -7.571093    1.143322
   1 C     6.0000    0    12.011    3.603027   -8.346731   -0.698934
   2 C     6.0000    0    12.011    3.679278   -8.114786   -3.422086
   3 C     6.0000    0    12.011    1.064634   -8.206627   -4.313205
   4 C     6.0000    0    12.011   -0.496166   -8.967412   -2.297964
   5 C     6.0000    0    12.011    1.035721   -9.233315    0.022715
   6 C     6.0000    0    12.011    0.023489   -7.762541   -6.673209
   7 C     6.0000    0    12.011   -2.560881   -8.098837   -6.981801
   8 C     6.0000    0    12.011   -4.086419   -8.875307   -4.995415
   9 C     6.0000    0    12.011   -3.062887   -9.315443   -2.620842
  10 H     1.0000    0     1.008   -6.086940   -9.133538   -5.301343
  11 H     1.0000    0     1.008   -3.395214   -7.749502   -8.810905
  12 O     8.0000    0    15.999    0.347199   -9.911160    2.095442
  13 C     6.0000    0    12.011    5.780181   -8.249240   -4.926270
  14 C     6.0000    0    12.011    5.745315   -7.946846   -7.569959
  15 C     6.0000    0    12.011    8.204775   -8.871452   -4.003234
  16 N     7.0000    0    14.007    5.853143   -7.630601   -9.714251
  17 N     7.0000    0    14.007   10.166897   -9.531533   -3.356664
  18 C     6.0000    0    12.011    7.344817   -5.967509    0.936548
  19 O     8.0000    0    15.999    7.989573   -4.890366   -1.324471
  20 C     6.0000    0    12.011    9.949295   -3.393854   -0.851378
  21 C     6.0000    0    12.011   10.596583   -3.407875    1.697182
  22 C     6.0000    0    12.011    8.934417   -5.078809    2.857001
  23 C     6.0000    0    12.011   20.248945    8.649106   -6.980327
  24 C     6.0000    0    12.011   21.397615    9.759358   -9.002051
  25 C     6.0000    0    12.011   21.693376    8.998989  -11.609079
  26 C     6.0000    0    12.011   22.307423   11.274597  -13.055778
  27 C     6.0000    0    12.011   22.821845   13.254709  -11.356819
  28 C     6.0000    0    12.011   22.432920   12.360566   -8.740210
  29 C     6.0000    0    12.011   22.479558   11.692699  -15.633761
  30 C     6.0000    0    12.011   23.177491   14.081445  -16.468453
  31 C     6.0000    0    12.011   23.709109   16.018528  -14.783517
  32 C     6.0000    0    12.011   23.531078   15.621648  -12.196519
  33 H     1.0000    0     1.008   24.260606   17.850013  -15.493109
  34 H     1.0000    0     1.008   23.308166   14.431196  -18.474360
  35 O     8.0000    0    15.999   22.782935   13.507914   -6.793754
  36 C     6.0000    0    12.011   21.867816    6.574395  -12.506245
  37 C     6.0000    0    12.011   22.288318    5.955491  -15.062346
  38 C     6.0000    0    12.011   21.806003    4.399528  -10.966950
  39 N     7.0000    0    14.007   22.571834    5.332373  -17.121146
  40 N     7.0000    0    14.007   21.857782    2.568289   -9.805619
  41 C     6.0000    0    12.011   11.537610   -1.747770   -2.268541
  42 C     6.0000    0    12.011   13.220619   -0.640636   -0.499644
  43 C     6.0000    0    12.011   12.837892   -1.719670    2.146143
  44 C     6.0000    0    12.011   11.629753   -1.186748   -4.838965
  45 C     6.0000    0    12.011   13.367507    0.585891   -5.601715
  46 C     6.0000    0    12.011   14.905857    1.853047   -3.802148
  47 C     6.0000    0    12.011   14.881499    1.214130   -1.246690
  48 C     6.0000    0    12.011   13.891830    1.504090   -8.275980
  49 C     6.0000    0    12.011   15.617320    3.685363   -7.730643
  50 C     6.0000    0    12.011   16.268482    3.727995   -5.180023
  51 C     6.0000    0    12.011   12.378764    0.425151    3.986453
  52 C     6.0000    0    12.011   15.004596   -3.402754    3.004287
  53 C     6.0000    0    12.011   15.546437   -0.318513   -9.780656
  54 C     6.0000    0    12.011   11.459639    2.082497   -9.651606
  55 C     6.0000    0    12.011   15.009698   -4.277093    5.480943
  56 C     6.0000    0    12.011   16.893566   -5.877237    6.318016
  57 C     6.0000    0    12.011   18.814076   -6.654217    4.704908
  58 C     6.0000    0    12.011   18.785446   -5.791652    2.228573
  59 C     6.0000    0    12.011   16.902372   -4.189372    1.378404
  60 C     6.0000    0    12.011   14.412431    1.628509    5.131098
  61 C     6.0000    0    12.011   14.021900    3.640746    6.748042
  62 C     6.0000    0    12.011   11.598383    4.510417    7.258759
  63 C     6.0000    0    12.011    9.574260    3.308778    6.101038
  64 C     6.0000    0    12.011    9.955380    1.298695    4.474985
  65 C     6.0000    0    12.011   10.153480    0.143751  -10.849182
  66 C     6.0000    0    12.011    7.884977    0.620473  -12.048554
  67 C     6.0000    0    12.011    6.866679    3.040569  -12.089712
  68 C     6.0000    0    12.011    8.180568    4.969847  -10.892400
  69 C     6.0000    0    12.011   10.444894    4.498871   -9.673130
  70 C     6.0000    0    12.011   16.709733   -2.396929   -8.693874
  71 C     6.0000    0    12.011   18.352737   -3.866323  -10.099244
  72 C     6.0000    0    12.011   18.892348   -3.284590  -12.597916
  73 C     6.0000    0    12.011   17.705354   -1.208518  -13.680597
  74 C     6.0000    0    12.011   16.058156    0.260177  -12.290439
  75 C     6.0000    0    12.011   20.809286   -8.467825    5.587013
  76 C     6.0000    0    12.011   19.983911  -11.192602    5.081285
  77 C     6.0000    0    12.011   11.177484    6.632391    9.094118
  78 C     6.0000    0    12.011   10.937773    5.602830   11.785447
  79 C     6.0000    0    12.011   20.654877   -4.905597  -14.117785
  80 C     6.0000    0    12.011   19.212883   -7.080993  -15.362453
  81 C     6.0000    0    12.011    4.452988    3.565819  -13.486182
  82 C     6.0000    0    12.011    4.999686    4.117392  -16.271373
  83 C     6.0000    0    12.011   17.073902    5.531965   -8.887344
  84 C     6.0000    0    12.011   18.522718    6.621865   -6.960957
  85 O     8.0000    0    15.999   17.967252    5.513956   -4.689733
  86 H     1.0000    0     1.008    4.711068   -8.083209    3.057369
  87 H     1.0000    0     1.008    1.171592   -7.148947   -8.240926
  88 H     1.0000    0     1.008   -4.219135   -9.914637   -1.051576
  89 H     1.0000    0     1.008    8.825437   -5.613809    4.805763
  90 H     1.0000    0     1.008   20.603419    9.526790   -5.161409
  91 H     1.0000    0     1.008   22.063894   10.220489  -16.979662
  92 H     1.0000    0     1.008   23.930774   17.105366  -10.855891
  93 H     1.0000    0     1.008   10.382193   -2.114074   -6.157540
  94 H     1.0000    0     1.008   16.118816    2.150414    0.074871
  95 H     1.0000    0     1.008   13.533519   -3.682566    6.760382
  96 H     1.0000    0     1.008   16.873969   -6.533199    8.251962
  97 H     1.0000    0     1.008   20.256296   -6.379262    0.940044
  98 H     1.0000    0     1.008   16.923027   -3.553120   -0.559964
  99 H     1.0000    0     1.008   16.311039    0.968976    4.772088
 100 H     1.0000    0     1.008   15.624577    4.552993    7.625404
 101 H     1.0000    0     1.008    7.672874    3.957332    6.469062
 102 H     1.0000    0     1.008    8.351399    0.401605    3.584999
 103 H     1.0000    0     1.008   10.930781   -1.744104  -10.860672
 104 H     1.0000    0     1.008    6.891019   -0.910867  -12.962482
 105 H     1.0000    0     1.008    7.420331    6.865885  -10.904854
 106 H     1.0000    0     1.008   11.431766    6.022841   -8.736922
 107 H     1.0000    0     1.008   16.346603   -2.876333   -6.743639
 108 H     1.0000    0     1.008   19.251339   -5.477088   -9.223451
 109 H     1.0000    0     1.008   18.100250   -0.718096  -15.623254
 110 H     1.0000    0     1.008   15.158325    1.878161  -13.153382
 111 H     1.0000    0     1.008   21.138514   -8.220176    7.608850
 112 H     1.0000    0     1.008   22.579355   -8.098591    4.593244
 113 H     1.0000    0     1.008   18.234591  -11.606396    6.078096
 114 H     1.0000    0     1.008   21.428266  -12.511102    5.712793
 115 H     1.0000    0     1.008   19.662978  -11.479992    3.071863
 116 H     1.0000    0     1.008    9.454942    7.655110    8.600673
 117 H     1.0000    0     1.008   12.760300    7.953271    9.010857
 118 H     1.0000    0     1.008    9.353748    4.299032   11.913041
 119 H     1.0000    0     1.008   10.634831    7.137023   13.118573
 120 H     1.0000    0     1.008   12.647975    4.595644   12.320013
 121 H     1.0000    0     1.008   22.123383   -5.676095  -12.890748
 122 H     1.0000    0     1.008   21.564572   -3.765449  -15.576389
 123 H     1.0000    0     1.008   18.307516   -8.249014  -13.933782
 124 H     1.0000    0     1.008   20.492247   -8.257253  -16.459477
 125 H     1.0000    0     1.008   17.756736   -6.348932  -16.614945
 126 H     1.0000    0     1.008    3.492856    5.187468  -12.645745
 127 H     1.0000    0     1.008    3.201139    1.931092  -13.352408
 128 H     1.0000    0     1.008    6.226610    5.757296  -16.447817
 129 H     1.0000    0     1.008    3.253145    4.491407  -17.287876
 130 H     1.0000    0     1.008    5.938483    2.511692  -17.145636
 131 H     1.0000    0     1.008   17.049978    6.104118  -10.828244

--------------------------------
INTERNAL COORDINATES (ANGSTROEM)
--------------------------------
 C      0   0   0     0.000000000000     0.00000000     0.00000000
 C      1   0   0     1.363701551293     0.00000000     0.00000000
 C      2   1   0     1.446810523531   131.98110834     0.00000000
 C      3   2   1     1.462568776400   106.97345032   205.39047117
 C      4   3   2     1.407660189144   108.68195323   348.76784252
 C      5   4   3     1.478189201760   109.56264607     3.72379920
 C      4   3   2     1.385071190264   131.40493913   170.86363200
 C      7   4   3     1.388754499435   118.42429692   177.40003537
 C      8   7   4     1.387605099803   121.45189494   359.61306984
 C      5   4   3     1.381287367277   121.42510484   182.58144971
 H      9   8   7     1.079619873613   119.62731291   180.48670723
 H      8   7   4     1.079802494024   119.08553698   179.70610916
 O      6   5   4     1.210154782703   128.03138058   181.93247419
 C      3   2   1     1.369172942108   126.67480089    36.25832927
 C     14   3   2     1.408222938068   124.12492424   181.62780764
 C     14   3   2     1.411802816154   123.29247544     5.87660103
 N     15  14   3     1.148402651599   175.94735459   144.45446190
 N     16  14   3     1.147677989943   175.08084007   114.93335521
 C      1   2   3     1.408910061856   128.84432996    10.02356338
 O     19   1   2     1.368530235874   121.12003876     1.76301578
 C     20  19   1     1.328632518983   106.14754059   176.46033270
 C     21  20  19     1.391478245213   111.81342156   358.74212487
 C     22  21  20     1.390034189256   105.99592484     1.21411756
 C     21  20  19     8.991025836088   145.85928199   189.59444123
 C     24  21  20     1.363539656702   149.16801678   331.91007481
 C     25  24  21     1.445558014540   132.61990927   347.94967740
 C     26  25  24     1.463477282776   107.11187919   160.93788349
 C     27  26  25     1.407246367840   108.74939495    10.23861610
 C     28  27  26     1.477664970215   109.46848874   357.18297794
 C     27  26  25     1.385033528367   131.39836335   189.00410255
 C     30  27  26     1.389019979626   118.42928318   181.70561676
 C     31  30  27     1.387405132937   121.46130562     0.34945838
 C     28  27  26     1.380990919413   121.48934090   178.13308277
 H     32  31  30     1.079574317961   119.64098731   179.52265349
 H     31  30  27     1.079711127710   119.05507050   180.31581196
 O     29  28  27     1.209908579728   128.00463847   177.06251564
 C     26  25  24     1.371170972308   126.74026542   329.20764949
 C     37  26  25     1.409392020483   124.08135663   183.48207262
 C     37  26  25     1.410363687068   124.19688859   359.36244279
 N     38  37  26     1.148121225916   176.43843218   204.53247322
 N     39  37  26     1.147815475153   176.03449270   217.26132779
 C     21  20  19     1.423937568786   136.56059689   179.94080957
 C     42  21  20     1.418674787469   106.00282652   177.47014213
 C     22  21  20     1.503745639561   110.12785560   179.29520416
 C     42  21  20     1.393085250837   131.70205837   357.05163410
 C     45  42  21     1.374213809747   117.10846579   177.79427144
 C     46  45  42     1.420981080170   120.57279552   357.22795933
 C     43  42  21     1.375530938365   120.40869071   185.30382124
 C     46  45  42     1.521759169284   127.81411225   178.76399609
 C     49  46  45     1.499791346455   100.24203689   170.70897420
 C     50  49  46     1.393203288433   110.45360351     8.11151364
 C     44  22  21     1.515128933193   114.84136173   120.69370756
 C     44  22  21     1.521215329761   107.08643448   245.16981332
 C     49  46  45     1.526715475916   112.82145344   280.44944905
 C     49  46  45     1.510006494191   110.95454024    46.30361061
 C     53  44  22     1.389865540439   118.54577724   282.91429794
 C     56  53  44     1.380951001738   120.53024135   177.84043411
 C     57  56  53     1.389447737088   120.82388049   359.74058859
 C     58  57  56     1.387723568078   118.34751488   359.70489561
 C     59  58  57     1.383579001937   121.09665143     0.25941740
 C     52  44  22     1.389438768496   119.95522666   160.74827429
 C     61  52  44     1.381560062755   120.48922634   177.85561577
 C     62  61  52     1.389087114835   120.92741726   359.77577728
 C     63  62  61     1.388153161002   118.34390833   359.92703493
 C     64  63  62     1.382938848757   120.95751394   359.87409223
 C     55  49  46     1.389931729475   119.60687350   275.58557799
 C     66  55  49     1.381128179750   120.45933651   177.93675676
 C     67  66  55     1.389580693447   120.83676050     0.17588640
 C     68  67  66     1.388217789614   118.45091747   359.88191979
 C     69  68  67     1.383534123143   120.93916403   359.66196313
 C     54  49  46     1.385410076692   122.67383642   351.77830590
 C     71  54  49     1.383335040617   120.15511009   185.29034410
 C     72  71  54     1.387307783334   121.13323652     0.71703572
 C     73  72  71     1.389150824749   118.39226727   358.84430512
 C     74  73  72     1.380216361735   120.73499212     0.94598427
 C     58  57  56     1.501236575261   120.83491197   182.23738030
 C     76  58  57     1.530174914642   110.32055892    89.96529108
 C     63  62  61     1.501266390685   120.70696533   177.62466791
 C     78  63  62     1.530110097673   110.37299494   272.70988805
 C     73  72  71     1.500865681698   120.78587776   180.68591398
 C     80  73  72     1.530126797458   110.53325723    87.23219124
 C     68  67  66     1.501587924765   120.54162878   177.51898393
 C     82  68  67     1.530082260534   110.39744922   274.22867380
 C     50  49  46     1.386962287339   142.71785676   176.90846304
 C     84  50  49     1.399862545002   105.85875810   190.34372823
 O     51  50  49     1.329894925586   111.57347988   174.64282735
 H      1   2   3     1.083798895783   115.66178827   182.45809411
 H      7   4   3     1.078324279843   121.37627603   356.69917033
 H     10   5   4     1.079124535167   120.10122125   179.48227947
 H     23  22  21     1.070949596666   128.85842675   179.71249444
 H     24  21  20     1.085064080965    95.06012793   150.01390248
 H     30  27  26     1.078227347826   121.45164138     2.45841624
 H     33  28  27     1.079114418169   120.10869054   180.51332715
 H     45  42  21     1.078662490495   120.87966712   357.81288777
 H     48  43  42     1.078548888461   121.96008112   177.01988733
 H     56  53  44     1.080549443663   119.50575516   357.30200350
 H     57  56  53     1.080716147423   119.58887279   179.73412482
 H     59  58  57     1.080479577641   119.56388686   180.27160006
 H     60  59  58     1.079639832815   119.52153758   180.22692925
 H     61  52  44     1.080426985270   119.70575858   357.05210658
 H     62  61  52     1.080679154976   119.53656279   179.87930965
 H     64  63  62     1.080782989966   119.56161808   180.12253236
 H     65  64  63     1.080558588925   119.63958993   180.44807767
 H     66  55  49     1.080393592817   119.71990632   357.18423491
 H     67  66  55     1.080379590607   119.46314640   180.28010813
 H     69  68  67     1.081008729706   119.56518153   179.94686083
 H     70  69  68     1.080984158903   119.85062855   180.55510668
 H     71  54  49     1.079976556273   120.27181322     5.03884238
 H     72  71  54     1.080489165749   119.30389701   179.76136279
 H     74  73  72     1.080658896877   119.65813717   179.87680431
 H     75  74  73     1.080900333703   119.93921130   179.55496145
 H     76  58  57     1.091894738059   109.88696755   329.42190905
 H     76  58  57     1.091831694402   109.82770764   210.41452636
 H     77  76  58     1.087710462853   110.35310144   300.01760223
 H     77  76  58     1.087508406036   110.49991786   179.81677306
 H     77  76  58     1.087502878571   110.32589287    59.59275394
 H     78  63  62     1.091772886318   109.87154823   152.15128472
 H     78  63  62     1.091820192202   109.81137302    33.17012324
 H     79  78  63     1.087752585334   110.33489934   300.10560642
 H     79  78  63     1.087423453536   110.50090498   179.93727327
 H     79  78  63     1.087710335889   110.33828996    59.75943967
 H     80  73  72     1.091670566288   109.69981717   326.67217387
 H     80  73  72     1.091569213243   109.69893761   207.89367439
 H     81  80  73     1.087721608915   110.36380253   300.33904155
 H     81  80  73     1.087561498491   110.48223551   180.14187738
 H     81  80  73     1.087715178620   110.34282193    59.98783786
 H     82  68  67     1.091944693471   109.92667526   153.58228710
 H     82  68  67     1.091869969456   109.72564923    34.58826737
 H     83  82  68     1.087811263271   110.34716575   299.96693109
 H     83  82  68     1.087529580012   110.51634809   179.78683684
 H     83  82  68     1.087578118436   110.30908401    59.60225642
 H     84  50  49     1.070851658681   128.01854790    13.40649328

---------------------------
INTERNAL COORDINATES (A.U.)
---------------------------
 C      0   0   0     0.000000000000     0.00000000     0.00000000
 C      1   0   0     2.577022460348     0.00000000     0.00000000
 C      2   1   0     2.734075657149   131.98110834     0.00000000
 C      3   2   1     2.763854439420   106.97345032   205.39047117
 C      4   3   2     2.660092247105   108.68195323   348.76784252
 C      5   4   3     2.793372765446   109.56264607     3.72379920
 C      4   3   2     2.617405225584   131.40493913   170.86363200
 C      7   4   3     2.624365671182   118.42429692   177.40003537
 C      8   7   4     2.622193620661   121.45189494   359.61306984
 C      5   4   3     2.610254836399   121.42510484   182.58144971
 H      9   8   7     2.040185889867   119.62731291   180.48670723
 H      8   7   4     2.040530992430   119.08553698   179.70610916
 O      6   5   4     2.286861118964   128.03138058   181.93247419
 C      3   2   1     2.587361890559   126.67480089    36.25832927
 C     14   3   2     2.661155688454   124.12492424   181.62780764
 C     14   3   2     2.667920677630   123.29247544     5.87660103
 N     15  14   3     2.170166502991   175.94735459   144.45446190
 N     16  14   3     2.168797090922   175.08084007   114.93335521
 C      1   2   3     2.662454164235   128.84432996    10.02356338
 O     19   1   2     2.586147351792   121.12003876     1.76301578
 C     20  19   1     2.510751593500   106.14754059   176.46033270
 C     21  20  19     2.629512804761   111.81342156   358.74212487
 C     22  21  20     2.626783934481   105.99592484     1.21411756
 C     21  20  19    16.990576493216   145.85928199   189.59444123
 C     24  21  20     2.576716523908   149.16801678   331.91007481
 C     25  24  21     2.731708758175   132.61990927   347.94967740
 C     26  25  24     2.765571267661   107.11187919   160.93788349
 C     27  26  25     2.659310238174   108.74939495    10.23861610
 C     28  27  26     2.792382111395   109.46848874   357.18297794
 C     27  26  25     2.617334054912   131.39836335   189.00410255
 C     30  27  26     2.624867356038   118.42928318   181.70561676
 C     31  30  27     2.621815738048   121.46130562     0.34945838
 C     28  27  26     2.609694631122   121.48934090   178.13308277
 H     32  31  30     2.040099802160   119.64098731   179.52265349
 H     31  30  27     2.040358335118   119.05507050   180.31581196
 O     29  28  27     2.286395862768   128.00463847   177.06251564
 C     26  25  24     2.591137620445   126.74026542   329.20764949
 C     37  26  25     2.663364934046   124.08135663   183.48207262
 C     37  26  25     2.665201117786   124.19688859   359.36244279
 N     38  37  26     2.169634685524   176.43843218   204.53247322
 N     39  37  26     2.169056900315   176.03449270   217.26132779
 C     21  20  19     2.690852036807   136.56059689   179.94080957
 C     42  21  20     2.680906821415   106.00282652   177.47014213
 C     22  21  20     2.841667433849   110.12785560   179.29520416
 C     42  21  20     2.632549605287   131.70205837   357.05163410
 C     45  42  21     2.596887749875   117.10846579   177.79427144
 C     46  45  42     2.685265083004   120.57279552   357.22795933
 C     43  42  21     2.599376762246   120.40869071   185.30382124
 C     46  45  42     2.875708071730   127.81411225   178.76399609
 C     49  46  45     2.834194902824   100.24203689   170.70897420
 C     50  49  46     2.632772664017   110.45360351     8.11151364
 C     44  22  21     2.863178741316   114.84136173   120.69370756
 C     44  22  21     2.874680363971   107.08643448   245.16981332
 C     49  46  45     2.885074133900   112.82145344   280.44944905
 C     49  46  45     2.853498734464   110.95454024    46.30361061
 C     53  44  22     2.626465234404   118.54577724   282.91429794
 C     56  53  44     2.609619197648   120.53024135   177.84043411
 C     57  56  53     2.625675700494   120.82388049   359.74058859
 C     58  57  56     2.622417493256   118.34751488   359.70489561
 C     59  58  57     2.614585398304   121.09665143     0.25941740
 C     52  44  22     2.625658752310   119.95522666   160.74827429
 C     61  52  44     2.610770156170   120.48922634   177.85561577
 C     62  61  52     2.624994223197   120.92741726   359.77577728
 C     63  62  61     2.623229306231   118.34390833   359.92703493
 C     64  63  62     2.613375684110   120.95751394   359.87409223
 C     55  49  46     2.626590313554   119.60687350   275.58557799
 C     66  55  49     2.609954015569   120.45933651   177.93675676
 C     67  66  55     2.625926951599   120.83676050     0.17588640
 C     68  67  66     2.623351436607   118.45091747   359.88191979
 C     69  68  67     2.614500589674   120.93916403   359.66196313
 C     54  49  46     2.618045628123   122.67383642   351.77830590
 C     71  54  49     2.614124378224   120.15511009   185.29034410
 C     72  71  54     2.621631773959   121.13323652     0.71703572
 C     73  72  71     2.625114617486   118.39226727   358.84430512
 C     74  73  72     2.608230929236   120.73499212     0.94598427
 C     58  57  56     2.836925989468   120.83491197   182.23738030
 C     76  58  57     2.891611525670   110.32055892    89.96529108
 C     63  62  61     2.836982332455   120.70696533   177.62466791
 C     78  63  62     2.891489039349   110.37299494   272.70988805
 C     73  72  71     2.836225102211   120.78587776   180.68591398
 C     80  73  72     2.891520597370   110.53325723    87.23219124
 C     68  67  66     2.837589943809   120.54162878   177.51898393
 C     82  68  67     2.891436434780   110.39744922   274.22867380
 C     50  49  46     2.620978881147   142.71785676   176.90846304
 C     84  50  49     2.645356835188   105.85875810   190.34372823
 O     51  50  49     2.513137196250   111.57347988   174.64282735
 H      1   2   3     2.048083097276   115.66178827   182.45809411
 H      7   4   3     2.037737572462   121.37627603   356.69917033
 H     10   5   4     2.039249835861   120.10122125   179.48227947
 H     23  22  21     2.023801440933   128.85842675   179.71249444
 H     24  21  20     2.050473950778    95.06012793   150.01390248
 H     30  27  26     2.037554397495   121.45164138     2.45841624
 H     33  28  27     2.039230717505   120.10869054   180.51332715
 H     45  42  21     2.038376697968   120.87966712   357.81288777
 H     48  43  42     2.038162021236   121.96008112   177.01988733
 H     56  53  44     2.041942522684   119.50575516   357.30200350
 H     57  56  53     2.042257547135   119.58887279   179.73412482
 H     59  58  57     2.041810495037   119.56388686   180.27160006
 H     60  59  58     2.040223607292   119.52153758   180.22692925
 H     61  52  44     2.041711109859   119.70575858   357.05210658
 H     62  61  52     2.042187641542   119.53656279   179.87930965
 H     64  63  62     2.042383861236   119.56161808   180.12253236
 H     65  64  63     2.041959804725   119.63958993   180.44807767
 H     66  55  49     2.041648007267   119.71990632   357.18423491
 H     67  66  55     2.041621546925   119.46314640   180.28010813
 H     69  68  67     2.042810447522   119.56518153   179.94686083
 H     70  69  68     2.042764015435   119.85062855   180.55510668
 H     71  54  49     2.040859922412   120.27181322     5.03884238
 H     72  71  54     2.041828613934   119.30389701   179.76136279
 H     74  73  72     2.042149359283   119.65813717   179.87680431
 H     75  74  73     2.042605608763   119.93921130   179.55496145
 H     76  58  57     2.063382022000   109.88696755   329.42190905
 H     76  58  57     2.063262886754   109.82770764   210.41452636
 H     77  76  58     2.055474887793   110.35310144   300.01760223
 H     77  76  58     2.055093055746   110.49991786   179.81677306
 H     77  76  58     2.055082610350   110.32589287    59.59275394
 H     78  63  62     2.063151755583   109.87154823   152.15128472
 H     78  63  62     2.063241150747   109.81137302    33.17012324
 H     79  78  63     2.055554487745   110.33489934   300.10560642
 H     79  78  63     2.054932518786   110.50090498   179.93727327
 H     79  78  63     2.055474647866   110.33828996    59.75943967
 H     80  73  72     2.062958398747   109.69981717   326.67217387
 H     80  73  72     2.062766869249   109.69893761   207.89367439
 H     81  80  73     2.055495950797   110.36380253   300.33904155
 H     81  80  73     2.055193385945   110.48223551   180.14187738
 H     81  80  73     2.055483799301   110.34282193    59.98783786
 H     82  68  67     2.063476424049   109.92667526   153.58228710
 H     82  68  67     2.063335216125   109.72564923    34.58826737
 H     83  82  68     2.055665372978   110.34716575   299.96693109
 H     83  82  68     2.055133068760   110.51634809   179.78683684
 H     83  82  68     2.055224793089   110.30908401    59.60225642
 H     84  50  49     2.023616364963   128.01854790    13.40649328

---------------------
BASIS SET INFORMATION
---------------------
There are 4 groups of distinct atoms

 Group   1 Type C   : 7s4p1d contracted to 3s2p1d pattern {511/31/1}
 Group   2 Type H   : 4s1p contracted to 2s1p pattern {31/1}
 Group   3 Type O   : 7s4p1d contracted to 3s2p1d pattern {511/31/1}
 Group   4 Type N   : 7s4p1d contracted to 3s2p1d pattern {511/31/1}

Atom   0C    basis set group =>   1
Atom   1C    basis set group =>   1
Atom   2C    basis set group =>   1
Atom   3C    basis set group =>   1
Atom   4C    basis set group =>   1
Atom   5C    basis set group =>   1
Atom   6C    basis set group =>   1
Atom   7C    basis set group =>   1
Atom   8C    basis set group =>   1
Atom   9C    basis set group =>   1
Atom  10H    basis set group =>   2
Atom  11H    basis set group =>   2
Atom  12O    basis set group =>   3
Atom  13C    basis set group =>   1
Atom  14C    basis set group =>   1
Atom  15C    basis set group =>   1
Atom  16N    basis set group =>   4
Atom  17N    basis set group =>   4
Atom  18C    basis set group =>   1
Atom  19O    basis set group =>   3
Atom  20C    basis set group =>   1
Atom  21C    basis set group =>   1
Atom  22C    basis set group =>   1
Atom  23C    basis set group =>   1
Atom  24C    basis set group =>   1
Atom  25C    basis set group =>   1
Atom  26C    basis set group =>   1
Atom  27C    basis set group =>   1
Atom  28C    basis set group =>   1
Atom  29C    basis set group =>   1
Atom  30C    basis set group =>   1
Atom  31C    basis set group =>   1
Atom  32C    basis set group =>   1
Atom  33H    basis set group =>   2
Atom  34H    basis set group =>   2
Atom  35O    basis set group =>   3
Atom  36C    basis set group =>   1
Atom  37C    basis set group =>   1
Atom  38C    basis set group =>   1
Atom  39N    basis set group =>   4
Atom  40N    basis set group =>   4
Atom  41C    basis set group =>   1
Atom  42C    basis set group =>   1
Atom  43C    basis set group =>   1
Atom  44C    basis set group =>   1
Atom  45C    basis set group =>   1
Atom  46C    basis set group =>   1
Atom  47C    basis set group =>   1
Atom  48C    basis set group =>   1
Atom  49C    basis set group =>   1
Atom  50C    basis set group =>   1
Atom  51C    basis set group =>   1
Atom  52C    basis set group =>   1
Atom  53C    basis set group =>   1
Atom  54C    basis set group =>   1
Atom  55C    basis set group =>   1
Atom  56C    basis set group =>   1
Atom  57C    basis set group =>   1
Atom  58C    basis set group =>   1
Atom  59C    basis set group =>   1
Atom  60C    basis set group =>   1
Atom  61C    basis set group =>   1
Atom  62C    basis set group =>   1
Atom  63C    basis set group =>   1
Atom  64C    basis set group =>   1
Atom  65C    basis set group =>   1
Atom  66C    basis set group =>   1
Atom  67C    basis set group =>   1
Atom  68C    basis set group =>   1
Atom  69C    basis set group =>   1
Atom  70C    basis set group =>   1
Atom  71C    basis set group =>   1
Atom  72C    basis set group =>   1
Atom  73C    basis set group =>   1
Atom  74C    basis set group =>   1
Atom  75C    basis set group =>   1
Atom  76C    basis set group =>   1
Atom  77C    basis set group =>   1
Atom  78C    basis set group =>   1
Atom  79C    basis set group =>   1
Atom  80C    basis set group =>   1
Atom  81C    basis set group =>   1
Atom  82C    basis set group =>   1
Atom  83C    basis set group =>   1
Atom  84C    basis set group =>   1
Atom  85O    basis set group =>   3
Atom  86H    basis set group =>   2
Atom  87H    basis set group =>   2
Atom  88H    basis set group =>   2
Atom  89H    basis set group =>   2
Atom  90H    basis set group =>   2
Atom  91H    basis set group =>   2
Atom  92H    basis set group =>   2
Atom  93H    basis set group =>   2
Atom  94H    basis set group =>   2
Atom  95H    basis set group =>   2
Atom  96H    basis set group =>   2
Atom  97H    basis set group =>   2
Atom  98H    basis set group =>   2
Atom  99H    basis set group =>   2
Atom 100H    basis set group =>   2
Atom 101H    basis set group =>   2
Atom 102H    basis set group =>   2
Atom 103H    basis set group =>   2
Atom 104H    basis set group =>   2
Atom 105H    basis set group =>   2
Atom 106H    basis set group =>   2
Atom 107H    basis set group =>   2
Atom 108H    basis set group =>   2
Atom 109H    basis set group =>   2
Atom 110H    basis set group =>   2
Atom 111H    basis set group =>   2
Atom 112H    basis set group =>   2
Atom 113H    basis set group =>   2
Atom 114H    basis set group =>   2
Atom 115H    basis set group =>   2
Atom 116H    basis set group =>   2
Atom 117H    basis set group =>   2
Atom 118H    basis set group =>   2
Atom 119H    basis set group =>   2
Atom 120H    basis set group =>   2
Atom 121H    basis set group =>   2
Atom 122H    basis set group =>   2
Atom 123H    basis set group =>   2
Atom 124H    basis set group =>   2
Atom 125H    basis set group =>   2
Atom 126H    basis set group =>   2
Atom 127H    basis set group =>   2
Atom 128H    basis set group =>   2
Atom 129H    basis set group =>   2
Atom 130H    basis set group =>   2
Atom 131H    basis set group =>   2
------------------------------------------------------------------------------
                           ORCA GTO INTEGRAL CALCULATION
------------------------------------------------------------------------------

                         BASIS SET STATISTICS AND STARTUP INFO

 # of primitive gaussian shells          ... 1234
 # of primitive gaussian functions       ... 2318
 # of contracted shells                  ...  642
 # of contracted basis functions         ... 1398
 Highest angular momentum                ...    2
 Maximum contraction depth               ...    5
 Integral package used                   ... LIBINT
 Integral threshhold            Thresh   ...  2.500e-11
 Primitive cut-off              TCut     ...  2.500e-12


------------------------------ INTEGRAL EVALUATION ----------------------------


 * One electron integrals 
 Pre-screening matrix                    ... done
 Shell pair data                         ... done (   0.031 sec)

-------------------------------------------------------------------------------
                                 ORCA SCF
-------------------------------------------------------------------------------

------------
SCF SETTINGS
------------
Hamiltonian:
 Ab initio Hamiltonian  Method          .... Hartree-Fock(GTOs)


General Settings:
 Integral files         IntName         .... IDF-IC
 Hartree-Fock type      HFTyp           .... RHF
 Total Charge           Charge          ....    0
 Multiplicity           Mult            ....    1
 Number of Electrons    NEL             ....  554
 Basis Dimension        Dim             .... 1398
 Nuclear Repulsion      ENuc            ....  12763.4830705926 Eh

Convergence Acceleration:
 DIIS                   CNVDIIS         .... on
   Start iteration      DIISMaxIt       ....    12
   Startup error        DIISStart       ....  0.200000
   # of expansion vecs  DIISMaxEq       ....     5
   Bias factor          DIISBfac        ....   1.050
   Max. coefficient     DIISMaxC        ....  10.000
 Newton-Raphson         CNVNR           .... off
 SOSCF                  CNVSOSCF        .... on
   Start iteration      SOSCFMaxIt      ....   150
   Startup grad/error   SOSCFStart      ....  0.003300
 Level Shifting         CNVShift        .... on
   Level shift para.    LevelShift      ....    0.2500
   Turn off err/grad.   ShiftErr        ....    0.0010
 Zerner damping         CNVZerner       .... off
 Static damping         CNVDamp         .... on
   Fraction old density DampFac         ....    0.7000
   Max. Damping (<1)    DampMax         ....    0.9800
   Min. Damping (>=0)   DampMin         ....    0.0000
   Turn off err/grad.   DampErr         ....    0.1000
 Fernandez-Rico         CNVRico         .... off

SCF Procedure:
 Maximum # iterations   MaxIter         ....   125
 SCF integral mode      SCFMode         .... Direct
   Integral package                     .... LIBINT
 Reset frequency        DirectResetFreq ....    20
 Integral Threshold     Thresh          ....  2.500e-11 Eh
 Primitive CutOff       TCut            ....  2.500e-12 Eh

Convergence Tolerance:
 Convergence Check Mode ConvCheckMode   .... Total+1el-Energy
 Convergence forced     ConvForced      .... 1
 Energy Change          TolE            ....  1.000e-08 Eh
 1-El. energy change                    ....  1.000e-05 Eh
 Orbital Gradient       TolG            ....  1.000e-05
 Orbital Rotation angle TolX            ....  1.000e-05
 DIIS Error             TolErr          ....  5.000e-07


Diagonalization of the overlap matrix:
Smallest eigenvalue                        ... 1.851e-04
Time for diagonalization                   ...    0.649 sec
Threshold for overlap eigenvalues          ... 1.000e-08
Number of eigenvalues below threshold      ... 0
Time for construction of square roots      ...    0.243 sec
Total time needed                          ...    0.898 sec

-------------------
DFT GRID GENERATION
-------------------

General Integration Accuracy     IntAcc      ...  4.340
Radial Grid Type                 RadialGrid  ... Gauss-Chebyshev
Angular Grid (max. acc.)         AngularGrid ... Lebedev-110
Angular grid pruning method      GridPruning ... 3 (G Style)
Weight generation scheme         WeightScheme... Becke
Basis function cutoff            BFCut       ...    1.0000e-11
Integration weight cutoff        WCut        ...    1.0000e-14
Grids for H and He will be reduced by one unit

# of grid points (after initial pruning)     ... 175916 (   0.4 sec)
# of grid points (after weights+screening)   ... 151124 (  11.6 sec)
nearest neighbour list constructed           ...    0.0 sec
Grid point re-assignment to atoms done       ...    0.0 sec
Grid point division into batches done        ...    0.1 sec
Reduced shell lists constructed in    4.7 sec

Total number of grid points                  ...   151124
Total number of batches                      ...     2432
Average number of points per batch           ...       62
Average number of grid points per atom       ...     1145
Average number of shells per batch           ...   130.15 (20.27%)
Average number of basis functions per batch  ...   262.02 (18.74%)
Average number of large shells per batch     ...    72.27 (55.52%)
Average number of large basis fcns per batch ...   149.08 (56.90%)
Maximum spatial batch extension              ...  25.36, 22.44, 21.76 au
Average spatial batch extension              ...   3.17,  3.15,  3.04 au

Time for grid setup =   16.752 sec

------------------------------
INITIAL GUESS: MODEL POTENTIAL
------------------------------
Loading Hartree-Fock densities                     ... done
Calculating cut-offs                               ... done
Setting up the integral package                    ... done
Initializing the effective Hamiltonian             ... done
Starting the Coulomb interaction                   ... done (  16.9 sec)
Reading the grid                                   ... done
Mapping shells                                     ... done
Starting the XC term evaluation                    ... done (   3.3 sec)
Transforming the Hamiltonian                       ... done (   0.2 sec)
Diagonalizing the Hamiltonian                      ... done (   0.7 sec)
Back transforming the eigenvectors                 ... done (   0.1 sec)
Now organizing SCF variables                       ... done
                      ------------------
                      INITIAL GUESS DONE (  38.2 sec)
                      ------------------
--------------
SCF ITERATIONS
--------------
ITER       Energy         Delta-E        Max-DP      RMS-DP      [F,P]     Damp
               ***  Starting incremental Fock matrix formation  ***
  0  -3343.4623700075   0.000000000000 0.34072381  0.00143054  0.2389413 0.7000
  1  -3344.3129416250  -0.850571617588 0.25768892  0.00111135  0.1462269 0.7000
                               ***Turning on DIIS***
  2  -3344.8399493733  -0.527007748260 0.62393507  0.00261859  0.0833887 0.0000
  3  -3341.8409632804   2.998986092911 0.04573231  0.00042811  0.0513185 0.0000
  4  -3346.2902381318  -4.449274851453 0.03167069  0.00018098  0.0197172 0.0000
  5  -3346.2159863265   0.074251805356 0.01520636  0.00008724  0.0089542 0.0000
  6  -3345.9369183609   0.279067965635 0.00632541  0.00004749  0.0020406 0.0000
  7  -3346.0182286146  -0.081310253781 0.00334606  0.00002786  0.0012618 0.0000
  8  -3345.9721746103   0.046054004353 0.00293958  0.00003385  0.0007660 0.0000
                      *** Initiating the SOSCF procedure ***
                           *** Shutting down DIIS ***
                      *** Re-Reading the Fockian *** 
                      *** Removing any level shift *** 
ITER      Energy       Delta-E        Grad      Rot      Max-DP    RMS-DP
  9  -3345.96708800   0.0050866071  0.001026  0.001026  0.001015  0.000011
               *** Restarting incremental Fock matrix formation ***
 10  -3345.98192684  -0.0148388379  0.000245  0.000945  0.000314  0.000004
 11  -3345.98192944  -0.0000025989  0.000141  0.000968  0.000262  0.000003
 12  -3345.98193145  -0.0000020105  0.000039  0.000544  0.000186  0.000002
 13  -3345.98193177  -0.0000003199  0.000021  0.000098  0.000065  0.000001
 14  -3345.98193179  -0.0000000233  0.000009  0.000039  0.000023  0.000000
 15  -3345.98193180  -0.0000000099  0.000006  0.000054  0.000023  0.000000
 16  -3345.98193185  -0.0000000458  0.000003  0.000026  0.000010  0.000000
                  ***Gradient check signals convergence***
              ***Rediagonalizing the Fockian in SOSCF/NRSCF***

               *****************************************************
               *                     SUCCESS                       *
               *           SCF CONVERGED AFTER  17 CYCLES          *
               *****************************************************


----------------
TOTAL SCF ENERGY
----------------

Total Energy       :        -3345.98193189 Eh          -91048.79720 eV

Components:
Nuclear Repulsion  :        12763.48307059 Eh          347312.03135 eV
Electronic Energy  :       -16109.46500248 Eh         -438360.82855 eV
One Electron Energy:       -29983.54238612 Eh         -815893.66756 eV
Two Electron Energy:        13874.07738364 Eh          377532.83901 eV

Virial components:
Potential Energy   :        -6678.41287461 Eh         -181728.85323 eV
Kinetic Energy     :         3332.43094272 Eh           90680.05604 eV
Virial Ratio       :            2.00406640


---------------
SCF CONVERGENCE
---------------

  Last Energy change         ...   -3.6738e-08  Tolerance :   1.0000e-08
  Last MAX-Density change    ...    6.3930e-06  Tolerance :   1.0000e-07
  Last RMS-Density change    ...    6.2156e-08  Tolerance :   5.0000e-09
  Last Orbital Gradient      ...    1.7090e-06  Tolerance :   1.0000e-05
  Last Orbital Rotation      ...    1.8100e-05  Tolerance :   1.0000e-05

             **** THE GBW FILE WAS UPDATED (IDF-IC.gbw) ****
             **** DENSITY FILE WAS UPDATED (IDF-IC.scfp) ****
             **** ENERGY FILE WAS UPDATED (IDF-IC.en.tmp) ****
             **** THE GBW FILE WAS UPDATED (IDF-IC.gbw) ****
             **** DENSITY FILE WAS UPDATED (IDF-IC.scfp) ****
----------------
ORBITAL ENERGIES
----------------

  NO   OCC          E(Eh)            E(eV) 
   0   2.0000     -20.657700      -562.1246 
   1   2.0000     -20.655634      -562.0684 
   2   2.0000     -20.553543      -559.2903 
   3   2.0000     -20.552636      -559.2657 
   4   2.0000     -15.582490      -424.0211 
   5   2.0000     -15.581514      -423.9945 
   6   2.0000     -15.579002      -423.9262 
   7   2.0000     -15.570932      -423.7066 
   8   2.0000     -11.351257      -308.8834 
   9   2.0000     -11.350427      -308.8608 
  10   2.0000     -11.332686      -308.3781 
  11   2.0000     -11.331268      -308.3395 
  12   2.0000     -11.327979      -308.2500 
  13   2.0000     -11.326083      -308.1984 
  14   2.0000     -11.324244      -308.1483 
  15   2.0000     -11.319341      -308.0149 
  16   2.0000     -11.312061      -307.8168 
  17   2.0000     -11.307723      -307.6988 
  18   2.0000     -11.307452      -307.6914 
  19   2.0000     -11.306580      -307.6677 
  20   2.0000     -11.293909      -307.3229 
  21   2.0000     -11.292716      -307.2904 
  22   2.0000     -11.286791      -307.1292 
  23   2.0000     -11.286407      -307.1187 
  24   2.0000     -11.283746      -307.0463 
  25   2.0000     -11.283415      -307.0373 
  26   2.0000     -11.282503      -307.0125 
  27   2.0000     -11.281445      -306.9837 
  28   2.0000     -11.279618      -306.9340 
  29   2.0000     -11.277702      -306.8819 
  30   2.0000     -11.276405      -306.8466 
  31   2.0000     -11.276094      -306.8381 
  32   2.0000     -11.272269      -306.7340 
  33   2.0000     -11.272106      -306.7296 
  34   2.0000     -11.271793      -306.7211 
  35   2.0000     -11.270721      -306.6919 
  36   2.0000     -11.270368      -306.6823 
  37   2.0000     -11.270129      -306.6758 
  38   2.0000     -11.269694      -306.6640 
  39   2.0000     -11.269618      -306.6619 
  40   2.0000     -11.269064      -306.6468 
  41   2.0000     -11.267894      -306.6150 
  42   2.0000     -11.267669      -306.6089 
  43   2.0000     -11.266033      -306.5643 
  44   2.0000     -11.265974      -306.5627 
  45   2.0000     -11.265035      -306.5372 
  46   2.0000     -11.264970      -306.5354 
  47   2.0000     -11.263885      -306.5059 
  48   2.0000     -11.255922      -306.2892 
  49   2.0000     -11.252365      -306.1924 
  50   2.0000     -11.251804      -306.1772 
  51   2.0000     -11.250131      -306.1316 
  52   2.0000     -11.245266      -305.9992 
  53   2.0000     -11.244098      -305.9675 
  54   2.0000     -11.243119      -305.9408 
  55   2.0000     -11.242234      -305.9167 
  56   2.0000     -11.240379      -305.8663 
  57   2.0000     -11.240000      -305.8559 
  58   2.0000     -11.239640      -305.8462 
  59   2.0000     -11.239614      -305.8454 
  60   2.0000     -11.239467      -305.8414 
  61   2.0000     -11.238456      -305.8139 
  62   2.0000     -11.238334      -305.8106 
  63   2.0000     -11.238093      -305.8041 
  64   2.0000     -11.236737      -305.7672 
  65   2.0000     -11.236334      -305.7562 
  66   2.0000     -11.235095      -305.7225 
  67   2.0000     -11.234441      -305.7047 
  68   2.0000     -11.234376      -305.7029 
  69   2.0000     -11.232374      -305.6484 
  70   2.0000     -11.231758      -305.6317 
  71   2.0000     -11.231531      -305.6255 
  72   2.0000     -11.228043      -305.5306 
  73   2.0000     -11.227620      -305.5191 
  74   2.0000     -11.227138      -305.5060 
  75   2.0000     -11.226797      -305.4967 
  76   2.0000     -11.223922      -305.4184 
  77   2.0000     -11.222900      -305.3906 
  78   2.0000     -11.222511      -305.3801 
  79   2.0000     -11.220826      -305.3342 
  80   2.0000     -11.219373      -305.2946 
  81   2.0000     -11.211572      -305.0824 
  82   2.0000      -1.496147       -40.7122 
  83   2.0000      -1.490202       -40.5505 
  84   2.0000      -1.385691       -37.7066 
  85   2.0000      -1.384745       -37.6808 
  86   2.0000      -1.241641       -33.7868 
  87   2.0000      -1.238201       -33.6932 
  88   2.0000      -1.228556       -33.4307 
  89   2.0000      -1.217159       -33.1206 
  90   2.0000      -1.214687       -33.0533 
  91   2.0000      -1.214505       -33.0484 
  92   2.0000      -1.210525       -32.9401 
  93   2.0000      -1.204479       -32.7755 
  94   2.0000      -1.166831       -31.7511 
  95   2.0000      -1.158478       -31.5238 
  96   2.0000      -1.156495       -31.4698 
  97   2.0000      -1.154993       -31.4290 
  98   2.0000      -1.153047       -31.3760 
  99   2.0000      -1.146672       -31.2025 
 100   2.0000      -1.128747       -30.7148 
 101   2.0000      -1.115748       -30.3610 
 102   2.0000      -1.103928       -30.0394 
 103   2.0000      -1.091785       -29.7090 
 104   2.0000      -1.087583       -29.5946 
 105   2.0000      -1.084454       -29.5095 
 106   2.0000      -1.079961       -29.3872 
 107   2.0000      -1.063867       -28.9493 
 108   2.0000      -1.062982       -28.9252 
 109   2.0000      -1.055835       -28.7307 
 110   2.0000      -1.049683       -28.5633 
 111   2.0000      -1.046806       -28.4850 
 112   2.0000      -1.044717       -28.4282 
 113   2.0000      -1.030331       -28.0367 
 114   2.0000      -1.019374       -27.7386 
 115   2.0000      -1.016831       -27.6694 
 116   2.0000      -1.013846       -27.5881 
 117   2.0000      -1.010929       -27.5088 
 118   2.0000      -1.004621       -27.3371 
 119   2.0000      -0.999099       -27.1869 
 120   2.0000      -0.991227       -26.9727 
 121   2.0000      -0.980035       -26.6681 
 122   2.0000      -0.972333       -26.4585 
 123   2.0000      -0.962543       -26.1921 
 124   2.0000      -0.943977       -25.6869 
 125   2.0000      -0.931834       -25.3565 
 126   2.0000      -0.924710       -25.1627 
 127   2.0000      -0.923244       -25.1228 
 128   2.0000      -0.914520       -24.8854 
 129   2.0000      -0.890046       -24.2194 
 130   2.0000      -0.867232       -23.5986 
 131   2.0000      -0.862252       -23.4631 
 132   2.0000      -0.861742       -23.4492 
 133   2.0000      -0.853794       -23.2329 
 134   2.0000      -0.848963       -23.1015 
 135   2.0000      -0.843895       -22.9636 
 136   2.0000      -0.838790       -22.8246 
 137   2.0000      -0.837291       -22.7838 
 138   2.0000      -0.834745       -22.7146 
 139   2.0000      -0.830232       -22.5918 
 140   2.0000      -0.826671       -22.4949 
 141   2.0000      -0.826200       -22.4821 
 142   2.0000      -0.820387       -22.3239 
 143   2.0000      -0.815481       -22.1904 
 144   2.0000      -0.807022       -21.9602 
 145   2.0000      -0.805446       -21.9173 
 146   2.0000      -0.798946       -21.7404 
 147   2.0000      -0.792893       -21.5757 
 148   2.0000      -0.788329       -21.4515 
 149   2.0000      -0.785073       -21.3629 
 150   2.0000      -0.780266       -21.2321 
 151   2.0000      -0.776265       -21.1232 
 152   2.0000      -0.769776       -20.9467 
 153   2.0000      -0.760261       -20.6877 
 154   2.0000      -0.751014       -20.4361 
 155   2.0000      -0.740679       -20.1549 
 156   2.0000      -0.734150       -19.9772 
 157   2.0000      -0.727566       -19.7981 
 158   2.0000      -0.723432       -19.6856 
 159   2.0000      -0.709889       -19.3171 
 160   2.0000      -0.706292       -19.2192 
 161   2.0000      -0.700281       -19.0556 
 162   2.0000      -0.697027       -18.9671 
 163   2.0000      -0.691362       -18.8129 
 164   2.0000      -0.686988       -18.6939 
 165   2.0000      -0.685785       -18.6612 
 166   2.0000      -0.683163       -18.5898 
 167   2.0000      -0.676207       -18.4005 
 168   2.0000      -0.670862       -18.2551 
 169   2.0000      -0.664085       -18.0707 
 170   2.0000      -0.662578       -18.0297 
 171   2.0000      -0.662077       -18.0160 
 172   2.0000      -0.661686       -18.0054 
 173   2.0000      -0.654951       -17.8221 
 174   2.0000      -0.653597       -17.7853 
 175   2.0000      -0.650036       -17.6884 
 176   2.0000      -0.640944       -17.4410 
 177   2.0000      -0.639342       -17.3974 
 178   2.0000      -0.637360       -17.3435 
 179   2.0000      -0.636289       -17.3143 
 180   2.0000      -0.635847       -17.3023 
 181   2.0000      -0.633120       -17.2281 
 182   2.0000      -0.631871       -17.1941 
 183   2.0000      -0.628140       -17.0926 
 184   2.0000      -0.625451       -17.0194 
 185   2.0000      -0.623477       -16.9657 
 186   2.0000      -0.620827       -16.8936 
 187   2.0000      -0.617474       -16.8023 
 188   2.0000      -0.612740       -16.6735 
 189   2.0000      -0.609987       -16.5986 
 190   2.0000      -0.607836       -16.5401 
 191   2.0000      -0.606042       -16.4913 
 192   2.0000      -0.602901       -16.4058 
 193   2.0000      -0.601693       -16.3729 
 194   2.0000      -0.600296       -16.3349 
 195   2.0000      -0.599388       -16.3102 
 196   2.0000      -0.597295       -16.2532 
 197   2.0000      -0.596693       -16.2368 
 198   2.0000      -0.594317       -16.1722 
 199   2.0000      -0.591855       -16.1052 
 200   2.0000      -0.589481       -16.0406 
 201   2.0000      -0.588037       -16.0013 
 202   2.0000      -0.586629       -15.9630 
 203   2.0000      -0.585283       -15.9264 
 204   2.0000      -0.579037       -15.7564 
 205   2.0000      -0.573425       -15.6037 
 206   2.0000      -0.572096       -15.5675 
 207   2.0000      -0.569069       -15.4852 
 208   2.0000      -0.567810       -15.4509 
 209   2.0000      -0.566286       -15.4094 
 210   2.0000      -0.564447       -15.3594 
 211   2.0000      -0.562947       -15.3186 
 212   2.0000      -0.560408       -15.2495 
 213   2.0000      -0.558055       -15.1855 
 214   2.0000      -0.557125       -15.1601 
 215   2.0000      -0.555761       -15.1230 
 216   2.0000      -0.550288       -14.9741 
 217   2.0000      -0.547989       -14.9115 
 218   2.0000      -0.545527       -14.8445 
 219   2.0000      -0.540058       -14.6957 
 220   2.0000      -0.538822       -14.6621 
 221   2.0000      -0.537721       -14.6321 
 222   2.0000      -0.536396       -14.5961 
 223   2.0000      -0.535287       -14.5659 
 224   2.0000      -0.529944       -14.4205 
 225   2.0000      -0.526102       -14.3160 
 226   2.0000      -0.524647       -14.2764 
 227   2.0000      -0.522825       -14.2268 
 228   2.0000      -0.520724       -14.1696 
 229   2.0000      -0.519467       -14.1354 
 230   2.0000      -0.512438       -13.9441 
 231   2.0000      -0.509991       -13.8776 
 232   2.0000      -0.506473       -13.7818 
 233   2.0000      -0.502271       -13.6675 
 234   2.0000      -0.500591       -13.6218 
 235   2.0000      -0.497680       -13.5426 
 236   2.0000      -0.496368       -13.5069 
 237   2.0000      -0.493261       -13.4223 
 238   2.0000      -0.491121       -13.3641 
 239   2.0000      -0.490145       -13.3375 
 240   2.0000      -0.488675       -13.2975 
 241   2.0000      -0.487300       -13.2601 
 242   2.0000      -0.485725       -13.2173 
 243   2.0000      -0.485081       -13.1997 
 244   2.0000      -0.483653       -13.1609 
 245   2.0000      -0.482892       -13.1402 
 246   2.0000      -0.480877       -13.0853 
 247   2.0000      -0.479853       -13.0575 
 248   2.0000      -0.478703       -13.0262 
 249   2.0000      -0.474130       -12.9017 
 250   2.0000      -0.473344       -12.8803 
 251   2.0000      -0.471244       -12.8232 
 252   2.0000      -0.469424       -12.7737 
 253   2.0000      -0.463162       -12.6033 
 254   2.0000      -0.462169       -12.5763 
 255   2.0000      -0.441591       -12.0163 
 256   2.0000      -0.439327       -11.9547 
 257   2.0000      -0.434244       -11.8164 
 258   2.0000      -0.427130       -11.6228 
 259   2.0000      -0.413357       -11.2480 
 260   2.0000      -0.399856       -10.8806 
 261   2.0000      -0.375381       -10.2146 
 262   2.0000      -0.371510       -10.1093 
 263   2.0000      -0.369363       -10.0509 
 264   2.0000      -0.368134       -10.0174 
 265   2.0000      -0.353132        -9.6092 
 266   2.0000      -0.346528        -9.4295 
 267   2.0000      -0.344962        -9.3869 
 268   2.0000      -0.343902        -9.3580 
 269   2.0000      -0.342177        -9.3111 
 270   2.0000      -0.334827        -9.1111 
 271   2.0000      -0.332595        -9.0504 
 272   2.0000      -0.327246        -8.9048 
 273   2.0000      -0.320603        -8.7241 
 274   2.0000      -0.311320        -8.4714 
 275   2.0000      -0.302943        -8.2435 
 276   2.0000      -0.259134        -7.0514 
 277   0.0000      -0.021498        -0.5850 
 278   0.0000       0.000355         0.0097 
 279   0.0000       0.027439         0.7467 
 280   0.0000       0.035969         0.9788 
 281   0.0000       0.069106         1.8805 
 282   0.0000       0.095275         2.5926 
 283   0.0000       0.102314         2.7841 
 284   0.0000       0.110128         2.9967 
 285   0.0000       0.116354         3.1662 
 286   0.0000       0.119423         3.2497 
 287   0.0000       0.124530         3.3886 
 288   0.0000       0.128112         3.4861 
 289   0.0000       0.129880         3.5342 
 290   0.0000       0.137781         3.7492 
 291   0.0000       0.141681         3.8553 
 292   0.0000       0.148574         4.0429 
 293   0.0000       0.152037         4.1371 
 294   0.0000       0.157141         4.2760 
 295   0.0000       0.159449         4.3388 
 296   0.0000       0.163149         4.4395 
 297   0.0000       0.167701         4.5634 
 298   0.0000       0.174295         4.7428 
 299   0.0000       0.177602         4.8328 
 300   0.0000       0.178034         4.8446 
 301   0.0000       0.180157         4.9023 
 302   0.0000       0.181309         4.9337 
 303   0.0000       0.183722         4.9993 
 304   0.0000       0.184061         5.0086 
 305   0.0000       0.189325         5.1518 
 306   0.0000       0.194465         5.2917 
 307   0.0000       0.195277         5.3138 
 308   0.0000       0.198532         5.4023 
 309   0.0000       0.202299         5.5048 
 310   0.0000       0.205649         5.5960 
 311   0.0000       0.208718         5.6795 
 312   0.0000       0.210726         5.7341 
 313   0.0000       0.214765         5.8440 
 314   0.0000       0.217204         5.9104 
 315   0.0000       0.219265         5.9665 
 316   0.0000       0.219857         5.9826 
 317   0.0000       0.221947         6.0395 
 318   0.0000       0.223701         6.0872 
 319   0.0000       0.225073         6.1245 
 320   0.0000       0.227156         6.1812 
 321   0.0000       0.228284         6.2119 
 322   0.0000       0.228617         6.2210 
 323   0.0000       0.230396         6.2694 
 324   0.0000       0.231032         6.2867 
 325   0.0000       0.233606         6.3567 
 326   0.0000       0.238100         6.4790 
 327   0.0000       0.240704         6.5499 
 328   0.0000       0.241530         6.5724 
 329   0.0000       0.245083         6.6690 
 330   0.0000       0.245982         6.6935 
 331   0.0000       0.248129         6.7519 
 332   0.0000       0.250884         6.8269 
 333   0.0000       0.251761         6.8508 
 334   0.0000       0.253646         6.9021 
 335   0.0000       0.255133         6.9425 
 336   0.0000       0.259160         7.0521 
 337   0.0000       0.262681         7.1479 
 338   0.0000       0.264210         7.1895 
 339   0.0000       0.265973         7.2375 
 340   0.0000       0.273874         7.4525 
 341   0.0000       0.274814         7.4781 
 342   0.0000       0.275294         7.4911 
 343   0.0000       0.277905         7.5622 
 344   0.0000       0.279921         7.6170 
 345   0.0000       0.282701         7.6927 
 346   0.0000       0.284538         7.7427 
 347   0.0000       0.285440         7.7672 
 348   0.0000       0.286851         7.8056 
 349   0.0000       0.290582         7.9071 
 350   0.0000       0.292725         7.9655 
 351   0.0000       0.293819         7.9952 
 352   0.0000       0.295097         8.0300 
 353   0.0000       0.297583         8.0976 
 354   0.0000       0.299830         8.1588 
 355   0.0000       0.302838         8.2406 
 356   0.0000       0.305060         8.3011 
 357   0.0000       0.310080         8.4377 
 358   0.0000       0.312506         8.5037 
 359   0.0000       0.317872         8.6497 
 360   0.0000       0.322759         8.7827 
 361   0.0000       0.326849         8.8940 
 362   0.0000       0.329503         8.9662 
 363   0.0000       0.337370         9.1803 
 364   0.0000       0.339339         9.2339 
 365   0.0000       0.340857         9.2752 
 366   0.0000       0.343569         9.3490 
 367   0.0000       0.345518         9.4020 
 368   0.0000       0.346705         9.4343 
 369   0.0000       0.348156         9.4738 
 370   0.0000       0.353869         9.6293 
 371   0.0000       0.355748         9.6804 
 372   0.0000       0.357847         9.7375 
 373   0.0000       0.359828         9.7914 
 374   0.0000       0.363350         9.8872 
 375   0.0000       0.365107         9.9351 
 376   0.0000       0.367617        10.0034 
 377   0.0000       0.369494        10.0544 
 378   0.0000       0.373781        10.1711 
 379   0.0000       0.375826        10.2267 
 380   0.0000       0.376024        10.2321 
 381   0.0000       0.382058        10.3963 
 382   0.0000       0.383653        10.4397 
 383   0.0000       0.384638        10.4665 
[...]
   Lowest Energy          :     0.097112903605
   Maximum Energy change  :     0.000005207795 (vector 2)
   Maximum residual norm  :     0.000001133082

                       ****Iteration   12****
   Time for densities:     1.848
   Using LibInt in JK Direct
   Time for J+K (Direct):  2510.444
   Time for Sigma-Completion:    25.032
   Size of expansion space: 18
   Lowest Energy          :     0.097112903372
   Maximum Energy change  :     0.000003960433 (vector 2)
   Maximum residual norm  :     0.000000644509

                       ****Iteration   13****
   Time for densities:     1.831
   Using LibInt in JK Direct
   Time for J+K (Direct):  2572.102
   Time for Sigma-Completion:    25.013
   Size of expansion space: 21
   Lowest Energy          :     0.097112903339
   Maximum Energy change  :     0.000001981123 (vector 2)
   Maximum residual norm  :     0.000000327557

                       ****Iteration   14****
   Time for densities:     1.828
   Using LibInt in JK Direct
   Time for J+K (Direct):  2544.404
   Time for Sigma-Completion:    25.098
   Size of expansion space: 24
   Lowest Energy          :     0.097112903335
   Maximum Energy change  :     0.000000655349 (vector 2)
   Maximum residual norm  :     0.000000056969

      *** CONVERGENCE OF RESIDUAL NORM REACHED ***

Storing the converged CI vectors               ... IDF-IC.cis1

                 *** DAVIDSON DONE ***

Total time for solving the CIS problem: 46805.896sec

-----------------------------
CIS-EXCITED STATES (SINGLETS)
-----------------------------

the weight of the individual excitations are printed if larger than 1.0e-02

STATE  1:  E=   0.097113 au      2.643 eV    21313.8 cm**-1
   274a -> 278a  :     0.018362 (c=  0.13550487)
   275a -> 278a  :     0.125793 (c=  0.35467363)
   276a -> 277a  :     0.733989 (c= -0.85673166)
   276a -> 279a  :     0.010173 (c= -0.10086118)
   276a -> 281a  :     0.010391 (c=  0.10193784)

STATE  2:  E=   0.120920 au      3.290 eV    26538.8 cm**-1
   261a -> 278a  :     0.016496 (c=  0.12843837)
   274a -> 277a  :     0.042408 (c=  0.20593270)
   275a -> 277a  :     0.302511 (c=  0.55000957)
   276a -> 278a  :     0.468492 (c= -0.68446495)
   276a -> 280a  :     0.015056 (c= -0.12270323)
   276a -> 283a  :     0.012915 (c= -0.11364395)

STATE  3:  E=   0.161058 au      4.383 eV    35348.1 cm**-1
   261a -> 277a  :     0.024478 (c= -0.15645293)
   263a -> 277a  :     0.011150 (c= -0.10559310)
   263a -> 279a  :     0.010953 (c=  0.10465835)
   272a -> 277a  :     0.011357 (c=  0.10657086)
   274a -> 278a  :     0.020597 (c= -0.14351549)
   275a -> 277a  :     0.010261 (c= -0.10129668)
   275a -> 278a  :     0.129118 (c= -0.35933002)
   275a -> 280a  :     0.046995 (c=  0.21678249)
   276a -> 279a  :     0.425309 (c= -0.65215749)
   276a -> 281a  :     0.084146 (c=  0.29007976)
   276a -> 285a  :     0.010058 (c= -0.10028711)


----------------------
CIS-EXCITATION SPECTRA
----------------------

Center of mass = ( 13.1491,  0.0214, -4.9532)
Calculating the Dipole integrals                  ... done
Transforming integrals                            ... done
Calculating the Linear Momentum integrals         ... done
Transforming integrals                            ... done
Calculating angular momentum integrals            ... done
Transforming integrals                            ... done

-----------------------------------------------------------------------------
         ABSORPTION SPECTRUM VIA TRANSITION ELECTRIC DIPOLE MOMENTS
-----------------------------------------------------------------------------
State   Energy    Wavelength  fosc         T2        TX        TY        TZ  
        (cm-1)      (nm)                 (au**2)    (au)      (au)      (au) 
-----------------------------------------------------------------------------
   1   21313.8    469.2   1.545554946  23.87255   3.40827   3.16320  -1.50015
   2   26538.8    376.8   0.282231931   3.50107   0.16534   0.39020   1.82249
   3   35348.1    282.9   0.407216653   3.79258   0.88659   1.16018  -1.28861

-----------------------------------------------------------------------------
         ABSORPTION SPECTRUM VIA TRANSITION VELOCITY DIPOLE MOMENTS
-----------------------------------------------------------------------------
State   Energy    Wavelength   fosc        P2         PX        PY        PZ  
        (cm-1)      (nm)                 (au**2)     (au)      (au)      (au) 
-----------------------------------------------------------------------------
   1   21313.8    469.2   0.607268996   0.08846  -0.20366  -0.18705   0.10953
   2   26538.8    376.8   0.072710305   0.01319  -0.05754   0.04417  -0.08903
   3   35348.1    282.9   0.061182517   0.01478  -0.03543  -0.03847   0.10975

-------------------------------------------------------------------
                             CD SPECTRUM
-------------------------------------------------------------------
State  Energy     Wavelength     R         MX        MY        MZ   
       (cm-1)       (nm)     (1e40*cgs)   (au)      (au)      (au)  
-------------------------------------------------------------------
   1   21313.8    469.2    -84.65260  -1.28118   1.31013  -0.02856
   2   26538.8    376.8    426.66282  -0.37052   0.73792   0.37220
   3   35348.1    282.9    -404.43127   0.00842  -0.28570   0.41428

Total run time:    46940.678 sec

           *** ORCA-CIS/TD-DFT FINISHED WITHOUT ERROR ***

-----------------------
CIS/TD-DFT TOTAL ENERGY
-----------------------

    E(SCF)  =  -3345.981931886 Eh
    DE(CIS) =      0.097112903 Eh (Root  1)
    ----------------------------- ---------
    E(tot)  =  -3345.884818983 Eh


-------------------------   --------------------
FINAL SINGLE POINT ENERGY     -3345.884818982879
-------------------------   --------------------

------------------------------------------------------------------------------
                         ORCA SCF GRADIENT CALCULATION
------------------------------------------------------------------------------


------------
CIS GRADIENT
------------

Reference wavefunction             ... RHF
State of interest                  ... 1
Basis dimension                    ... 1398
DFT-XC contribution needed         ... NO
RI-approximation                   ... OFF
CIS-vectors being read from        ... IDF-IC.cis

 => Number of Vectors found: 3
 => Orbital Window: 82...276 -> 277...1397

Reading the CIS file                     ... done
Norm of the CI vector                    ... 1.000000000
Making the CIS (pseudo)densities         ... done
Making operators G(D) and Q(T)           ... done
Transforming the Fock operators          ... done
Making the frozen-core relaxed density   ... done
Constructing the G(H) operator           ... done
Transforming the G(H) operator           ... done
Calculating the CIS Lagrangian           ... done
Solving the Z-vector equations           ... done
Finalizing the relaxed density           ... done
Storing the relaxed density              ... done
Constructing the G(Z) operator           ... done
Transforming the G(Z) operator           ... done
Making the W-matrix                      ... done
Finalizing the W-matrix                  ... done
Transforming the W-matrix                ... done
Nuclear repulsion gradient               ... done
One-Electron gradient                    ... done
Prescreening matrices                    ... done
Two-Electron gradient (4-center)         ... done
                 ---------------------------
                 EXCITED STATE GRADIENT DONE
                 ---------------------------


------------------
CARTESIAN GRADIENT
------------------

   1   C   :   -0.008115724   -0.004430578   -0.001688860
   2   C   :    0.003057565    0.000248375   -0.001028825
   3   C   :   -0.018496721    0.005181539    0.001106613
   4   C   :    0.020365623    0.003217816   -0.003985698
   5   C   :    0.003830991   -0.001701327    0.012315438
   6   C   :    0.007921596    0.009165216   -0.036470245
   7   C   :   -0.003083389   -0.001714036    0.001301643
   8   C   :    0.001943189   -0.000004304    0.000533804
   9   C   :    0.001998648   -0.000055774    0.001123869
  10   C   :   -0.003762157    0.001211307   -0.003614741
  11   H   :    0.001669723   -0.000000450    0.000322671
  12   H   :    0.000679527   -0.000269363    0.001370333
  13   O   :   -0.010802581   -0.011583534    0.035736784
  14   C   :    0.015136060   -0.003430449   -0.013823377
  15   C   :   -0.000263144   -0.009089134    0.056638764
  16   C   :   -0.048670395    0.023796206   -0.016633443
  17   N   :    0.002725149    0.005141579   -0.031284961
  18   N   :    0.028719905   -0.009890003    0.010690180
  19   C   :   -0.000220716   -0.000823479   -0.003396867
  20   O   :   -0.008163674   -0.013641428   -0.014206678
  21   C   :   -0.001660680    0.000868696   -0.013253867
  22   C   :    0.012768612    0.003468601    0.018191806
  23   C   :   -0.000471980   -0.002308568    0.011173049
  24   C   :    0.009552641    0.012039745   -0.016321639
  25   C   :   -0.001443337   -0.005402936    0.008452260
  26   C   :   -0.004395524    0.013140379   -0.010920070
  27   C   :   -0.004981497   -0.020460447    0.000511024
  28   C   :   -0.002048896   -0.001239574    0.013088329
  29   C   :   -0.001252039   -0.016792055   -0.034259130
  30   C   :    0.002128045    0.003577934    0.000456144
  31   C   :   -0.000535033   -0.002404368    0.000781003
  32   C   :   -0.000366474   -0.001434006    0.002314413
  33   C   :    0.000153317    0.003393404   -0.005135135
  34   H   :   -0.000248700   -0.001557521    0.000744145
  35   H   :   -0.000140496   -0.000330465    0.001572685
  36   O   :    0.005469800    0.019023359    0.033874957
  37   C   :    0.006634400   -0.012937979   -0.005407124
  38   C   :   -0.006224508    0.012976255    0.054107821
  39   C   :   -0.009569931    0.045704333   -0.030684766
  40   N   :    0.003454502   -0.009697139   -0.029554832
  41   N   :   -0.002456032   -0.027522353    0.017307879
  42   C   :    0.010321698    0.012166347   -0.005830606
  43   C   :   -0.007163280   -0.010149202    0.005431805
  44   C   :   -0.002591761    0.000767810   -0.005312203
  45   C   :   -0.005915263   -0.009044949    0.011976359
  46   C   :    0.009823007    0.007389163   -0.005004175
  47   C   :   -0.011519409   -0.013722118    0.006749302
  48   C   :    0.006702040    0.009318742   -0.012913563
  49   C   :   -0.002148044    0.003401942    0.006730255
  50   C   :   -0.010391765   -0.012612216   -0.015672240
  51   C   :    0.004910492   -0.000765308    0.012251049
  52   C   :    0.004191647   -0.003103600   -0.003603273
  53   C   :   -0.005005173    0.002618044    0.002075256
  54   C   :   -0.002085178    0.006153519   -0.000382779
  55   C   :    0.004138087   -0.005626402    0.001607573
  56   C   :   -0.001456360    0.002714594   -0.000671312
  57   C   :    0.002494162   -0.000956993   -0.001090971
  58   C   :   -0.003217463   -0.003723126    0.001424052
  59   C   :   -0.001906295    0.001557477   -0.001586186
  60   C   :    0.001336377   -0.000829790   -0.000161123
  61   C   :   -0.000345965   -0.001144819   -0.001337982
  62   C   :   -0.001138321   -0.000667933    0.001425966
  63   C   :    0.001147513   -0.002294737    0.003597441
  64   C   :    0.000373063   -0.002071448   -0.000216371
  65   C   :   -0.000049544    0.001316489   -0.000049999
  66   C   :    0.001047735    0.000143558    0.001230787
  67   C   :    0.000056627    0.001391826   -0.001327374
  68   C   :    0.001566200   -0.001110141   -0.004135297
  69   C   :    0.002368402   -0.000542037    0.000001744
  70   C   :   -0.001666564    0.000493031   -0.000225653
  71   C   :    0.002254768   -0.000827844    0.000127452
  72   C   :   -0.002488421    0.000667508    0.001806023
  73   C   :   -0.002511395   -0.000502338   -0.003706425
  74   C   :    0.001642398   -0.002887708    0.000159204
  75   C   :   -0.000500436    0.002909890    0.002189170
  76   C   :    0.001290792    0.006869420    0.001006015
  77   C   :   -0.004164361   -0.002243216   -0.002123600
  78   C   :    0.000704421    0.002058588   -0.006929366
  79   C   :    0.000247418   -0.004880871    0.002163556
  80   C   :    0.003256632    0.005759249    0.003385631
  81   C   :   -0.005072951   -0.001764181   -0.000090461
  82   C   :   -0.000877944   -0.001456947    0.006935050
  83   C   :    0.004364509    0.000112977   -0.002987790
  84   C   :    0.012922051    0.002645087   -0.011110673
  85   C   :   -0.002227601   -0.008482310   -0.000143563
  86   O   :    0.007148970    0.009469555    0.002110405
  87   H   :   -0.000500386   -0.000210349    0.000932488
  88   H   :    0.001928642    0.000557727    0.000368913
  89   H   :    0.000984547    0.000529224   -0.001190298
  90   H   :    0.001456000    0.002288813   -0.004625246
  91   H   :   -0.000610473    0.000911251    0.000774645
  92   H   :   -0.000883364   -0.001711417    0.000663673
  93   H   :   -0.000423850   -0.001216973   -0.001020720
  94   H   :    0.000206899   -0.000124646   -0.000031938
  95   H   :   -0.000216204   -0.000397737   -0.000259838
  96   H   :   -0.000598094    0.000320070   -0.001747943
  97   H   :    0.000163982    0.000192262   -0.001805243
  98   H   :   -0.001270944    0.000233931    0.001299863
  99   H   :   -0.001430543    0.001233595   -0.000679032
 100   H   :   -0.000315357   -0.000986045   -0.001305012
 101   H   :   -0.001685224   -0.000595342   -0.000476921
 102   H   :    0.001676276   -0.000465074    0.000042249
 103   H   :    0.000619938   -0.001004490   -0.000645448
 104   H   :    0.001171066    0.000490780    0.001202725
 105   H   :    0.000561356    0.001906486    0.000439031
 106   H   :    0.000503828   -0.001527541   -0.000322887
 107   H   :    0.000981634   -0.000811604    0.000283405
 108   H   :   -0.001251021    0.001218263    0.000970917
 109   H   :   -0.000828625    0.001280121   -0.001002818
 110   H   :   -0.000274587   -0.000769154    0.001530123
 111   H   :   -0.000369027    0.000162839    0.001789273
 112   H   :   -0.002229132   -0.001093789    0.000938385
 113   H   :   -0.000612556   -0.000912050   -0.002403571
 114   H   :    0.001931169    0.002061215   -0.000554355
 115   H   :   -0.001239946    0.003468343   -0.000463431
 116   H   :    0.000708901    0.002017777    0.001933720
 117   H   :   -0.001824200   -0.001720617    0.000726415
 118   H   :    0.001852388   -0.001481076    0.001184544
 119   H   :    0.001512713    0.001668512   -0.001777165
 120   H   :    0.000520777   -0.001201030   -0.003548447
 121   H   :   -0.001290285    0.001396722   -0.002197346
 122   H   :   -0.001452305   -0.001740327    0.001320607
 123   H   :   -0.002066172    0.000396505   -0.001645732
 124   H   :    0.001622876    0.002398028   -0.000375016
 125   H   :   -0.000623347    0.003001655    0.002298168
 126   H   :    0.002142684    0.000739452    0.001893660
 127   H   :    0.001468138    0.001942769   -0.000794275
 128   H   :    0.001330078   -0.001652444   -0.001593862
 129   H   :   -0.001324468   -0.001734875    0.001807134
 130   H   :    0.001824324   -0.000811572    0.003215738
 131   H   :   -0.001002800    0.000985153    0.002559525
 132   H   :   -0.001546486   -0.001181403    0.002474872

Difference to translation invariance:
           :   -0.0000000001    0.0000000001    0.0000000001

Norm of the cartesian gradient     ...    0.1771917419
RMS gradient                       ...    0.0089042201
MAX gradient                       ...    0.0566387640

-------
TIMINGS
-------

Total CIS gradient time            ...    38956.039 sec

Fock matrix formation       ....    2882.051 sec  (  7.4%)
  Coulomb formation         ....    2882.051 sec  (100.0% of F)
Z-vector equation           ....   32965.057 sec  ( 84.6%)
One electron gradient       ....      23.403 sec  (  0.1%)
Prescreening matrices       ....       1.410 sec  (  0.0%)
Two electron gradient       ....    3079.730 sec  (  7.9%)

                            ***************************************
                            *     ORCA property calculations      *
                            ***************************************

                                    ---------------------
                                    Active property flags
                                    ---------------------
   (+) Dipole Moment


------------------------------------------------------------------------------
                       ORCA ELECTRIC PROPERTIES CALCULATION
------------------------------------------------------------------------------

Dipole Moment Calculation                       ... on
Quadrupole Moment Calculation                   ... off
Polarizability Calculation                      ... off
GBWName                                         ... IDF-IC.gbw
Electron density file                           ... IDF-IC.scfp
The origin for moment calculation is the CENTER OF MASS  = (13.149149,  0.021377 -4.953157)

-------------
DIPOLE MOMENT
-------------
                                X             Y             Z
Electronic contribution:     -3.00368       8.82691     -12.73444
Nuclear contribution   :      1.28448      -6.62711      13.68961
                        -----------------------------------------
Total Dipole Moment    :     -1.71919       2.19980       0.95518
                        -----------------------------------------
Magnitude (a.u.)       :      2.95078
Magnitude (Debye)      :      7.50029



--------------------
Rotational spectrum 
--------------------
 
Rotational constants in cm-1:     0.000967     0.000495     0.000419 
Rotational constants in MHz :    28.989192    14.828703    12.553313 

 Dipole components along the rotational axes: 
x,y,z [a.u.] :    -0.162768     0.414085     2.917046 
x,y,z [Debye]:    -0.413723     1.052519     7.414543 

 

                        *** CIS RELAXED DENSITY ***

------------------------------------------------------------------------------
                       ORCA ELECTRIC PROPERTIES CALCULATION
------------------------------------------------------------------------------

Dipole Moment Calculation                       ... on
Quadrupole Moment Calculation                   ... off
Polarizability Calculation                      ... off
GBWName                                         ... IDF-IC.gbw
Electron density file                           ... IDF-IC.cisp
The origin for moment calculation is the CENTER OF MASS  = (13.149149,  0.021377 -4.953157)

-------------
DIPOLE MOMENT
-------------
                                X             Y             Z
Electronic contribution:     -3.13835       8.59733     -12.14123
Nuclear contribution   :      1.28448      -6.62711      13.68961
                        -----------------------------------------
Total Dipole Moment    :     -1.85387       1.97022       1.54838
                        -----------------------------------------
Magnitude (a.u.)       :      3.11706
Magnitude (Debye)      :      7.92294



--------------------
Rotational spectrum 
--------------------
 
Rotational constants in cm-1:     0.000967     0.000495     0.000419 
Rotational constants in MHz :    28.989192    14.828703    12.553313 

 Dipole components along the rotational axes: 
x,y,z [a.u.] :    -0.675439     0.813677     2.932199 
x,y,z [Debye]:    -1.716829     2.068202     7.453056 

 

Timings for individual modules:

Sum of individual times         ...    99396.596 sec (=1656.610 min)
GTO integral calculation        ...        2.430 sec (=   0.040 min)   0.0 %
SCF iterations                  ...    13497.330 sec (= 224.956 min)  13.6 %
CIS module                      ...    46940.752 sec (= 782.346 min)  47.2 %
SCF Gradient evaluation         ...    38956.083 sec (= 649.268 min)  39.2 %
                             ****ORCA TERMINATED NORMALLY****
TOTAL RUN TIME: 1 days 3 hours 36 minutes 37 seconds 668 msec
