
                                 *****************
                                 * O   R   C   A *
                                 *****************

           --- An Ab Initio, DFT and Semiempirical electronic structure package ---

                  #######################################################
                  #                        -***-                        #
                  #          Department of theory and spectroscopy      #
                  #               Directorship: Frank Neese             #
                  #        Max Planck Institute fuer Kohlenforschung    #
                  #                Kaiser Wilhelm Platz 1               #
                  #                 D-45470 Muelheim/Ruhr               #
                  #                      Germany                        #
                  #                                                     #
                  #                  All rights reserved                #
                  #                        -***-                        #
                  #######################################################


                         Program Version 4.2.0 -  RELEASE  -


 With contributions from (in alphabetic order):
   Daniel Aravena         : Magnetic Suceptibility
   Michael Atanasov       : Ab Initio Ligand Field Theory (pilot matlab implementation)
   Alexander A. Auer      : GIAO ZORA, VPT2
   Ute Becker             : Parallelization
   Giovanni Bistoni       : ED, misc. LED, open-shell LED, HFLED
   Martin Brehm           : Molecular dynamics
   Dmytro Bykov           : SCF Hessian
   Vijay G. Chilkuri      : MRCI spin determinant printing, contributions to CSF-ICE
   Dipayan Datta          : RHF DLPNO-CCSD density
   Achintya Kumar Dutta   : EOM-CC, STEOM-CC
   Dmitry Ganyushin       : Spin-Orbit,Spin-Spin,Magnetic field MRCI
   Miquel Garcia          : C-PCM Hessian, Gaussian charge scheme
   Yang Guo               : DLPNO-NEVPT2, CIM, IAO-localization
   Andreas Hansen         : Spin unrestricted coupled pair/coupled cluster methods
   Benjamin Helmich-Paris : CASSCF linear response (MC-RPA)
   Lee Huntington         : MR-EOM, pCC
   Robert Izsak           : Overlap fitted RIJCOSX, COSX-SCS-MP3, EOM
   Christian Kollmar      : KDIIS, OOCD, Brueckner-CCSD(T), CCSD density
   Simone Kossmann        : Meta GGA functionals, TD-DFT gradient, OOMP2, MP2 Hessian
   Martin Krupicka        : AUTO-CI
   Lucas Lang             : DCDCAS
   Dagmar Lenk            : GEPOL surface, SMD
   Dimitrios Liakos       : Extrapolation schemes; Compound Job, initial MDCI parallelization
   Dimitrios Manganas     : Further ROCIS development; embedding schemes
   Dimitrios Pantazis     : SARC Basis sets
   Taras Petrenko         : DFT Hessian,TD-DFT gradient, ASA, ECA, R-Raman, ABS, FL, XAS/XES, NRVS
   Peter Pinski           : DLPNO-MP2, DLPNO-MP2 Gradient
   Christoph Reimann      : Effective Core Potentials
   Marius Retegan         : Local ZFS, SOC
   Christoph Riplinger    : Optimizer, TS searches, QM/MM, DLPNO-CCSD(T), (RO)-DLPNO pert. Triples
   Tobias Risthaus        : Range-separated hybrids, TD-DFT gradient, RPA, STAB
   Michael Roemelt        : Original ROCIS implementation
   Masaaki Saitow         : Open-shell DLPNO-CCSD energy and density
   Barbara Sandhoefer     : DKH picture change effects
   Avijit Sen             : IP-ROCIS
   Kantharuban Sivalingam : CASSCF convergence, NEVPT2, FIC-MRCI
   Bernardo de Souza      : ESD, SOC TD-DFT
   Georgi Stoychev        : AutoAux, RI-MP2 NMR
   Willem Van den Heuvel  : Paramagnetic NMR
   Boris Wezisla          : Elementary symmetry handling
   Frank Wennmohs         : Technical directorship


 We gratefully acknowledge several colleagues who have allowed us to
 interface, adapt or use parts of their codes:
   Stefan Grimme, W. Hujo, H. Kruse,             : VdW corrections, initial TS optimization,
                  C. Bannwarth                     DFT functionals, gCP, sTDA/sTD-DF
   Ed Valeev, F. Pavosevic, A. Kumar             : LibInt (2-el integral package), F12 methods
   Garnet Chan, S. Sharma, J. Yang, R. Olivares  : DMRG
   Ulf Ekstrom                                   : XCFun DFT Library
   Mihaly Kallay                                 : mrcc  (arbitrary order and MRCC methods)
   Andreas Klamt, Michael Diedenhofen            : otool_cosmo (COSMO solvation model)
   Jiri Pittner, Ondrej Demel                    : Mk-CCSD
   Frank Weinhold                                : gennbo (NPA and NBO analysis)
   Christopher J. Cramer and Donald G. Truhlar   : smd solvation model
   Lars Goerigk                                  : TD-DFT with DH, B97 family of functionals
   V. Asgeirsson, H. Jonsson                     : NEB implementation
   FAccTs GmbH                                   : IRC, NEB, NEB-TS, Multilevel, MM, QM/MM, CI optimization
   S Lehtola, MJT Oliveira, MAL Marques          : LibXC Library


 Your calculation uses the libint2 library for the computation of 2-el integrals
 For citations please refer to: http://libint.valeyev.net

 Your ORCA version has been built with support for libXC version: 4.2.3
 For citations please refer to: https://tddft.org/programs/libxc/

 This ORCA versions uses:
   CBLAS   interface :  Fast vector & matrix operations
   LAPACKE interface :  Fast linear algebra routines
   SCALAPACK package :  Parallel linear algebra routines


----- Orbital basis set information -----
Your calculation utilizes the basis: def2-SVP
   F. Weigend and R. Ahlrichs, Phys. Chem. Chem. Phys. 7, 3297 (2005).

================================================================================
                                        WARNINGS
                       Please study these warnings very carefully!
================================================================================

INFO   : Checking CIS options ...

WARNING: CIS/ROCIS methods need fully converged wavefunctions
  ===> : Setting SCFConvForced true
         You can overwrite this default with %scf ConvForced false 


INFO   : the flag for use of LIBINT has been found!

================================================================================
                                       INPUT FILE
================================================================================
NAME = IDST-4F.inp
|  1> # ORCA input file
|  2> # IDST-4F.out
|  3> ! Engrad Keepdens
|  4> %maxcore 1000
|  5> %tddft
|  6>   nroots 3 
|  7>   # nroots is the number of states to be computed
|  8>   Iroot 1
|  9>   end
| 10> * xyz 0 1
| 11>    C       -1.53426        -1.06870         0.24803
| 12>    C       -2.17270        -0.04059        -0.43094
| 13>    C       -1.78757         1.20961         0.03395
| 14>    C       -2.13897         2.64044        -0.27657
| 15>    C       -1.22453         3.37610         0.68495
| 16>    C       -0.50983         2.46455         1.50247
| 17>    C       -0.87260         1.15236         1.07521
| 18>    S       -0.44544        -0.45764         1.48334
| 19>    C        0.37443         2.88383         2.49455
| 20>    C        0.56779         4.23767         2.64425
| 21>    C        1.44180         4.97604         3.64140
| 22>    C        1.10379         6.40704         3.31586
| 23>    C        0.21156         6.45881         2.25055
| 24>    C       -0.13571         5.14712         1.81606
| 25>    C       -1.02365         4.72831         0.82623
| 26>    S       -0.22589         8.05657         1.82904
| 27>    C        0.80539         8.68615         3.10857
| 28>    C        1.46653         7.66015         3.77801
| 29>    C       -1.85320         3.00109        -1.74203
| 30>    C       -0.42173         2.67667        -2.15385
| 31>    C       -3.63295         2.82792         0.08043
| 32>    C       -4.16566         4.25144        -0.00729
| 33>    C        1.06627         4.62824         5.09161
| 34>    C       -0.38911         4.95025         5.41343
| 35>    C        2.95251         4.78120         3.37399
| 36>    C        3.46721         3.35131         3.46601
| 37>    C        0.97279        10.06493         3.33845
| 38>    C        0.16428        11.10189         2.96802
| 39>    C       -1.21913        11.14258         2.55435
| 40>    C       -1.42853        12.42062         1.87442
| 41>    C       -0.29591        13.22881         2.07873
| 42>    C        0.72108        12.47038         2.84715
| 43>    C       -2.50800        12.90205         1.15280
| 44>    C       -2.42698        14.19156         0.64823
| 45>    C       -1.30505        14.99250         0.86388
| 46>    C       -0.22195        14.51649         1.58599
| 47>    O        1.79219        12.86431         3.24600
| 48>    C       -2.21452        10.29849         2.97481
| 49>    C       -3.56793        10.43475         2.60876
| 50>    C       -1.99762         9.25281         3.89632
| 51>    F       -3.45030        14.67421        -0.06576
| 52>    F       -1.27353        16.23404         0.36413
| 53>    N       -4.67749        10.49118         2.32068
| 54>    N       -1.86471         8.42820         4.68399
| 55>    C       -0.82129        -6.25553         0.33974
| 56>    C        0.38343        -6.69805         0.80403
| 57>    C        1.67713        -6.05997         0.89252
| 58>    C        2.46114        -6.81084         1.87240
| 59>    C        1.77615        -8.00036         2.17933
| 60>    C        0.48064        -8.02587         1.45886
| 61>    C        3.69018        -6.54362         2.45176
| 62>    C        4.20929        -7.48167         3.33189
| 63>    C        3.53080        -8.66577         3.62294
| 64>    C        2.30043        -8.93880         3.04614
| 65>    O       -0.34266        -8.91089         1.44571
| 66>    C        2.18191        -5.13298         0.01854
| 67>    C        3.48390        -4.60125         0.10081
| 68>    C        1.47655        -4.69260        -1.12137
| 69>    F        5.38785        -7.24028         3.91651
| 70>    F        4.07358        -9.54654         4.47231
| 71>    N        4.52731        -4.12483         0.14057
| 72>    N        0.95394        -4.36329        -2.08869
| 73>    C       -1.64503        -2.46448         0.05170
| 74>    S       -0.47979        -3.52626         0.77842
| 75>    C       -1.24724        -4.93439         0.09371
| 76>    C       -2.36854        -4.56687        -0.62935
| 77>    C       -2.59285        -3.19093        -0.67688
| 78>    S       -3.93277        -2.42393        -1.50507
| 79>    C       -5.04163        -3.83431        -1.86795
| 80>    C       -6.37944        -3.29461        -2.35006
| 81>    C       -7.34201        -4.43255        -2.66669
| 82>    H       -2.85351        -0.21181        -1.24243
| 83>    H        0.86805         2.15504         3.11761
| 84>    H       -1.52150         5.45690         0.20594
| 85>    H        2.14130         7.85495         4.59200
| 86>    H       -2.03189         4.06696        -1.88631
| 87>    H       -2.54878         2.45012        -2.37797
| 88>    H        0.28901         3.21308        -1.52865
| 89>    H       -0.25666         2.96651        -3.18862
| 90>    H       -0.22396         1.61125        -2.06202
| 91>    H       -3.78294         2.46018         1.09879
| 92>    H       -4.20897         2.18637        -0.59021
| 93>    H       -3.68546         4.89407         0.72518
| 94>    H       -5.23305         4.24610         0.20140
| 95>    H       -4.02019         4.67092        -0.99891
| 96>    H        1.72042         5.18792         5.76316
| 97>    H        1.24140         3.56450         5.25663
| 98>    H       -0.59565         6.01066         5.29066
| 99>    H       -0.60936         4.67765         6.44259
|100>    H       -1.05881         4.39382         4.76099
|101>    H        3.49191         5.40212         4.09272
|102>    H        3.17037         5.16755         2.37479
|103>    H        3.24088         2.90844         4.43177
|104>    H        4.54777         3.35238         3.34216
|105>    H        3.04120         2.73219         2.68191
|106>    H        1.90955        10.35376         3.80599
|107>    H       -3.39271        12.31697         0.96062
|108>    H        0.64489        15.13565         1.75320
|109>    H       -1.58135        -7.02239         0.22386
|110>    H        4.24629        -5.64117         2.25606
|111>    H        1.77689        -9.85431         3.27082
|112>    H       -2.97119        -5.29917        -1.13404
|113>    H       -5.16341        -4.40682        -0.94817
|114>    H       -4.57258        -4.44852        -2.63725
|115>    H       -6.22129        -2.68450        -3.24155
|116>    H       -6.80658        -2.65213        -1.57739
|117>    H       -6.93816        -5.06969        -3.45006
|118>    H       -8.29470        -4.03462        -3.00498
|119>    H       -7.51871        -5.04241        -1.78360
|120> *
|121> 
|122>                          ****END OF INPUT****
================================================================================

                     *******************************
                     * Energy+Gradient Calculation *
                     *******************************

---------------------------------
CARTESIAN COORDINATES (ANGSTROEM)
---------------------------------
  C     -1.534260   -1.068700    0.248030
  C     -2.172700   -0.040590   -0.430940
  C     -1.787570    1.209610    0.033950
  C     -2.138970    2.640440   -0.276570
  C     -1.224530    3.376100    0.684950
  C     -0.509830    2.464550    1.502470
  C     -0.872600    1.152360    1.075210
  S     -0.445440   -0.457640    1.483340
  C      0.374430    2.883830    2.494550
  C      0.567790    4.237670    2.644250
  C      1.441800    4.976040    3.641400
  C      1.103790    6.407040    3.315860
  C      0.211560    6.458810    2.250550
  C     -0.135710    5.147120    1.816060
  C     -1.023650    4.728310    0.826230
  S     -0.225890    8.056570    1.829040
  C      0.805390    8.686150    3.108570
  C      1.466530    7.660150    3.778010
  C     -1.853200    3.001090   -1.742030
  C     -0.421730    2.676670   -2.153850
  C     -3.632950    2.827920    0.080430
  C     -4.165660    4.251440   -0.007290
  C      1.066270    4.628240    5.091610
  C     -0.389110    4.950250    5.413430
  C      2.952510    4.781200    3.373990
  C      3.467210    3.351310    3.466010
  C      0.972790   10.064930    3.338450
  C      0.164280   11.101890    2.968020
  C     -1.219130   11.142580    2.554350
  C     -1.428530   12.420620    1.874420
  C     -0.295910   13.228810    2.078730
  C      0.721080   12.470380    2.847150
  C     -2.508000   12.902050    1.152800
  C     -2.426980   14.191560    0.648230
  C     -1.305050   14.992500    0.863880
  C     -0.221950   14.516490    1.585990
  O      1.792190   12.864310    3.246000
  C     -2.214520   10.298490    2.974810
  C     -3.567930   10.434750    2.608760
  C     -1.997620    9.252810    3.896320
  F     -3.450300   14.674210   -0.065760
  F     -1.273530   16.234040    0.364130
  N     -4.677490   10.491180    2.320680
  N     -1.864710    8.428200    4.683990
  C     -0.821290   -6.255530    0.339740
  C      0.383430   -6.698050    0.804030
  C      1.677130   -6.059970    0.892520
  C      2.461140   -6.810840    1.872400
  C      1.776150   -8.000360    2.179330
  C      0.480640   -8.025870    1.458860
  C      3.690180   -6.543620    2.451760
  C      4.209290   -7.481670    3.331890
  C      3.530800   -8.665770    3.622940
  C      2.300430   -8.938800    3.046140
  O     -0.342660   -8.910890    1.445710
  C      2.181910   -5.132980    0.018540
  C      3.483900   -4.601250    0.100810
  C      1.476550   -4.692600   -1.121370
  F      5.387850   -7.240280    3.916510
  F      4.073580   -9.546540    4.472310
  N      4.527310   -4.124830    0.140570
  N      0.953940   -4.363290   -2.088690
  C     -1.645030   -2.464480    0.051700
  S     -0.479790   -3.526260    0.778420
  C     -1.247240   -4.934390    0.093710
  C     -2.368540   -4.566870   -0.629350
  C     -2.592850   -3.190930   -0.676880
  S     -3.932770   -2.423930   -1.505070
  C     -5.041630   -3.834310   -1.867950
  C     -6.379440   -3.294610   -2.350060
  C     -7.342010   -4.432550   -2.666690
  H     -2.853510   -0.211810   -1.242430
  H      0.868050    2.155040    3.117610
  H     -1.521500    5.456900    0.205940
  H      2.141300    7.854950    4.592000
  H     -2.031890    4.066960   -1.886310
  H     -2.548780    2.450120   -2.377970
  H      0.289010    3.213080   -1.528650
  H     -0.256660    2.966510   -3.188620
  H     -0.223960    1.611250   -2.062020
  H     -3.782940    2.460180    1.098790
  H     -4.208970    2.186370   -0.590210
  H     -3.685460    4.894070    0.725180
  H     -5.233050    4.246100    0.201400
  H     -4.020190    4.670920   -0.998910
  H      1.720420    5.187920    5.763160
  H      1.241400    3.564500    5.256630
  H     -0.595650    6.010660    5.290660
  H     -0.609360    4.677650    6.442590
  H     -1.058810    4.393820    4.760990
  H      3.491910    5.402120    4.092720
  H      3.170370    5.167550    2.374790
  H      3.240880    2.908440    4.431770
  H      4.547770    3.352380    3.342160
  H      3.041200    2.732190    2.681910
  H      1.909550   10.353760    3.805990
  H     -3.392710   12.316970    0.960620
  H      0.644890   15.135650    1.753200
  H     -1.581350   -7.022390    0.223860
  H      4.246290   -5.641170    2.256060
  H      1.776890   -9.854310    3.270820
  H     -2.971190   -5.299170   -1.134040
  H     -5.163410   -4.406820   -0.948170
  H     -4.572580   -4.448520   -2.637250
  H     -6.221290   -2.684500   -3.241550
  H     -6.806580   -2.652130   -1.577390
  H     -6.938160   -5.069690   -3.450060
  H     -8.294700   -4.034620   -3.004980
  H     -7.518710   -5.042410   -1.783600

----------------------------
CARTESIAN COORDINATES (A.U.)
----------------------------
  NO LB      ZA    FRAG     MASS         X           Y           Z
   0 C     6.0000    0    12.011   -2.899331   -2.019550    0.468709
   1 C     6.0000    0    12.011   -4.105808   -0.076704   -0.814359
   2 C     6.0000    0    12.011   -3.378018    2.285832    0.064156
   3 C     6.0000    0    12.011   -4.042068    4.989708   -0.522642
   4 C     6.0000    0    12.011   -2.314026    6.379904    1.294368
   5 C     6.0000    0    12.011   -0.963439    4.657325    2.839257
   6 C     6.0000    0    12.011   -1.648975    2.177645    2.031852
   7 S    16.0000    0    32.060   -0.841760   -0.864814    2.803106
   8 C     6.0000    0    12.011    0.707570    5.449649    4.714016
   9 C     6.0000    0    12.011    1.072968    8.008036    4.996908
  10 C     6.0000    0    12.011    2.724607    9.403353    6.881249
  11 C     6.0000    0    12.011    2.085861   12.107551    6.266067
  12 C     6.0000    0    12.011    0.399790   12.205382    4.252923
  13 C     6.0000    0    12.011   -0.256455    9.726647    3.431856
  14 C     6.0000    0    12.011   -1.934418    8.935211    1.561348
  15 S    16.0000    0    32.060   -0.426870   15.224711    3.456385
  16 C     6.0000    0    12.011    1.521967   16.414445    5.874346
  17 C     6.0000    0    12.011    2.771340   14.475586    7.139404
  18 C     6.0000    0    12.011   -3.502040    5.671238   -3.291960
  19 C     6.0000    0    12.011   -0.796954    5.058173   -4.070187
  20 C     6.0000    0    12.011   -6.865281    5.343994    0.151991
  21 C     6.0000    0    12.011   -7.871957    8.034057   -0.013776
  22 C     6.0000    0    12.011    2.014958    8.746106    9.621748
  23 C     6.0000    0    12.011   -0.735311    9.354617   10.229900
  24 C     6.0000    0    12.011    5.579435    9.035159    6.375917
  25 C     6.0000    0    12.011    6.552077    6.333058    6.549810
  26 C     6.0000    0    12.011    1.838307   19.019961    6.308756
  27 C     6.0000    0    12.011    0.310444   20.979532    5.608745
  28 C     6.0000    0    12.011   -2.303822   21.056425    4.827022
  29 C     6.0000    0    12.011   -2.699530   23.471570    3.542140
  30 C     6.0000    0    12.011   -0.559189   24.998828    3.928230
  31 C     6.0000    0    12.011    1.362644   23.565603    5.380334
  32 C     6.0000    0    12.011   -4.739433   24.381341    2.178476
  33 C     6.0000    0    12.011   -4.586328   26.818162    1.224977
  34 C     6.0000    0    12.011   -2.466187   28.331719    1.632497
  35 C     6.0000    0    12.011   -0.419425   27.432191    2.997087
  36 O     8.0000    0    15.999    3.386748   24.310023    6.134051
  37 C     6.0000    0    12.011   -4.184836   19.461326    5.621576
  38 C     6.0000    0    12.011   -6.742411   19.718820    4.929842
  39 C     6.0000    0    12.011   -3.774955   17.485277    7.362978
  40 F     9.0000    0    18.998   -6.520122   27.730238   -0.124268
  41 F     9.0000    0    18.998   -2.406623   30.677890    0.688106
  42 N     7.0000    0    14.007   -8.839175   19.825457    4.385450
  43 N     7.0000    0    14.007   -3.523791   15.926990    8.851458
  44 C     6.0000    0    12.011   -1.552013  -11.821239    0.642016
  45 C     6.0000    0    12.011    0.724578  -12.657480    1.519397
  46 C     6.0000    0    12.011    3.169316  -11.451684    1.686618
  47 C     6.0000    0    12.011    4.650881  -12.870622    3.538323
  48 C     6.0000    0    12.011    3.356437  -15.118489    4.118337
  49 C     6.0000    0    12.011    0.908278  -15.166696    2.756846
  50 C     6.0000    0    12.011    6.973430  -12.365650    4.633155
  51 C     6.0000    0    12.011    7.954405  -14.138307    6.296360
  52 C     6.0000    0    12.011    6.672245  -16.375932    6.846364
  53 C     6.0000    0    12.011    4.347183  -16.891884    5.756370
  54 O     8.0000    0    15.999   -0.647534  -16.839142    2.731996
  55 C     6.0000    0    12.011    4.123212   -9.699926    0.035036
  56 C     6.0000    0    12.011    6.583617   -8.695102    0.190503
  57 C     6.0000    0    12.011    2.790275   -8.867729   -2.119082
  58 F     9.0000    0    18.998   10.181561  -13.682146    7.401131
  59 F     9.0000    0    18.998    7.697951  -18.040346    8.451441
  60 N     7.0000    0    14.007    8.555376   -7.794799    0.265639
  61 N     7.0000    0    14.007    1.802685   -8.245423   -3.947052
  62 C     6.0000    0    12.011   -3.108656   -4.657192    0.097699
  63 S    16.0000    0    32.060   -0.906672   -6.663666    1.471001
  64 C     6.0000    0    12.011   -2.356942   -9.324646    0.177086
  65 C     6.0000    0    12.011   -4.475892   -8.630134   -1.189299
  66 C     6.0000    0    12.011   -4.899776   -6.029984   -1.279118
  67 S    16.0000    0    32.060   -7.431858   -4.580564   -2.844170
  68 C     6.0000    0    12.011   -9.527300   -7.245796   -3.529914
  69 C     6.0000    0    12.011  -12.055394   -6.225911   -4.440970
  70 C     6.0000    0    12.011  -13.874388   -8.376306   -5.039314
  71 H     1.0000    0     1.008   -5.392352   -0.400263   -2.347852
  72 H     1.0000    0     1.008    1.640377    4.072435    5.891429
  73 H     1.0000    0     1.008   -2.875218   10.312047    0.389170
  74 H     1.0000    0     1.008    4.046471   14.843704    8.677622
  75 H     1.0000    0     1.008   -3.839716    7.685441   -3.564609
  76 H     1.0000    0     1.008   -4.816496    4.630056   -4.493712
  77 H     1.0000    0     1.008    0.546150    6.071841   -2.888730
  78 H     1.0000    0     1.008   -0.485017    5.605891   -6.025619
  79 H     1.0000    0     1.008   -0.423223    3.044821   -3.896653
  80 H     1.0000    0     1.008   -7.148721    4.649066    2.076412
  81 H     1.0000    0     1.008   -7.953801    4.131641   -1.115335
  82 H     1.0000    0     1.008   -6.964510    9.248452    1.370392
  83 H     1.0000    0     1.008   -9.889031    8.023966    0.380591
  84 H     1.0000    0     1.008   -7.597058    8.826760   -1.887666
  85 H     1.0000    0     1.008    3.251123    9.803748   10.890794
  86 H     1.0000    0     1.008    2.345906    6.735929    9.933591
  87 H     1.0000    0     1.008   -1.125615   11.358501    9.997898
  88 H     1.0000    0     1.008   -1.151524    8.839477   12.174731
  89 H     1.0000    0     1.008   -2.000861    8.303116    8.996967
  90 H     1.0000    0     1.008    6.598754   10.208527    7.734120
  91 H     1.0000    0     1.008    5.991131    9.765254    4.487703
  92 H     1.0000    0     1.008    6.124376    5.496155    8.374832
  93 H     1.0000    0     1.008    8.594040    6.335080    6.315767
  94 H     1.0000    0     1.008    5.747035    5.163091    5.068075
  95 H     1.0000    0     1.008    3.608527   19.565771    7.192279
  96 H     1.0000    0     1.008   -6.411293   23.275700    1.815309
  97 H     1.0000    0     1.008    1.218665   28.602233    3.313068
  98 H     1.0000    0     1.008   -2.988318  -13.270394    0.423034
  99 H     1.0000    0     1.008    8.024325  -10.660266    4.263336
 100 H     1.0000    0     1.008    3.357835  -18.621947    6.180954
 101 H     1.0000    0     1.008   -5.614735  -10.013980   -2.143025
 102 H     1.0000    0     1.008   -9.757431   -8.327683   -1.791782
 103 H     1.0000    0     1.008   -8.640924   -8.406485   -4.983680
 104 H     1.0000    0     1.008  -11.756534   -5.072970   -6.125642
 105 H     1.0000    0     1.008  -12.862572   -5.011799   -2.980835
 106 H     1.0000    0     1.008  -13.111222   -9.580326   -6.519669
 107 H     1.0000    0     1.008  -15.674711   -7.624327   -5.678589
 108 H     1.0000    0     1.008  -14.208303   -9.528774   -3.370516

--------------------------------
INTERNAL COORDINATES (ANGSTROEM)
--------------------------------
 C      0   0   0     0.000000000000     0.00000000     0.00000000
 C      1   0   0     1.387665689783     0.00000000     0.00000000
 C      2   1   0     1.388325563043   112.06810947     0.00000000
 C      3   2   1     1.505715484180   136.21374066   181.38341911
 C      4   3   2     1.517206927087   100.91823348   181.14862344
 C      5   4   3     1.417765298948   110.94740428   356.45556307
 C      3   2   1     1.387324782090   113.39837133   359.20761103
 S      7   3   2     1.714973983039   112.43459522     1.07140615
 C      6   5   4     1.393532989348   122.47548271   181.62672307
 C      9   6   5     1.375747406031   117.56376031   358.39740309
 C     10   9   6     1.517692939794   129.13818395   178.91872277
 C     11  10   9     1.505984080826   101.01159445   184.04565909
 C     12  11  10     1.390553811221   110.18133354   357.78095762
 C     10   9   6     1.417007490665   119.88192641     0.83628353
 C      5   4   3     1.374330635946   129.07356278   175.83556967
 S     13  12  11     1.709347887412   112.82509086   179.67711115
 C     16  13  12     1.759859777283    90.29426165   359.91659858
 C     12  11  10     1.383996966109   136.83091055   179.38643597
 C      4   3   2     1.536003231442   112.11439917   300.79492506
 C     19   4   3     1.524450855128   112.48670716   306.53969581
 C      4   3   2     1.547441110608   107.02965319    63.72436503
 C     21   4   3     1.522459829651   115.96368155   173.33170259
 C     11  10   9     1.537887078104   111.64851579   302.47827511
 C     23  11  10     1.524922783914   112.60044205   301.62942076
 C     11  10   9     1.546517196089   112.80823836    69.51791655
 C     25  11  10     1.522487826717   115.98339860   298.26161934
 C     17  16  13     1.407800363262   122.60015079   178.12139113
 C     27  17  16     1.366086690734   128.95960484    21.09417057
 C     28  27  17     1.444507449998   131.74732602    18.01160781
 C     29  28  27     1.462716447744   107.14758268   198.08689072
 C     30  29  28     1.406322052945   108.62047456   349.67591729
 C     28  27  17     1.482363206842   120.03746646   202.75626183
 C     30  29  28     1.384834195924   131.11451356   171.32446282
 C     33  30  29     1.387080086152   117.85352893   178.21928329
 C     34  33  30     1.395255077396   121.62859243   359.42622274
 C     31  30  29     1.380718136189   121.82009722   182.00347667
 O     32  28  27     1.208941189430   127.35180894   346.87335119
 C     29  28  27     1.371158558227   126.16317109    31.47940520
 C     38  29  28     1.408644035305   123.93486520   175.62643066
 C     38  29  28     1.410557674291   123.02899201     0.07740414
 F     34  33  30     1.337877634539   119.00170450   179.22279763
 F     35  34  33     1.338717723981   119.57814874   180.37140777
 N     39  38  29     1.147735956089   177.20668653   156.15110830
 N     40  38  29     1.148072623618   176.83476786   121.62115475
 C      1   2   3     5.236405484099   143.61892991   186.76567175
 C     45   1   2     1.364822125004   116.57093223   148.56832713
 C     46  45   1     1.445211491962   131.89989774   337.07140536
 C     47  46  45     1.462409741283   107.11181375   160.63850622
 C     48  47  46     1.406547246060   108.62373693    10.70039226
 C     49  48  47     1.482590280927   109.51526353   356.93325828
 C     48  47  46     1.384775743433   131.07667230   188.80376179
 C     51  48  47     1.387098342404   117.84750616   182.10444129
 C     52  51  48     1.395403738206   121.61698200     0.58207867
 C     49  48  47     1.380905039494   121.78979729   177.70145915
 O     50  49  48     1.208824310187   127.80800390   177.04748714
 C     47  46  45     1.370384744844   126.11032233   327.07277255
 C     56  47  46     1.408787814364   123.95194355   184.16366607
 C     56  47  46     1.410979121780   122.83512902   359.06155498
 F     52  51  48     1.337554989561   119.01521426   180.74783639
 F     53  52  51     1.338579589789   119.57334525   179.58702361
 N     57  56  47     1.147720045177   177.30616665   203.72500532
 N     58  56  47     1.147725694842   176.44880286   244.14543325
 C      1   2   3     1.413866072229   128.86047366   181.11313314
 S     63   1   2     1.735881039818   119.54571418   166.05737180
 C     45   1   2     1.409742906703    13.47467744   349.28084478
 C     65  45  46     1.383907657324   125.79391858   165.76169749
 C     66  65  45     1.394913961720   114.20789850   177.52799905
 S     67  66  65     1.752019772291   124.81401396   180.37668267
 C     68  67  66     1.830416383886   102.69130774    12.71737977
 C     69  68  67     1.521000242669   108.80003789   169.16122996
 C     70  69  68     1.523713557530   110.88611323   180.00315824
 H      2   1   3     1.073002593007   122.93808659   177.87279634
 H      9   6   5     1.078424467499   119.89601265   177.67460506
 H     15   5   4     1.078636961494   122.54900359   358.70812256
 H     18  12  11     1.075100605990   125.54771794   358.23756949
 H     19   4   3     1.090332835147   108.98305024   185.49425703
 H     19   4   3     1.091704704075   108.58596483    67.87341972
 H     20  19   4     1.088008306816   110.68642005   301.06593622
 H     20  19   4     1.087200203918   110.05678891   181.21255991
 H     20  19   4     1.087504252038   110.88191088    61.41193141
 H     21   4   3     1.093063034459   107.85779166    51.25220372
 H     21   4   3     1.092311060321   107.23671539   295.64405893
 H     22  21   4     1.086313793432   111.07584484   295.18353682
 H     22  21   4     1.087612726939   109.13218187   176.34537113
 H     22  21   4     1.086478354916   111.51462681    57.15853238
 H     23  11  10     1.091848582634   108.52806737   180.24436034
 H     23  11  10     1.090616754364   108.90819127    62.78180890
 H     24  23  11     1.087290491359   111.30979438   299.25438604
 H     24  23  11     1.087194153820   109.88753761   179.36528532
 H     24  23  11     1.088021318036   110.66517207    59.75236390
 H     25  11  10     1.092275981289   107.27757338   176.07007264
 H     25  11  10     1.093219987971   107.94987065    60.39069800
 H     26  25  11     1.086301746017   111.48075445   303.88130016
 H     26  25  11     1.087634994380   109.15104554   184.68780943
 H     26  25  11     1.086097097179   111.04702895    65.80421152
 H     27  17  16     1.086064325029   115.67823474   206.39241670
 H     33  30  29     1.077944127912   122.95428490   357.49028962
 H     36  31  30     1.078299529491   121.54921156   179.41342604
 H     45   1   2     1.085906827311   127.03754882   315.19931485
 H     51  48  47     1.077948433182   122.92047012     2.81253115
 H     54  49  48     1.078301346610   121.56354318   180.65516420
 H     66  65  45     1.074319463009   121.26113146   355.10823202
 H     69  68  67     1.090226268671   107.76044343    48.93816382
 H     69  68  67     1.090451427896   108.25766416   289.60741169
 H     70  69  68     1.091787550167   109.25038974    58.81986330
 H     70  69  68     1.091901121393   109.18140374   301.15559748
 H     71  70  69     1.087525061320   110.64814000   299.60450140
 H     71  70  69     1.086465206576   110.18875786   179.71902946
 H     71  70  69     1.087658061019   110.65014686    59.84746378

---------------------------
INTERNAL COORDINATES (A.U.)
---------------------------
 C      0   0   0     0.000000000000     0.00000000     0.00000000
 C      1   0   0     2.622308119128     0.00000000     0.00000000
 C      2   1   0     2.623555098874   112.06810947     0.00000000
 C      3   2   1     2.845389900705   136.21374066   181.38341911
 C      4   3   2     2.867105580682   100.91823348   181.14862344
 C      5   4   3     2.679188137188   110.94740428   356.45556307
 C      3   2   1     2.621663896951   113.39837133   359.20761103
 S      7   3   2     3.240831154743   112.43459522     1.07140615
 C      6   5   4     2.633395708452   122.47548271   181.62672307
 C      9   6   5     2.599785826850   117.56376031   358.39740309
 C     10   9   6     2.868024011596   129.13818395   178.91872277
 C     11  10   9     2.845897474805   101.01159445   184.04565909
 C     12  11  10     2.627765877687   110.18133354   357.78095762
 C     10   9   6     2.677756087071   119.88192641     0.83628353
 C      5   4   3     2.597108519396   129.07356278   175.83556967
 S     13  12  11     3.230199374806   112.82509086   179.67711115
 C     16  13  12     3.325653013169    90.29426165   359.91659858
 C     12  11  10     2.615375236125   136.83091055   179.38643597
 C      4   3   2     2.902625448243   112.11439917   300.79492506
 C     19   4   3     2.880794620814   112.48670716   306.53969581
 C      4   3   2     2.924239907420   107.02965319    63.72436503
 C     21   4   3     2.877032127936   115.96368155   173.33170259
 C     11  10   9     2.906185402513   111.64851579   302.47827511
 C     23  11  10     2.881686436974   112.60044205   301.62942076
 C     11  10   9     2.922493962009   112.80823836    69.51791655
 C     25  11  10     2.877085034723   115.98339860   298.26161934
 C     17  16  13     2.660357137800   122.60015079   178.12139113
 C     27  17  16     2.581529720682   128.95960484    21.09417057
 C     28  27  17     2.729723478905   131.74732602    18.01160781
 C     29  28  27     2.764133497818   107.14758268   198.08689072
 C     30  29  28     2.657563536160   108.62047456   349.67591729
 C     28  27  17     2.801260491933   120.03746646   202.75626183
 C     30  29  28     2.616957371185   131.11451356   171.32446282
 C     33  30  29     2.621201488644   117.85352893   178.21928329
 C     34  33  30     2.636649983242   121.62859243   359.42622274
 C     31  30  29     2.609179145535   121.82009722   182.00347667
 O     32  28  27     2.284567760039   127.35180894   346.87335119
 C     29  28  27     2.591114161232   126.16317109    31.47940520
 C     38  29  28     2.661951446908   123.93486520   175.62643066
 C     38  29  28     2.665567700510   123.02899201     0.07740414
 F     34  33  30     2.528222329977   119.00170450   179.22279763
 F     35  34  33     2.529809868950   119.57814874   180.37140777
 N     39  38  29     2.168906631063   177.20668653   156.15110830
 N     40  38  29     2.169542840490   176.83476786   121.62115475
 C      1   2   3     9.895372291110   143.61892991   186.76567175
 C     45   1   2     2.579140037774   116.57093223   148.56832713
 C     46  45   1     2.731053925405   131.89989774   337.07140536
 C     47  46  45     2.763553906604   107.11181375   160.63850622
 C     48  47  46     2.657989089475   108.62373693    10.70039226
 C     49  48  47     2.801689599766   109.51526353   356.93325828
 C     48  47  46     2.616846911985   131.07667230   188.80376179
 C     51  48  47     2.621235987960   117.84750616   182.10444129
 C     52  51  48     2.636930911460   121.61698200     0.58207867
 C     49  48  47     2.609532341595   121.78979729   177.70145915
 O     50  49  48     2.284346890280   127.80800390   177.04748714
 C     47  46  45     2.589651865858   126.11032233   327.07277255
 C     56  47  46     2.662223149953   123.95194355   184.16366607
 C     56  47  46     2.666364120846   122.83512902   359.06155498
 F     52  51  48     2.527612619331   119.01521426   180.74783639
 F     53  52  51     2.529548833158   119.57334525   179.58702361
 N     57  56  47     2.168876563795   177.30616665   203.72500532
 N     58  56  47     2.168887240115   176.44880286   244.14543325
 C      1   2   3     2.671819666556   128.86047366   181.11313314
 S     63   1   2     3.280339766323   119.54571418   166.05737180
 C     45   1   2     2.664028012907    13.47467744   349.28084478
 C     65  45  46     2.615206466979   125.79391858   165.76169749
 C     66  65  45     2.636005368033   114.20789850   177.52799905
 S     67  66  65     3.310837550846   124.81401396   180.37668267
 C     68  67  66     3.458985676588   102.69130774    12.71737977
 C     69  68  67     2.874273908273   108.80003789   169.16122996
 C     70  69  68     2.879401330274   110.88611323   180.00315824
 H      2   1   3     2.027681041771   122.93808659   177.87279634
 H      9   6   5     2.037926899693   119.89601265   177.67460506
 H     15   5   4     2.038328455148   122.54900359   358.70812256
 H     18  12  11     2.031645711734   125.54771794   358.23756949
 H     19   4   3     2.060430453250   108.98305024   185.49425703
 H     19   4   3     2.063022909816   108.58596483    67.87341972
 H     20  19   4     2.056037731313   110.68642005   301.06593622
 H     20  19   4     2.054510638149   110.05678891   181.21255991
 H     20  19   4     2.055085205826   110.88191088    61.41193141
 H     21   4   3     2.065589782240   107.85779166    51.25220372
 H     21   4   3     2.064168757060   107.23671539   295.64405893
 H     22  21   4     2.052835565087   111.07584484   295.18353682
 H     22  21   4     2.055290193682   109.13218187   176.34537113
 H     22  21   4     2.053146541224   111.51462681    57.15853238
 H     23  11  10     2.063294800888   108.52806737   180.24436034
 H     23  11  10     2.060966982814   108.90819127    62.78180890
 H     24  23  11     2.054681256685   111.30979438   299.25438604
 H     24  23  11     2.054499205120   109.88753761   179.36528532
 H     24  23  11     2.056062318955   110.66517207    59.75236390
 H     25  11  10     2.064102467296   107.27757338   176.07007264
 H     25  11  10     2.065886381394   107.94987065    60.39069800
 H     26  25  11     2.052812798773   111.48075445   303.88130016
 H     26  25  11     2.055332273047   109.15104554   184.68780943
 H     26  25  11     2.052426068515   111.04702895    65.80421152
 H     27  17  16     2.052364138126   115.67823474   206.39241670
 H     33  30  29     2.037019189422   122.95428490   357.49028962
 H     36  31  30     2.037690801074   121.54921156   179.41342604
 H     45   1   2     2.052066510573   127.03754882   315.19931485
 H     51  48  47     2.037027325204   122.92047012     2.81253115
 H     54  49  48     2.037694234931   121.56354318   180.65516420
 H     66  65  45     2.030169565428   121.26113146   355.10823202
 H     69  68  67     2.060229071795   107.76044343    48.93816382
 H     69  68  67     2.060654561066   108.25766416   289.60741169
 H     70  69  68     2.063179466241   109.25038974    58.81986330
 H     70  69  68     2.063394084755   109.18140374   301.15559748
 H     71  70  69     2.055124529672   110.64814000   299.60450140
 H     71  70  69     2.053121694463   110.18875786   179.71902946
 H     71  70  69     2.055375862678   110.65014686    59.84746378

---------------------
BASIS SET INFORMATION
---------------------
There are 6 groups of distinct atoms

 Group   1 Type C   : 7s4p1d contracted to 3s2p1d pattern {511/31/1}
 Group   2 Type S   : 10s7p1d contracted to 4s3p1d pattern {5311/511/1}
 Group   3 Type O   : 7s4p1d contracted to 3s2p1d pattern {511/31/1}
 Group   4 Type F   : 7s4p1d contracted to 3s2p1d pattern {511/31/1}
 Group   5 Type N   : 7s4p1d contracted to 3s2p1d pattern {511/31/1}
 Group   6 Type H   : 4s1p contracted to 2s1p pattern {31/1}

Atom   0C    basis set group =>   1
Atom   1C    basis set group =>   1
Atom   2C    basis set group =>   1
Atom   3C    basis set group =>   1
Atom   4C    basis set group =>   1
Atom   5C    basis set group =>   1
Atom   6C    basis set group =>   1
Atom   7S    basis set group =>   2
Atom   8C    basis set group =>   1
Atom   9C    basis set group =>   1
Atom  10C    basis set group =>   1
Atom  11C    basis set group =>   1
Atom  12C    basis set group =>   1
Atom  13C    basis set group =>   1
Atom  14C    basis set group =>   1
Atom  15S    basis set group =>   2
Atom  16C    basis set group =>   1
Atom  17C    basis set group =>   1
Atom  18C    basis set group =>   1
Atom  19C    basis set group =>   1
Atom  20C    basis set group =>   1
Atom  21C    basis set group =>   1
Atom  22C    basis set group =>   1
Atom  23C    basis set group =>   1
Atom  24C    basis set group =>   1
Atom  25C    basis set group =>   1
Atom  26C    basis set group =>   1
Atom  27C    basis set group =>   1
Atom  28C    basis set group =>   1
Atom  29C    basis set group =>   1
Atom  30C    basis set group =>   1
Atom  31C    basis set group =>   1
Atom  32C    basis set group =>   1
Atom  33C    basis set group =>   1
Atom  34C    basis set group =>   1
Atom  35C    basis set group =>   1
Atom  36O    basis set group =>   3
Atom  37C    basis set group =>   1
Atom  38C    basis set group =>   1
Atom  39C    basis set group =>   1
Atom  40F    basis set group =>   4
Atom  41F    basis set group =>   4
Atom  42N    basis set group =>   5
Atom  43N    basis set group =>   5
Atom  44C    basis set group =>   1
Atom  45C    basis set group =>   1
Atom  46C    basis set group =>   1
Atom  47C    basis set group =>   1
Atom  48C    basis set group =>   1
Atom  49C    basis set group =>   1
Atom  50C    basis set group =>   1
Atom  51C    basis set group =>   1
Atom  52C    basis set group =>   1
Atom  53C    basis set group =>   1
Atom  54O    basis set group =>   3
Atom  55C    basis set group =>   1
Atom  56C    basis set group =>   1
Atom  57C    basis set group =>   1
Atom  58F    basis set group =>   4
Atom  59F    basis set group =>   4
Atom  60N    basis set group =>   5
Atom  61N    basis set group =>   5
Atom  62C    basis set group =>   1
Atom  63S    basis set group =>   2
Atom  64C    basis set group =>   1
Atom  65C    basis set group =>   1
Atom  66C    basis set group =>   1
Atom  67S    basis set group =>   2
Atom  68C    basis set group =>   1
Atom  69C    basis set group =>   1
Atom  70C    basis set group =>   1
Atom  71H    basis set group =>   6
Atom  72H    basis set group =>   6
Atom  73H    basis set group =>   6
Atom  74H    basis set group =>   6
Atom  75H    basis set group =>   6
Atom  76H    basis set group =>   6
Atom  77H    basis set group =>   6
Atom  78H    basis set group =>   6
Atom  79H    basis set group =>   6
Atom  80H    basis set group =>   6
Atom  81H    basis set group =>   6
Atom  82H    basis set group =>   6
Atom  83H    basis set group =>   6
Atom  84H    basis set group =>   6
Atom  85H    basis set group =>   6
Atom  86H    basis set group =>   6
Atom  87H    basis set group =>   6
Atom  88H    basis set group =>   6
Atom  89H    basis set group =>   6
Atom  90H    basis set group =>   6
Atom  91H    basis set group =>   6
Atom  92H    basis set group =>   6
Atom  93H    basis set group =>   6
Atom  94H    basis set group =>   6
Atom  95H    basis set group =>   6
Atom  96H    basis set group =>   6
Atom  97H    basis set group =>   6
Atom  98H    basis set group =>   6
Atom  99H    basis set group =>   6
Atom 100H    basis set group =>   6
Atom 101H    basis set group =>   6
Atom 102H    basis set group =>   6
Atom 103H    basis set group =>   6
Atom 104H    basis set group =>   6
Atom 105H    basis set group =>   6
Atom 106H    basis set group =>   6
Atom 107H    basis set group =>   6
Atom 108H    basis set group =>   6
------------------------------------------------------------------------------
                           ORCA GTO INTEGRAL CALCULATION
------------------------------------------------------------------------------

                         BASIS SET STATISTICS AND STARTUP INFO

 # of primitive gaussian shells          ... 1066
 # of primitive gaussian functions       ... 2018
 # of contracted shells                  ...  548
 # of contracted basis functions         ... 1200
 Highest angular momentum                ...    2
 Maximum contraction depth               ...    5
 Integral package used                   ... LIBINT
 Integral threshhold            Thresh   ...  2.500e-11
 Primitive cut-off              TCut     ...  2.500e-12


------------------------------ INTEGRAL EVALUATION ----------------------------


 * One electron integrals 
 Pre-screening matrix                    ... done
 Shell pair data                         ... done (   0.024 sec)

-------------------------------------------------------------------------------
                                 ORCA SCF
-------------------------------------------------------------------------------

------------
SCF SETTINGS
------------
Hamiltonian:
 Ab initio Hamiltonian  Method          .... Hartree-Fock(GTOs)


General Settings:
 Integral files         IntName         .... IDST-4F
 Hartree-Fock type      HFTyp           .... RHF
 Total Charge           Charge          ....    0
 Multiplicity           Mult            ....    1
 Number of Electrons    NEL             ....  524
 Basis Dimension        Dim             .... 1200
 Nuclear Repulsion      ENuc            ....  10908.2303024361 Eh

Convergence Acceleration:
 DIIS                   CNVDIIS         .... on
   Start iteration      DIISMaxIt       ....    12
   Startup error        DIISStart       ....  0.200000
   # of expansion vecs  DIISMaxEq       ....     5
   Bias factor          DIISBfac        ....   1.050
   Max. coefficient     DIISMaxC        ....  10.000
 Newton-Raphson         CNVNR           .... off
 SOSCF                  CNVSOSCF        .... on
   Start iteration      SOSCFMaxIt      ....   150
   Startup grad/error   SOSCFStart      ....  0.003300
 Level Shifting         CNVShift        .... on
   Level shift para.    LevelShift      ....    0.2500
   Turn off err/grad.   ShiftErr        ....    0.0010
 Zerner damping         CNVZerner       .... off
 Static damping         CNVDamp         .... on
   Fraction old density DampFac         ....    0.7000
   Max. Damping (<1)    DampMax         ....    0.9800
   Min. Damping (>=0)   DampMin         ....    0.0000
   Turn off err/grad.   DampErr         ....    0.1000
 Fernandez-Rico         CNVRico         .... off

SCF Procedure:
 Maximum # iterations   MaxIter         ....   125
 SCF integral mode      SCFMode         .... Direct
   Integral package                     .... LIBINT
 Reset frequency        DirectResetFreq ....    20
 Integral Threshold     Thresh          ....  2.500e-11 Eh
 Primitive CutOff       TCut            ....  2.500e-12 Eh

Convergence Tolerance:
 Convergence Check Mode ConvCheckMode   .... Total+1el-Energy
 Convergence forced     ConvForced      .... 1
 Energy Change          TolE            ....  1.000e-08 Eh
 1-El. energy change                    ....  1.000e-05 Eh
 Orbital Gradient       TolG            ....  1.000e-05
 Orbital Rotation angle TolX            ....  1.000e-05
 DIIS Error             TolErr          ....  5.000e-07


Diagonalization of the overlap matrix:
Smallest eigenvalue                        ... 1.956e-04
Time for diagonalization                   ...    0.883 sec
Threshold for overlap eigenvalues          ... 1.000e-08
Number of eigenvalues below threshold      ... 0
Time for construction of square roots      ...    0.244 sec
Total time needed                          ...    1.141 sec

-------------------
DFT GRID GENERATION
-------------------

General Integration Accuracy     IntAcc      ...  4.340
Radial Grid Type                 RadialGrid  ... Gauss-Chebyshev
Angular Grid (max. acc.)         AngularGrid ... Lebedev-110
Angular grid pruning method      GridPruning ... 3 (G Style)
Weight generation scheme         WeightScheme... Becke
Basis function cutoff            BFCut       ...    1.0000e-11
Integration weight cutoff        WCut        ...    1.0000e-14
Grids for H and He will be reduced by one unit

# of grid points (after initial pruning)     ... 148988 (   0.3 sec)
# of grid points (after weights+screening)   ... 129800 (   6.2 sec)
nearest neighbour list constructed           ...    0.0 sec
Grid point re-assignment to atoms done       ...    0.1 sec
Grid point division into batches done        ...    0.2 sec
Reduced shell lists constructed in    3.5 sec

Total number of grid points                  ...   129800
Total number of batches                      ...     2081
Average number of points per batch           ...       62
Average number of grid points per atom       ...     1191
Average number of shells per batch           ...   111.99 (20.44%)
Average number of basis functions per batch  ...   228.80 (19.07%)
Average number of large shells per batch     ...    66.59 (59.46%)
Average number of large basis fcns per batch ...   138.34 (60.46%)
Maximum spatial batch extension              ...  21.38, 23.01, 21.92 au
Average spatial batch extension              ...   3.25,  3.09,  3.43 au

Time for grid setup =   10.015 sec

------------------------------
INITIAL GUESS: MODEL POTENTIAL
------------------------------
Loading Hartree-Fock densities                     ... done
Calculating cut-offs                               ... done
Setting up the integral package                    ... done
Initializing the effective Hamiltonian             ... done
Starting the Coulomb interaction                   ... done (  13.1 sec)
Reading the grid                                   ... done
Mapping shells                                     ... done
Starting the XC term evaluation                    ... done (   2.8 sec)
Transforming the Hamiltonian                       ... done (   0.3 sec)
Diagonalizing the Hamiltonian                      ... done (   0.7 sec)
Back transforming the eigenvectors                 ... done (   0.1 sec)
Now organizing SCF variables                       ... done
                      ------------------
                      INITIAL GUESS DONE (  27.3 sec)
                      ------------------
--------------
SCF ITERATIONS
--------------
ITER       Energy         Delta-E        Max-DP      RMS-DP      [F,P]     Damp
               ***  Starting incremental Fock matrix formation  ***
  0  -4530.7292687518   0.000000000000 0.17591918  0.00141070  0.2396272 0.7000
  1  -4531.5478032085  -0.818534456717 0.12247446  0.00108167  0.1438194 0.7000
                               ***Turning on DIIS***
  2  -4532.0354533323  -0.487650123823 0.24949428  0.00249215  0.0799959 0.0000
  3  -4529.2330381055   2.802415226777 0.06266790  0.00060849  0.0516301 0.0000
  4  -4533.2887440859  -4.055705980420 0.01432308  0.00022067  0.0192590 0.0000
  5  -4533.3114953945  -0.022751308521 0.00856577  0.00011436  0.0084536 0.0000
  6  -4533.0199473704   0.291548024103 0.00534380  0.00007073  0.0023526 0.0000
  7  -4533.1012253338  -0.081277963438 0.00320115  0.00004416  0.0016677 0.0000
  8  -4533.0804241183   0.020801215460 0.00270643  0.00003375  0.0012109 0.0000
                      *** Initiating the SOSCF procedure ***
                           *** Shutting down DIIS ***
                      *** Re-Reading the Fockian *** 
                      *** Removing any level shift *** 
ITER      Energy       Delta-E        Grad      Rot      Max-DP    RMS-DP
  9  -4533.07000831   0.0104158081  0.002536  0.002536  0.002809  0.000034
               *** Restarting incremental Fock matrix formation ***
 10  -4533.08760097  -0.0175926549  0.000446  0.001866  0.001017  0.000009
 11  -4533.08761452  -0.0000135505  0.000339  0.003420  0.001062  0.000012
 12  -4533.08762487  -0.0000103546  0.000092  0.000559  0.000209  0.000003
 13  -4533.08762581  -0.0000009356  0.000042  0.000308  0.000169  0.000002
 14  -4533.08762619  -0.0000003810  0.000015  0.000115  0.000080  0.000001
 15  -4533.08762628  -0.0000000896  0.000011  0.000073  0.000043  0.000000
 16  -4533.08762630  -0.0000000218  0.000006  0.000048  0.000021  0.000000
                  ***Gradient check signals convergence***
              ***Rediagonalizing the Fockian in SOSCF/NRSCF***

               *****************************************************
               *                     SUCCESS                       *
               *           SCF CONVERGED AFTER  17 CYCLES          *
               *****************************************************


----------------
TOTAL SCF ENERGY
----------------

Total Energy       :        -4533.08762631 Eh         -123351.58539 eV

Components:
Nuclear Repulsion  :        10908.23030244 Eh          296828.03698 eV
Electronic Energy  :       -15441.31792874 Eh         -420179.62236 eV
One Electron Energy:       -27949.35909718 Eh         -760540.72618 eV
Two Electron Energy:        12508.04116844 Eh          340361.10382 eV

Virial components:
Potential Energy   :        -9055.25660522 Eh         -246406.05927 eV
Kinetic Energy     :         4522.16897891 Eh          123054.47388 eV
Virial Ratio       :            2.00241447


---------------
SCF CONVERGENCE
---------------

  Last Energy change         ...   -7.4524e-09  Tolerance :   1.0000e-08
  Last MAX-Density change    ...    6.9880e-06  Tolerance :   1.0000e-07
  Last RMS-Density change    ...    9.4409e-08  Tolerance :   5.0000e-09
  Last Orbital Gradient      ...    2.2991e-06  Tolerance :   1.0000e-05
  Last Orbital Rotation      ...    1.9473e-05  Tolerance :   1.0000e-05

             **** THE GBW FILE WAS UPDATED (IDST-4F.gbw) ****
             **** DENSITY FILE WAS UPDATED (IDST-4F.scfp) ****
             **** ENERGY FILE WAS UPDATED (IDST-4F.en.tmp) ****
             **** THE GBW FILE WAS UPDATED (IDST-4F.gbw) ****
             **** DENSITY FILE WAS UPDATED (IDST-4F.scfp) ****
----------------
ORBITAL ENERGIES
----------------

  NO   OCC          E(Eh)            E(eV) 
   0   2.0000     -91.980162     -2502.9075 
   1   2.0000     -91.980041     -2502.9042 
   2   2.0000     -91.976121     -2502.7975 
   3   2.0000     -91.942250     -2501.8758 
   4   2.0000     -26.335751      -716.6322 
   5   2.0000     -26.335513      -716.6258 
   6   2.0000     -26.333334      -716.5665 
   7   2.0000     -26.332875      -716.5540 
   8   2.0000     -20.569056      -559.7125 
   9   2.0000     -20.564228      -559.5811 
  10   2.0000     -15.593516      -424.3211 
  11   2.0000     -15.590226      -424.2316 
  12   2.0000     -15.587660      -424.1618 
  13   2.0000     -15.586588      -424.1326 
  14   2.0000     -11.379770      -309.6593 
  15   2.0000     -11.378103      -309.6139 
  16   2.0000     -11.376750      -309.5771 
  17   2.0000     -11.375344      -309.5388 
  18   2.0000     -11.368051      -309.3404 
  19   2.0000     -11.363458      -309.2154 
  20   2.0000     -11.343781      -308.6800 
  21   2.0000     -11.341111      -308.6073 
  22   2.0000     -11.326152      -308.2003 
  23   2.0000     -11.322711      -308.1066 
  24   2.0000     -11.320992      -308.0598 
  25   2.0000     -11.319642      -308.0231 
  26   2.0000     -11.318475      -307.9914 
  27   2.0000     -11.306285      -307.6597 
  28   2.0000     -11.302912      -307.5679 
  29   2.0000     -11.302868      -307.5667 
  30   2.0000     -11.300519      -307.5028 
  31   2.0000     -11.300499      -307.5022 
  32   2.0000     -11.300399      -307.4995 
  33   2.0000     -11.300304      -307.4969 
  34   2.0000     -11.297851      -307.4301 
  35   2.0000     -11.297420      -307.4184 
  36   2.0000     -11.297316      -307.4156 
  37   2.0000     -11.297195      -307.4123 
  38   2.0000     -11.296897      -307.4042 
  39   2.0000     -11.294394      -307.3361 
  40   2.0000     -11.294309      -307.3338 
  41   2.0000     -11.294231      -307.3317 
  42   2.0000     -11.293139      -307.3019 
  43   2.0000     -11.290796      -307.2382 
  44   2.0000     -11.288332      -307.1711 
  45   2.0000     -11.287492      -307.1483 
  46   2.0000     -11.285891      -307.1047 
  47   2.0000     -11.284972      -307.0797 
  48   2.0000     -11.278480      -306.9030 
  49   2.0000     -11.274115      -306.7843 
  50   2.0000     -11.271401      -306.7104 
  51   2.0000     -11.270057      -306.6739 
  52   2.0000     -11.270054      -306.6738 
  53   2.0000     -11.267060      -306.5923 
  54   2.0000     -11.266594      -306.5796 
  55   2.0000     -11.266402      -306.5744 
  56   2.0000     -11.265106      -306.5391 
  57   2.0000     -11.262260      -306.4617 
  58   2.0000     -11.262193      -306.4599 
  59   2.0000     -11.256589      -306.3074 
  60   2.0000     -11.255671      -306.2824 
  61   2.0000     -11.253880      -306.2336 
  62   2.0000     -11.246220      -306.0252 
  63   2.0000     -11.243726      -305.9573 
  64   2.0000     -11.243603      -305.9540 
  65   2.0000     -11.241633      -305.9004 
  66   2.0000     -11.241230      -305.8894 
  67   2.0000     -11.231144      -305.6150 
  68   2.0000     -11.229165      -305.5611 
  69   2.0000     -11.224541      -305.4353 
  70   2.0000     -11.216140      -305.2067 
  71   2.0000      -9.016232      -245.3441 
  72   2.0000      -9.015398      -245.3214 
  73   2.0000      -9.011662      -245.2198 
  74   2.0000      -8.978051      -244.3052 
  75   2.0000      -6.703739      -182.4180 
  76   2.0000      -6.702920      -182.3957 
  77   2.0000      -6.702582      -182.3865 
  78   2.0000      -6.701910      -182.3682 
  79   2.0000      -6.700667      -182.3344 
  80   2.0000      -6.700064      -182.3180 
  81   2.0000      -6.699229      -182.2953 
  82   2.0000      -6.698234      -182.2682 
  83   2.0000      -6.696288      -182.2153 
  84   2.0000      -6.666108      -181.3940 
  85   2.0000      -6.664406      -181.3477 
  86   2.0000      -6.662263      -181.2894 
  87   2.0000      -1.645860       -44.7861 
  88   2.0000      -1.643260       -44.7154 
  89   2.0000      -1.630940       -44.3801 
  90   2.0000      -1.628358       -44.3099 
  91   2.0000      -1.401713       -38.1425 
  92   2.0000      -1.397062       -38.0160 
  93   2.0000      -1.255475       -34.1632 
  94   2.0000      -1.252731       -34.0885 
  95   2.0000      -1.241026       -33.7700 
  96   2.0000      -1.233499       -33.5652 
  97   2.0000      -1.232269       -33.5317 
  98   2.0000      -1.229996       -33.4699 
  99   2.0000      -1.226605       -33.3776 
 100   2.0000      -1.224414       -33.3180 
 101   2.0000      -1.217441       -33.1282 
 102   2.0000      -1.182004       -32.1640 
 103   2.0000      -1.175076       -31.9755 
 104   2.0000      -1.167900       -31.7802 
 105   2.0000      -1.148989       -31.2656 
 106   2.0000      -1.120456       -30.4892 
 107   2.0000      -1.112500       -30.2727 
 108   2.0000      -1.106635       -30.1131 
 109   2.0000      -1.104492       -30.0548 
 110   2.0000      -1.096466       -29.8363 
 111   2.0000      -1.091315       -29.6962 
 112   2.0000      -1.075607       -29.2687 
 113   2.0000      -1.074484       -29.2382 
 114   2.0000      -1.071637       -29.1607 
 115   2.0000      -1.054097       -28.6834 
 116   2.0000      -1.045453       -28.4482 
 117   2.0000      -1.031695       -28.0738 
 118   2.0000      -1.026272       -27.9263 
 119   2.0000      -1.025910       -27.9164 
 120   2.0000      -1.018671       -27.7194 
 121   2.0000      -1.017345       -27.6834 
 122   2.0000      -1.011875       -27.5345 
 123   2.0000      -0.987980       -26.8843 
 124   2.0000      -0.985433       -26.8150 
 125   2.0000      -0.964680       -26.2503 
 126   2.0000      -0.945147       -25.7188 
 127   2.0000      -0.942102       -25.6359 
 128   2.0000      -0.939104       -25.5543 
 129   2.0000      -0.934269       -25.4228 
 130   2.0000      -0.922996       -25.1160 
 131   2.0000      -0.905405       -24.6373 
 132   2.0000      -0.900281       -24.4979 
 133   2.0000      -0.883328       -24.0366 
 134   2.0000      -0.871043       -23.7023 
 135   2.0000      -0.861244       -23.4357 
 136   2.0000      -0.857927       -23.3454 
 137   2.0000      -0.848870       -23.0989 
 138   2.0000      -0.845782       -23.0149 
 139   2.0000      -0.844405       -22.9774 
 140   2.0000      -0.831635       -22.6299 
 141   2.0000      -0.829264       -22.5654 
 142   2.0000      -0.821882       -22.3645 
 143   2.0000      -0.815488       -22.1906 
 144   2.0000      -0.808543       -22.0016 
 145   2.0000      -0.799972       -21.7684 
 146   2.0000      -0.794281       -21.6135 
 147   2.0000      -0.787492       -21.4288 
 148   2.0000      -0.784476       -21.3467 
 149   2.0000      -0.782221       -21.2853 
 150   2.0000      -0.779325       -21.2065 
 151   2.0000      -0.769540       -20.9402 
 152   2.0000      -0.760163       -20.6851 
 153   2.0000      -0.752881       -20.4869 
 154   2.0000      -0.750434       -20.4204 
 155   2.0000      -0.746811       -20.3217 
 156   2.0000      -0.742964       -20.2171 
 157   2.0000      -0.740448       -20.1486 
 158   2.0000      -0.740096       -20.1390 
 159   2.0000      -0.732790       -19.9402 
 160   2.0000      -0.726801       -19.7773 
 161   2.0000      -0.722292       -19.6546 
 162   2.0000      -0.714871       -19.4526 
 163   2.0000      -0.712471       -19.3873 
 164   2.0000      -0.712373       -19.3847 
 165   2.0000      -0.707854       -19.2617 
 166   2.0000      -0.699354       -19.0304 
 167   2.0000      -0.695611       -18.9285 
 168   2.0000      -0.683981       -18.6121 
 169   2.0000      -0.676561       -18.4102 
 170   2.0000      -0.675751       -18.3881 
 171   2.0000      -0.670234       -18.2380 
 172   2.0000      -0.666196       -18.1281 
 173   2.0000      -0.665572       -18.1111 
 174   2.0000      -0.660970       -17.9859 
 175   2.0000      -0.657663       -17.8959 
 176   2.0000      -0.653195       -17.7743 
 177   2.0000      -0.652257       -17.7488 
 178   2.0000      -0.644388       -17.5347 
 179   2.0000      -0.639034       -17.3890 
 180   2.0000      -0.636261       -17.3135 
 181   2.0000      -0.634441       -17.2640 
 182   2.0000      -0.631569       -17.1859 
 183   2.0000      -0.629425       -17.1275 
 184   2.0000      -0.628212       -17.0945 
 185   2.0000      -0.626511       -17.0482 
 186   2.0000      -0.624010       -16.9802 
 187   2.0000      -0.621976       -16.9248 
 188   2.0000      -0.619730       -16.8637 
 189   2.0000      -0.618717       -16.8361 
 190   2.0000      -0.616845       -16.7852 
 191   2.0000      -0.613228       -16.6868 
 192   2.0000      -0.607575       -16.5329 
 193   2.0000      -0.602857       -16.4046 
 194   2.0000      -0.600578       -16.3426 
 195   2.0000      -0.598972       -16.2989 
 196   2.0000      -0.593974       -16.1629 
 197   2.0000      -0.590159       -16.0591 
 198   2.0000      -0.586679       -15.9643 
 199   2.0000      -0.584881       -15.9154 
 200   2.0000      -0.578803       -15.7500 
 201   2.0000      -0.577646       -15.7186 
 202   2.0000      -0.576312       -15.6822 
 203   2.0000      -0.574113       -15.6224 
 204   2.0000      -0.572869       -15.5886 
 205   2.0000      -0.572353       -15.5745 
 206   2.0000      -0.569924       -15.5084 
 207   2.0000      -0.565493       -15.3879 
 208   2.0000      -0.562349       -15.3023 
 209   2.0000      -0.559856       -15.2344 
 210   2.0000      -0.558346       -15.1934 
 211   2.0000      -0.555878       -15.1262 
 212   2.0000      -0.553529       -15.0623 
 213   2.0000      -0.547710       -14.9040 
 214   2.0000      -0.539233       -14.6733 
 215   2.0000      -0.537802       -14.6343 
 216   2.0000      -0.537265       -14.6197 
 217   2.0000      -0.534535       -14.5454 
 218   2.0000      -0.528221       -14.3736 
 219   2.0000      -0.527800       -14.3622 
 220   2.0000      -0.524796       -14.2804 
 221   2.0000      -0.523607       -14.2481 
 222   2.0000      -0.521170       -14.1818 
 223   2.0000      -0.520778       -14.1711 
 224   2.0000      -0.513896       -13.9838 
 225   2.0000      -0.512479       -13.9452 
 226   2.0000      -0.509203       -13.8561 
 227   2.0000      -0.504998       -13.7417 
 228   2.0000      -0.503494       -13.7008 
 229   2.0000      -0.502346       -13.6695 
 230   2.0000      -0.500880       -13.6296 
 231   2.0000      -0.499786       -13.5999 
 232   2.0000      -0.495832       -13.4923 
 233   2.0000      -0.490618       -13.3504 
 234   2.0000      -0.488621       -13.2961 
 235   2.0000      -0.487156       -13.2562 
 236   2.0000      -0.482890       -13.1401 
 237   2.0000      -0.476508       -12.9664 
 238   2.0000      -0.474288       -12.9060 
 239   2.0000      -0.473038       -12.8720 
 240   2.0000      -0.471528       -12.8309 
 241   2.0000      -0.468491       -12.7483 
 242   2.0000      -0.465794       -12.6749 
 243   2.0000      -0.465404       -12.6643 
 244   2.0000      -0.459579       -12.5058 
 245   2.0000      -0.455481       -12.3943 
 246   2.0000      -0.449932       -12.2433 
 247   2.0000      -0.435234       -11.8433 
 248   2.0000      -0.427299       -11.6274 
 249   2.0000      -0.413213       -11.2441 
 250   2.0000      -0.397145       -10.8069 
 251   2.0000      -0.392795       -10.6885 
 252   2.0000      -0.386830       -10.5262 
 253   2.0000      -0.374540       -10.1918 
 254   2.0000      -0.371976       -10.1220 
 255   2.0000      -0.362230        -9.8568 
 256   2.0000      -0.358247        -9.7484 
 257   2.0000      -0.354724        -9.6525 
 258   2.0000      -0.348953        -9.4955 
 259   2.0000      -0.338833        -9.2201 
 260   2.0000      -0.299369        -8.1462 
 261   2.0000      -0.257415        -7.0046 
 262   0.0000      -0.033067        -0.8998 
 263   0.0000      -0.018572        -0.5054 
 264   0.0000       0.014354         0.3906 
 265   0.0000       0.021165         0.5759 
 266   0.0000       0.044133         1.2009 
 267   0.0000       0.070800         1.9266 
 268   0.0000       0.091877         2.5001 
 269   0.0000       0.104099         2.8327 
 270   0.0000       0.114074         3.1041 
 271   0.0000       0.124720         3.3938 
 272   0.0000       0.140703         3.8287 
 273   0.0000       0.143838         3.9140 
 274   0.0000       0.146416         3.9842 
 275   0.0000       0.149329         4.0634 
 276   0.0000       0.151195         4.1142 
 277   0.0000       0.156115         4.2481 
 278   0.0000       0.163037         4.4364 
 279   0.0000       0.164201         4.4681 
 280   0.0000       0.170161         4.6303 
 281   0.0000       0.170724         4.6456 
 282   0.0000       0.177445         4.8285 
 283   0.0000       0.183065         4.9814 
 284   0.0000       0.185593         5.0503 
 285   0.0000       0.190241         5.1767 
 286   0.0000       0.192486         5.2378 
 287   0.0000       0.196048         5.3347 
 288   0.0000       0.198133         5.3915 
 289   0.0000       0.198969         5.4142 
 290   0.0000       0.201680         5.4880 
 291   0.0000       0.202562         5.5120 
 292   0.0000       0.205097         5.5810 
 293   0.0000       0.206684         5.6242 
 294   0.0000       0.208396         5.6707 
 295   0.0000       0.209425         5.6987 
 296   0.0000       0.210576         5.7301 
 297   0.0000       0.215638         5.8678 
 298   0.0000       0.216100         5.8804 
 299   0.0000       0.220941         6.0121 
 300   0.0000       0.225340         6.1318 
 301   0.0000       0.229327         6.2403 
 302   0.0000       0.230393         6.2693 
 303   0.0000       0.232022         6.3137 
 304   0.0000       0.232209         6.3187 
 305   0.0000       0.237694         6.4680 
 306   0.0000       0.239878         6.5274 
 307   0.0000       0.244872         6.6633 
 308   0.0000       0.245746         6.6871 
 309   0.0000       0.247521         6.7354 
 310   0.0000       0.249808         6.7976 
 311   0.0000       0.250853         6.8261 
 312   0.0000       0.252854         6.8805 
 313   0.0000       0.253960         6.9106 
 314   0.0000       0.256723         6.9858 
 315   0.0000       0.259130         7.0513 
 316   0.0000       0.260419         7.0863 
 317   0.0000       0.262355         7.1390 
 318   0.0000       0.265447         7.2232 
 319   0.0000       0.266555         7.2533 
 320   0.0000       0.270323         7.3559 
 321   0.0000       0.274060         7.4575 
 322   0.0000       0.276403         7.5213 
 323   0.0000       0.276880         7.5343 
 324   0.0000       0.277569         7.5530 
 325   0.0000       0.280497         7.6327 
 326   0.0000       0.281508         7.6602 
 327   0.0000       0.284548         7.7429 
 328   0.0000       0.290270         7.8987 
 329   0.0000       0.294250         8.0070 
 330   0.0000       0.296955         8.0805 
 331   0.0000       0.305895         8.3238 
 332   0.0000       0.310643         8.4530 
 333   0.0000       0.318843         8.6762 
 334   0.0000       0.319983         8.7072 
 335   0.0000       0.324878         8.8404 
 336   0.0000       0.328773         8.9464 
 337   0.0000       0.330686         8.9984 
 338   0.0000       0.331796         9.0286 
 339   0.0000       0.334518         9.1027 
 340   0.0000       0.342256         9.3133 
 341   0.0000       0.343282         9.3412 
 342   0.0000       0.347192         9.4476 
 343   0.0000       0.349413         9.5080 
 344   0.0000       0.351689         9.5700 
 345   0.0000       0.353806         9.6276 
 346   0.0000       0.359261         9.7760 
 347   0.0000       0.361258         9.8303 
 348   0.0000       0.363780         9.8989 
 349   0.0000       0.365351         9.9417 
 350   0.0000       0.366171         9.9640 
 351   0.0000       0.370066        10.0700 
 352   0.0000       0.373564        10.1652 
 353   0.0000       0.375248        10.2110 
 354   0.0000       0.381480        10.3806 
 355   0.0000       0.383066        10.4238 
 356   0.0000       0.385297        10.4845 
 357   0.0000       0.389519        10.5994 
 358   0.0000       0.390639        10.6298 
 359   0.0000       0.391998        10.6668 
 360   0.0000       0.396417        10.7871 
 361   0.0000       0.402458        10.9514 
 362   0.0000       0.407357        11.0847 
 363   0.0000       0.415903        11.3173 
 364   0.0000       0.416337        11.3291 
 365   0.0000       0.418210        11.3801 
 366   0.0000       0.419498        11.4151 
 367   0.0000       0.420366        11.4387 
 368   0.0000       0.423432        11.5222 
 369   0.0000       0.424663        11.5557 
 370   0.0000       0.429033        11.6746 
 371   0.0000       0.433561        11.7978 
 372   0.0000       0.435861        11.8604 
 373   0.0000       0.440730        11.9929 
 374   0.0000       0.442730        12.0473 
 375   0.0000       0.445984        12.1358 
 376   0.0000       0.448739        12.2108 
 377   0.0000       0.449747        12.2382 
 378   0.0000       0.455152        12.3853 
 379   0.0000       0.455994        12.4082 
 380   0.0000       0.457847        12.4587 
 381   0.0000       0.462383        12.5821 
 382   0.0000       0.466337        12.6897 
 383   0.0000       0.468312        12.7434 
 384   0.0000       0.473262        12.8781 
 385   0.0000       0.476244        12.9592 
 386   0.0000       0.479917        13.0592 
 387   0.0000       0.485403        13.2085 
 388   0.0000       0.491122        13.3641 
 389   0.0000       0.495702        13.4887 
 390   0.0000       0.497476        13.5370 
 391   0.0000       0.499483        13.5916 
 392   0.0000       0.501290        13.6408 
 393   0.0000       0.502959        13.6862 
 394   0.0000       0.503727        13.7071 
 395   0.0000       0.512364        13.9421 
 396   0.0000       0.513437        13.9713 
 397   0.0000       0.522027        14.2051 
 398   0.0000       0.531798        14.4710 
 399   0.0000       0.534948        14.5567 
 400   0.0000       0.535699        14.5771 
 401   0.0000       0.538927        14.6650 
 402   0.0000       0.540795        14.7158 
 403   0.0000       0.546330        14.8664 
 404   0.0000       0.549026        14.9397 
 405   0.0000       0.552651        15.0384 
 406   0.0000       0.560141        15.2422 
 407   0.0000       0.564917        15.3722 
 408   0.0000       0.566650        15.4193 
 409   0.0000       0.570842        15.5334 
 410   0.0000       0.572814        15.5871 
 411   0.0000       0.578681        15.7467 
 412   0.0000       0.582435        15.8489 
 413   0.0000       0.583903        15.8888 
 414   0.0000       0.587357        15.9828 
 415   0.0000       0.587970        15.9995 
 416   0.0000       0.589459        16.0400 
 417   0.0000       0.593343        16.1457 
 418   0.0000       0.596230        16.2243 
 419   0.0000       0.599306        16.3079 
 420   0.0000       0.604363        16.4456 
 421   0.0000       0.605574        16.4785 
 422   0.0000       0.608683        16.5631 
 423   0.0000       0.610904        16.6235 
 424   0.0000       0.615041        16.7361 
 425   0.0000       0.616957        16.7882 
 426   0.0000       0.618947        16.8424 
 427   0.0000       0.619272        16.8512 
 428   0.0000       0.623046        16.9539 
 429   0.0000       0.628256        17.0957 
 430   0.0000       0.632149        17.2016 
 431   0.0000       0.633358        17.2345 
 432   0.0000       0.638689        17.3796 
 433   0.0000       0.640791        17.4368 
 434   0.0000       0.642331        17.4787 
 435   0.0000       0.645940        17.5769 
 436   0.0000       0.651377        17.7249 
 437   0.0000       0.656284        17.8584 
 438   0.0000       0.657505        17.8916 
 439   0.0000       0.661236        17.9931 
 440   0.0000       0.665689        18.1143 
 441   0.0000       0.668021        18.1778 
 442   0.0000       0.671750        18.2792 
 443   0.0000       0.672341        18.2953 
 444   0.0000       0.674145        18.3444 
 445   0.0000       0.679142        18.4804 
 446   0.0000       0.681504        18.5447 
 447   0.0000       0.682401        18.5691 
 448   0.0000       0.683556        18.6005 
 449   0.0000       0.684838        18.6354 
 450   0.0000       0.690837        18.7986 
 451   0.0000       0.694680        18.9032 
 452   0.0000       0.697211        18.9721 
 453   0.0000       0.698868        19.0172 
 454   0.0000       0.699772        19.0418 
 455   0.0000       0.701121        19.0785 
 456   0.0000       0.707958        19.2645 
 457   0.0000       0.712569        19.3900 
 458   0.0000       0.712976        19.4011 
 459   0.0000       0.720658        19.6101 
 460   0.0000       0.723476        19.6868 
 461   0.0000       0.724391        19.7117 
 462   0.0000       0.725952        19.7541 
 463   0.0000       0.730349        19.8738 
 464   0.0000       0.731695        19.9104 
 465   0.0000       0.732490        19.9321 
 466   0.0000       0.733845        19.9689 
 467   0.0000       0.737870        20.0785 
 468   0.0000       0.740440        20.1484 
 469   0.0000       0.745561        20.2877 
 470   0.0000       0.749284        20.3890 
 471   0.0000       0.751795        20.4574 
 472   0.0000       0.755502        20.5582 
 473   0.0000       0.755739        20.5647 
 474   0.0000       0.756970        20.5982 
 475   0.0000       0.757801        20.6208 
 476   0.0000       0.759873        20.6772 
 477   0.0000       0.764957        20.8155 
 478   0.0000       0.768267        20.9056 
 479   0.0000       0.769540        20.9403 
 480   0.0000       0.773444        21.0465 
 481   0.0000       0.776182        21.1210 
 482   0.0000       0.777381        21.1536 
 483   0.0000       0.784443        21.3458 
 484   0.0000       0.789438        21.4817 
 485   0.0000       0.790903        21.5216 
 486   0.0000       0.793891        21.6029 
 487   0.0000       0.794750        21.6263 
 488   0.0000       0.798100        21.7174 
 489   0.0000       0.801108        21.7993 
 490   0.0000       0.802097        21.8262 
 491   0.0000       0.806394        21.9431 
 492   0.0000       0.812031        22.0965 
 493   0.0000       0.813244        22.1295 
 494   0.0000       0.818083        22.2612 
 495   0.0000       0.819197        22.2915 
 496   0.0000       0.824332        22.4312 
 497   0.0000       0.825017        22.4499 
 498   0.0000       0.828845        22.5540 
 499   0.0000       0.830418        22.5968 
 500   0.0000       0.832451        22.6522 
 501   0.0000       0.836494        22.7622 
 502   0.0000       0.836628        22.7658 
 503   0.0000       0.838810        22.8252 
 504   0.0000       0.840578        22.8733 
 505   0.0000       0.842415        22.9233 
 506   0.0000       0.846114        23.0239 
 507   0.0000       0.848146        23.0792 
 508   0.0000       0.848717        23.0948 
 509   0.0000       0.853390        23.2219 
 510   0.0000       0.855424        23.2773 
 511   0.0000       0.855482        23.2788 
 512   0.0000       0.857239        23.3266 
 513   0.0000       0.859323        23.3834 
 514   0.0000       0.862302        23.4644 
 515   0.0000       0.865082        23.5401 
 516   0.0000       0.865938        23.5634 
 517   0.0000       0.868496        23.6330 
 518   0.0000       0.870588        23.6899 
 519   0.0000       0.874118        23.7860 
 520   0.0000       0.876043        23.8383 
 521   0.0000       0.878111        23.8946 
 522   0.0000       0.881276        23.9807 
 523   0.0000       0.882336        24.0096 
 524   0.0000       0.884017        24.0553 
 525   0.0000       0.885357        24.0918 
 526   0.0000       0.888230        24.1700 
 527   0.0000       0.890793        24.2397 
 528   0.0000       0.890994        24.2452 
 529   0.0000       0.893173        24.3045 
 530   0.0000       0.894502        24.3406 
 531   0.0000       0.897597        24.4249 
 532   0.0000       0.899259        24.4701 
 533   0.0000       0.900142        24.4941 
 534   0.0000       0.901083        24.5197 
 535   0.0000       0.902585        24.5606 
 536   0.0000       0.903447        24.5840 
 537   0.0000       0.904985        24.6259 
 538   0.0000       0.905875        24.6501 
 539   0.0000       0.906925        24.6787 
 540   0.0000       0.910611        24.7790 
 541   0.0000       0.911618        24.8064 
 542   0.0000       0.914020        24.8717 
 543   0.0000       0.914774        24.8923 
 544   0.0000       0.916251        24.9325 
 545   0.0000       0.919358        25.0170 
 546   0.0000       0.919916        25.0322 
 547   0.0000       0.920418        25.0458 
 548   0.0000       0.923445        25.1282 
 549   0.0000       0.923831        25.1387 
 550   0.0000       0.926763        25.2185 
 551   0.0000       0.928693        25.2710 
 552   0.0000       0.929623        25.2963 
 553   0.0000       0.931556        25.3489 
[...]
   Using LibInt in JK Direct
   Time for J+K (Direct):  2057.836
   Time for Sigma-Completion:    16.275
   Size of expansion space: 21
   Lowest Energy          :     0.092205189743
   Maximum Energy change  :     0.000376432291 (vector 2)
   Maximum residual norm  :     0.000053934065

                       ****Iteration    5****
   Time for densities:     1.358
   Using LibInt in JK Direct
   Time for J+K (Direct):  2045.609
   Time for Sigma-Completion:    17.217
   Size of expansion space: 24
   Lowest Energy          :     0.092196527044
   Maximum Energy change  :     0.000171771337 (vector 2)
   Maximum residual norm  :     0.000024465143

                       ****Iteration    6****
   Time for densities:     1.451
   Using LibInt in JK Direct
   Time for J+K (Direct):  2042.868
   Time for Sigma-Completion:    19.784
   Size of expansion space: 27
   Lowest Energy          :     0.092195230580
   Maximum Energy change  :     0.000055365379 (vector 2)
   Maximum residual norm  :     0.000007459989

                       ****Iteration    7****
   Time for densities:     1.499
   Using LibInt in JK Direct
   Time for J+K (Direct):  1948.918
   Time for Sigma-Completion:    17.912
   Size of expansion space: 30
   Lowest Energy          :     0.092194986167
   Maximum Energy change  :     0.000018439260 (vector 2)
   Maximum residual norm  :     0.000002557160
   Rebuilding the expansion space

                       ****Iteration    8****
   Time for densities:     3.496
   Using LibInt in JK Direct
   Time for J+K (Direct):  4045.423
   Time for Sigma-Completion:    34.088
   Size of expansion space: 6
   Lowest Energy          :     0.092194946544
   Maximum Energy change  :     0.000004150594 (vector 2)
   Maximum residual norm  :     0.000000736829

                       ****Iteration    9****
   Time for densities:     1.400
   Using LibInt in JK Direct
   Time for J+K (Direct):  2033.423
   Time for Sigma-Completion:    20.133
   Size of expansion space: 9
   Lowest Energy          :     0.092194929325
   Maximum Energy change  :     0.000002230579 (vector 2)
   Maximum residual norm  :     0.000000315347

                       ****Iteration   10****
   Time for densities:     1.673
   Using LibInt in JK Direct
   Time for J+K (Direct):  1925.395
   Time for Sigma-Completion:    13.305
   Size of expansion space: 12
   Lowest Energy          :     0.092194924587
   Maximum Energy change  :     0.000000823920 (vector 2)
   Maximum residual norm  :     0.000000099777

      *** CONVERGENCE OF RESIDUAL NORM REACHED ***

Storing the converged CI vectors               ... IDST-4F.cis1

                 *** DAVIDSON DONE ***

Total time for solving the CIS problem: 28282.951sec

-----------------------------
CIS-EXCITED STATES (SINGLETS)
-----------------------------

the weight of the individual excitations are printed if larger than 1.0e-02

STATE  1:  E=   0.092195 au      2.509 eV    20234.4 cm**-1
   260a -> 263a  :     0.175741 (c=  0.41921510)
   261a -> 262a  :     0.652756 (c=  0.80793295)
   261a -> 264a  :     0.023926 (c=  0.15467984)
   261a -> 266a  :     0.023236 (c= -0.15243409)

STATE  2:  E=   0.110445 au      3.005 eV    24239.9 cm**-1
   258a -> 263a  :     0.017107 (c= -0.13079542)
   259a -> 263a  :     0.058727 (c=  0.24233744)
   260a -> 262a  :     0.341353 (c=  0.58425456)
   260a -> 263a  :     0.041755 (c=  0.20433978)
   261a -> 263a  :     0.402249 (c=  0.63423090)
   261a -> 265a  :     0.010520 (c= -0.10256470)
   261a -> 267a  :     0.014321 (c= -0.11967148)

STATE  3:  E=   0.148452 au      4.040 eV    32581.5 cm**-1
   252a -> 263a  :     0.016628 (c= -0.12894850)
   257a -> 263a  :     0.023493 (c=  0.15327578)
   258a -> 262a  :     0.032486 (c=  0.18023977)
   258a -> 264a  :     0.012764 (c= -0.11297753)
   259a -> 262a  :     0.178907 (c= -0.42297382)
   260a -> 263a  :     0.163658 (c= -0.40454630)
   260a -> 265a  :     0.011506 (c= -0.10726657)
   261a -> 262a  :     0.013179 (c=  0.11480195)
   261a -> 264a  :     0.187523 (c=  0.43303966)
   261a -> 265a  :     0.010645 (c= -0.10317219)
   261a -> 266a  :     0.153697 (c= -0.39204170)
   261a -> 268a  :     0.036520 (c= -0.19110188)


----------------------
CIS-EXCITATION SPECTRA
----------------------

Center of mass = ( -0.7471,  4.1156,  2.6003)
Calculating the Dipole integrals                  ... done
Transforming integrals                            ... done
Calculating the Linear Momentum integrals         ... done
Transforming integrals                            ... done
Calculating angular momentum integrals            ... done
Transforming integrals                            ... done

-----------------------------------------------------------------------------
         ABSORPTION SPECTRUM VIA TRANSITION ELECTRIC DIPOLE MOMENTS
-----------------------------------------------------------------------------
State   Energy    Wavelength  fosc         T2        TX        TY        TZ  
        (cm-1)      (nm)                 (au**2)    (au)      (au)      (au) 
-----------------------------------------------------------------------------
   1   20234.4    494.2   1.823082198  29.66132   0.95569  -5.31693  -0.69156
   2   24239.9    412.5   0.059312918   0.80555  -0.40276  -0.71808  -0.35735
   3   32581.5    306.9   0.851099839   8.59974  -2.07991  -2.03263  -0.37698

-----------------------------------------------------------------------------
         ABSORPTION SPECTRUM VIA TRANSITION VELOCITY DIPOLE MOMENTS
-----------------------------------------------------------------------------
State   Energy    Wavelength   fosc        P2         PX        PY        PZ  
        (cm-1)      (nm)                 (au**2)     (au)      (au)      (au) 
-----------------------------------------------------------------------------
   1   20234.4    494.2   1.040466196   0.14389  -0.07931   0.37084   0.00854
   2   24239.9    412.5   0.028662621   0.00475   0.04103   0.05306   0.01581
   3   32581.5    306.9   0.103908462   0.02314   0.06750   0.12396   0.05671

-------------------------------------------------------------------
                             CD SPECTRUM
-------------------------------------------------------------------
State  Energy     Wavelength     R         MX        MY        MZ   
       (cm-1)       (nm)     (1e40*cgs)   (au)      (au)      (au)  
-------------------------------------------------------------------
   1   20234.4    494.2    -258.94288  -0.14871   0.00976   0.51366
   2   24239.9    412.5    123.05448   0.80540   0.19902  -2.03808
   3   32581.5    306.9    227.07805  -0.11426  -0.09061  -0.15868

Total run time:    28362.917 sec

           *** ORCA-CIS/TD-DFT FINISHED WITHOUT ERROR ***

-----------------------
CIS/TD-DFT TOTAL ENERGY
-----------------------

    E(SCF)  =  -4533.087626306 Eh
    DE(CIS) =      0.092194925 Eh (Root  1)
    ----------------------------- ---------
    E(tot)  =  -4532.995431381 Eh


-------------------------   --------------------
FINAL SINGLE POINT ENERGY     -4532.995431380996
-------------------------   --------------------

------------------------------------------------------------------------------
                         ORCA SCF GRADIENT CALCULATION
------------------------------------------------------------------------------


------------
CIS GRADIENT
------------

Reference wavefunction             ... RHF
State of interest                  ... 1
Basis dimension                    ... 1200
DFT-XC contribution needed         ... NO
RI-approximation                   ... OFF
CIS-vectors being read from        ... IDST-4F.cis

 => Number of Vectors found: 3
 => Orbital Window: 87...261 -> 262...1199

Reading the CIS file                     ... done
Norm of the CI vector                    ... 1.000000000
Making the CIS (pseudo)densities         ... done
Making operators G(D) and Q(T)           ... done
Transforming the Fock operators          ... done
Making the frozen-core relaxed density   ... done
Constructing the G(H) operator           ... done
Transforming the G(H) operator           ... done
Calculating the CIS Lagrangian           ... done
Solving the Z-vector equations           ... done
Finalizing the relaxed density           ... done
Storing the relaxed density              ... done
Constructing the G(Z) operator           ... done
Transforming the G(Z) operator           ... done
Making the W-matrix                      ... done
Finalizing the W-matrix                  ... done
Transforming the W-matrix                ... done
Nuclear repulsion gradient               ... done
One-Electron gradient                    ... done
Prescreening matrices                    ... done
Two-Electron gradient (4-center)         ... done
                 ---------------------------
                 EXCITED STATE GRADIENT DONE
                 ---------------------------


------------------
CARTESIAN GRADIENT
------------------

   1   C   :   -0.002802362    0.009960253   -0.002868834
   2   C   :    0.001386527   -0.008350770    0.000885318
   3   C   :   -0.005853776    0.004119160   -0.008335136
   4   C   :    0.010261289    0.000461897    0.005892460
   5   C   :   -0.001492904   -0.007657755   -0.002338642
   6   C   :    0.004383866    0.007747835    0.003940416
   7   C   :    0.000848398   -0.000623807    0.003368322
   8   S   :   -0.000318784   -0.004774354   -0.002193862
   9   C   :   -0.004087661   -0.007020804   -0.004999143
  10   C   :    0.001757163    0.006737048    0.003790703
  11   C   :   -0.010486656   -0.001027899   -0.007344561
  12   C   :    0.007139584    0.000466375    0.011867664
  13   C   :   -0.002487039   -0.003517914   -0.005286709
  14   C   :   -0.003995340   -0.004938075   -0.004182863
  15   C   :    0.003143175    0.007418961    0.004585485
  16   S   :   -0.006970442    0.004989368    0.005277953
  17   C   :   -0.000964526    0.004380277    0.005500101
  18   C   :    0.001602551   -0.002383843    0.001431392
  19   C   :   -0.007590953    0.001368858   -0.000584830
  20   C   :    0.003271896   -0.001594407    0.002685060
  21   C   :    0.000486042   -0.004584897   -0.002116715
  22   C   :    0.001295238    0.004190576   -0.000276305
  23   C   :    0.007238068   -0.000215908    0.000776991
  24   C   :   -0.003289086    0.000648399   -0.002932891
  25   C   :   -0.000143266    0.004733081    0.002482936
  26   C   :   -0.001640687   -0.004311745   -0.000014298
  27   C   :   -0.004082334   -0.003290070   -0.002878191
  28   C   :   -0.006524859    0.000866835   -0.000261839
  29   C   :    0.009160827    0.013235514   -0.015193113
  30   C   :   -0.008363244   -0.018956756    0.005806619
  31   C   :    0.010860756   -0.001808691    0.005047364
  32   C   :   -0.035378087   -0.009477819   -0.012171332
  33   C   :    0.000621052   -0.004280744    0.003091447
  34   C   :    0.011556161   -0.009935801    0.010373191
  35   C   :    0.002955139   -0.016329498    0.008040114
  36   C   :    0.003524677    0.000264738    0.000775843
  37   O   :    0.035384205    0.011127592    0.013554811
  38   C   :   -0.018141641   -0.011985309    0.009523025
  39   C   :    0.054718337   -0.004000050    0.016902620
  40   C   :   -0.005175767    0.038769924   -0.045243993
  41   F   :   -0.021079608    0.007522743   -0.013739051
  42   F   :    0.002499992    0.024522551   -0.008715501
  43   N   :   -0.031262305    0.000583349   -0.007942726
  44   N   :    0.006813704   -0.026425911    0.022563603
  45   C   :    0.005682242    0.001287976    0.003004350
  46   C   :    0.002436137    0.001984150   -0.002894748
  47   C   :    0.000955475   -0.006958937    0.019587972
  48   C   :   -0.001503596    0.017244355   -0.013170051
  49   C   :   -0.011393631   -0.004039178   -0.003191441
  50   C   :    0.028334234    0.024571142    0.000484067
  51   C   :   -0.002182493    0.002139566   -0.003837280
  52   C   :   -0.014901778    0.000876606   -0.010195740
  53   C   :   -0.010473072    0.009159809   -0.011587540
  54   C   :   -0.002946817   -0.002097388    0.000379146
  55   O   :   -0.027645102   -0.027377376   -0.001364002
  56   C   :    0.010751902    0.011543485   -0.015381776
  57   C   :   -0.051489253   -0.023412244   -0.004805594
  58   C   :    0.023297802   -0.012169412    0.052069398
  59   F   :    0.022861449    0.006583690    0.010246729
  60   F   :    0.008718463   -0.018127907    0.015704110
  61   N   :    0.028668250    0.014132155    0.000611857
  62   N   :   -0.017325365    0.009812672   -0.026626777
  63   C   :   -0.008351099   -0.003087715   -0.004065954
  64   S   :    0.005757964    0.000847582   -0.005230366
  65   C   :   -0.000938734   -0.002884331   -0.006466498
  66   C   :   -0.000895051   -0.003042119    0.000621378
  67   C   :    0.007992582    0.005239103    0.005687413
  68   S   :    0.007317875    0.005254794    0.002600850
  69   C   :   -0.006590746   -0.007594245   -0.001602542
  70   C   :    0.000532474    0.003532454   -0.000122607
  71   C   :   -0.001733663   -0.004792248   -0.000092336
  72   H   :    0.000611887   -0.001607877    0.001533644
  73   H   :   -0.001001614   -0.000171590   -0.000862252
  74   H   :    0.001155611    0.000163996    0.000680012
  75   H   :   -0.003211571   -0.001041314   -0.002861123
  76   H   :    0.002379168    0.000745796    0.002152247
  77   H   :    0.001844960   -0.002036417    0.001023300
  78   H   :   -0.002667809   -0.000290179    0.001059333
  79   H   :   -0.002072657   -0.000318567    0.002424774
  80   H   :   -0.002248532    0.000938190    0.001480518
  81   H   :    0.001560315    0.001204972    0.001731841
  82   H   :    0.000730485    0.001045022   -0.001448891
  83   H   :    0.001686440   -0.002258178   -0.000421938
  84   H   :    0.002312216   -0.001762096   -0.000217171
  85   H   :    0.001116172   -0.002980962    0.001756428
  86   H   :   -0.001822630    0.001837220   -0.000985082
  87   H   :   -0.002366260   -0.000668236   -0.002322900
  88   H   :    0.002420981   -0.000047435   -0.001394692
  89   H   :    0.002129256    0.000554213   -0.002382360
  90   H   :    0.002711602    0.000474705   -0.000969145
  91   H   :   -0.000715319   -0.001257905    0.001299692
  92   H   :   -0.001416965   -0.001054897   -0.001793512
  93   H   :   -0.000930651    0.003100587   -0.001850130
  94   H   :   -0.002350010    0.001805292    0.000109875
  95   H   :   -0.001536927    0.002322463    0.000505463
  96   H   :    0.001259276   -0.000372969   -0.000204326
  97   H   :    0.000579337   -0.002246427    0.000938386
  98   H   :   -0.000968090   -0.001608976    0.000178972
  99   H   :   -0.001397896   -0.000238897    0.000879578
 100   H   :   -0.001581854    0.001347287   -0.001389629
 101   H   :    0.000171559    0.001654719   -0.000864420
 102   H   :    0.001850453    0.001592105    0.000514088
 103   H   :    0.000309639    0.001138845    0.002143754
 104   H   :    0.001726719    0.001679513   -0.001877949
 105   H   :    0.000814537   -0.001451483   -0.000371165
 106   H   :   -0.000158801   -0.001150240    0.001090055
 107   H   :    0.000466607    0.002624658    0.002174049
 108   H   :    0.003245898    0.000684113    0.001148332
 109   H   :    0.001650702    0.002402000   -0.001512570

Difference to translation invariance:
           :    0.0000000000    0.0000000001   -0.0000000000

Norm of the cartesian gradient     ...    0.1843165578
RMS gradient                       ...    0.0101927289
MAX gradient                       ...    0.0547183366

-------
TIMINGS
-------

Total CIS gradient time            ...    22692.643 sec

Fock matrix formation       ....    1677.582 sec  (  7.4%)
  Coulomb formation         ....    1677.582 sec  (100.0% of F)
Z-vector equation           ....   19199.109 sec  ( 84.6%)
One electron gradient       ....      13.341 sec  (  0.1%)
Prescreening matrices       ....       1.061 sec  (  0.0%)
Two electron gradient       ....    1798.787 sec  (  7.9%)

                            ***************************************
                            *     ORCA property calculations      *
                            ***************************************

                                    ---------------------
                                    Active property flags
                                    ---------------------
   (+) Dipole Moment


------------------------------------------------------------------------------
                       ORCA ELECTRIC PROPERTIES CALCULATION
------------------------------------------------------------------------------

Dipole Moment Calculation                       ... on
Quadrupole Moment Calculation                   ... off
Polarizability Calculation                      ... off
GBWName                                         ... IDST-4F.gbw
Electron density file                           ... IDST-4F.scfp
The origin for moment calculation is the CENTER OF MASS  = (-0.747065,  4.115628  2.600332)

-------------
DIPOLE MOMENT
-------------
                                X             Y             Z
Electronic contribution:     40.98802      12.57426      18.68797
Nuclear contribution   :    -42.06127     -13.89680     -19.06208
                        -----------------------------------------
Total Dipole Moment    :     -1.07325      -1.32254      -0.37412
                        -----------------------------------------
Magnitude (a.u.)       :      1.74383
Magnitude (Debye)      :      4.43247



--------------------
Rotational spectrum 
--------------------
 
Rotational constants in cm-1:     0.001717     0.000292     0.000261 
Rotational constants in MHz :    51.485562     8.759856     7.829477 

 Dipole components along the rotational axes: 
x,y,z [a.u.] :     1.222209    -1.174149     0.410528 
x,y,z [Debye]:     3.106607    -2.984450     1.043480 

 

                        *** CIS RELAXED DENSITY ***

------------------------------------------------------------------------------
                       ORCA ELECTRIC PROPERTIES CALCULATION
------------------------------------------------------------------------------

Dipole Moment Calculation                       ... on
Quadrupole Moment Calculation                   ... off
Polarizability Calculation                      ... off
GBWName                                         ... IDST-4F.gbw
Electron density file                           ... IDST-4F.cisp
The origin for moment calculation is the CENTER OF MASS  = (-0.747065,  4.115628  2.600332)

-------------
DIPOLE MOMENT
-------------
                                X             Y             Z
Electronic contribution:     40.47581      13.08429      18.50651
Nuclear contribution   :    -42.06127     -13.89680     -19.06208
                        -----------------------------------------
Total Dipole Moment    :     -1.58547      -0.81251      -0.55557
                        -----------------------------------------
Magnitude (a.u.)       :      1.86616
Magnitude (Debye)      :      4.74340



--------------------
Rotational spectrum 
--------------------
 
Rotational constants in cm-1:     0.001717     0.000292     0.000261 
Rotational constants in MHz :    51.485562     8.759856     7.829477 

 Dipole components along the rotational axes: 
x,y,z [a.u.] :     0.672320    -1.671322     0.487044 
x,y,z [Debye]:     1.708901    -4.248164     1.237967 

 

Timings for individual modules:

Sum of individual times         ...    59656.075 sec (= 994.268 min)
GTO integral calculation        ...        4.510 sec (=   0.075 min)   0.0 %
SCF iterations                  ...     8592.366 sec (= 143.206 min)  14.4 %
CIS module                      ...    28364.933 sec (= 472.749 min)  47.5 %
SCF Gradient evaluation         ...    22694.266 sec (= 378.238 min)  38.0 %
                             ****ORCA TERMINATED NORMALLY****
TOTAL RUN TIME: 0 days 16 hours 34 minutes 17 seconds 142 msec
