
                                 *****************
                                 * O   R   C   A *
                                 *****************

           --- An Ab Initio, DFT and Semiempirical electronic structure package ---

                  #######################################################
                  #                        -***-                        #
                  #          Department of theory and spectroscopy      #
                  #               Directorship: Frank Neese             #
                  #        Max Planck Institute fuer Kohlenforschung    #
                  #                Kaiser Wilhelm Platz 1               #
                  #                 D-45470 Muelheim/Ruhr               #
                  #                      Germany                        #
                  #                                                     #
                  #                  All rights reserved                #
                  #                        -***-                        #
                  #######################################################


                         Program Version 4.2.0 -  RELEASE  -


 With contributions from (in alphabetic order):
   Daniel Aravena         : Magnetic Suceptibility
   Michael Atanasov       : Ab Initio Ligand Field Theory (pilot matlab implementation)
   Alexander A. Auer      : GIAO ZORA, VPT2
   Ute Becker             : Parallelization
   Giovanni Bistoni       : ED, misc. LED, open-shell LED, HFLED
   Martin Brehm           : Molecular dynamics
   Dmytro Bykov           : SCF Hessian
   Vijay G. Chilkuri      : MRCI spin determinant printing, contributions to CSF-ICE
   Dipayan Datta          : RHF DLPNO-CCSD density
   Achintya Kumar Dutta   : EOM-CC, STEOM-CC
   Dmitry Ganyushin       : Spin-Orbit,Spin-Spin,Magnetic field MRCI
   Miquel Garcia          : C-PCM Hessian, Gaussian charge scheme
   Yang Guo               : DLPNO-NEVPT2, CIM, IAO-localization
   Andreas Hansen         : Spin unrestricted coupled pair/coupled cluster methods
   Benjamin Helmich-Paris : CASSCF linear response (MC-RPA)
   Lee Huntington         : MR-EOM, pCC
   Robert Izsak           : Overlap fitted RIJCOSX, COSX-SCS-MP3, EOM
   Christian Kollmar      : KDIIS, OOCD, Brueckner-CCSD(T), CCSD density
   Simone Kossmann        : Meta GGA functionals, TD-DFT gradient, OOMP2, MP2 Hessian
   Martin Krupicka        : AUTO-CI
   Lucas Lang             : DCDCAS
   Dagmar Lenk            : GEPOL surface, SMD
   Dimitrios Liakos       : Extrapolation schemes; Compound Job, initial MDCI parallelization
   Dimitrios Manganas     : Further ROCIS development; embedding schemes
   Dimitrios Pantazis     : SARC Basis sets
   Taras Petrenko         : DFT Hessian,TD-DFT gradient, ASA, ECA, R-Raman, ABS, FL, XAS/XES, NRVS
   Peter Pinski           : DLPNO-MP2, DLPNO-MP2 Gradient
   Christoph Reimann      : Effective Core Potentials
   Marius Retegan         : Local ZFS, SOC
   Christoph Riplinger    : Optimizer, TS searches, QM/MM, DLPNO-CCSD(T), (RO)-DLPNO pert. Triples
   Tobias Risthaus        : Range-separated hybrids, TD-DFT gradient, RPA, STAB
   Michael Roemelt        : Original ROCIS implementation
   Masaaki Saitow         : Open-shell DLPNO-CCSD energy and density
   Barbara Sandhoefer     : DKH picture change effects
   Avijit Sen             : IP-ROCIS
   Kantharuban Sivalingam : CASSCF convergence, NEVPT2, FIC-MRCI
   Bernardo de Souza      : ESD, SOC TD-DFT
   Georgi Stoychev        : AutoAux, RI-MP2 NMR
   Willem Van den Heuvel  : Paramagnetic NMR
   Boris Wezisla          : Elementary symmetry handling
   Frank Wennmohs         : Technical directorship


 We gratefully acknowledge several colleagues who have allowed us to
 interface, adapt or use parts of their codes:
   Stefan Grimme, W. Hujo, H. Kruse,             : VdW corrections, initial TS optimization,
                  C. Bannwarth                     DFT functionals, gCP, sTDA/sTD-DF
   Ed Valeev, F. Pavosevic, A. Kumar             : LibInt (2-el integral package), F12 methods
   Garnet Chan, S. Sharma, J. Yang, R. Olivares  : DMRG
   Ulf Ekstrom                                   : XCFun DFT Library
   Mihaly Kallay                                 : mrcc  (arbitrary order and MRCC methods)
   Andreas Klamt, Michael Diedenhofen            : otool_cosmo (COSMO solvation model)
   Jiri Pittner, Ondrej Demel                    : Mk-CCSD
   Frank Weinhold                                : gennbo (NPA and NBO analysis)
   Christopher J. Cramer and Donald G. Truhlar   : smd solvation model
   Lars Goerigk                                  : TD-DFT with DH, B97 family of functionals
   V. Asgeirsson, H. Jonsson                     : NEB implementation
   FAccTs GmbH                                   : IRC, NEB, NEB-TS, Multilevel, MM, QM/MM, CI optimization
   S Lehtola, MJT Oliveira, MAL Marques          : LibXC Library


 Your calculation uses the libint2 library for the computation of 2-el integrals
 For citations please refer to: http://libint.valeyev.net

 Your ORCA version has been built with support for libXC version: 4.2.3
 For citations please refer to: https://tddft.org/programs/libxc/

 This ORCA versions uses:
   CBLAS   interface :  Fast vector & matrix operations
   LAPACKE interface :  Fast linear algebra routines
   SCALAPACK package :  Parallel linear algebra routines


----- Orbital basis set information -----
Your calculation utilizes the basis: def2-SVP
   F. Weigend and R. Ahlrichs, Phys. Chem. Chem. Phys. 7, 3297 (2005).

================================================================================
                                        WARNINGS
                       Please study these warnings very carefully!
================================================================================

INFO   : Checking CIS options ...

WARNING: CIS/ROCIS methods need fully converged wavefunctions
  ===> : Setting SCFConvForced true
         You can overwrite this default with %scf ConvForced false 


INFO   : the flag for use of LIBINT has been found!

================================================================================
                                       INPUT FILE
================================================================================
NAME = IDTT-TBTA.inp
|  1> # ORCA input file
|  2> # IDTT-TBTA.out
|  3> ! Engrad Keepdens
|  4> %maxcore 1000
|  5> %tddft
|  6>   nroots 3 
|  7>   # nroots is the number of states to be computed
|  8>   Iroot 1
|  9>   end
| 10> * xyz 0 1
| 11>    C        1.23932         0.59114        -0.55985
| 12>    C        0.45534         1.75481        -0.56167
| 13>    C        0.68150         3.06145        -0.15261
| 14>    C       -0.41982         3.87402        -0.36755
| 15>    C       -1.52629         3.21672        -0.94873
| 16>    S       -1.17914         1.56052        -1.22703
| 17>    C       -2.60985         4.07033        -1.13536
| 18>    C       -3.99458         3.99699        -1.72087
| 19>    C       -4.93340         3.07223        -0.97056
| 20>    C       -4.69659         2.73018         0.35300
| 21>    C       -5.58423         1.92039         1.03743
| 22>    C       -6.73134         1.43871         0.42216
| 23>    C       -7.71674         0.59681         1.17980
| 24>    C       -8.78469         1.47964         1.82899
| 25>    C       -6.97046         1.79571        -0.89885
| 26>    C       -6.08573         2.60244        -1.58805
| 27>    C       -3.83690         3.59312        -3.17649
| 28>    C       -3.79859         4.53141        -4.19702
| 29>    C       -3.58860         4.13127        -5.50483
| 30>    C       -3.40448         2.79312        -5.82322
| 31>    C       -3.12750         2.36605        -7.23565
| 32>    C       -1.61949         2.29567        -7.48518
| 33>    C       -3.43025         1.86004        -4.79378
| 34>    C       -3.64126         2.25245        -3.48681
| 35>    C       -4.46353         5.42832        -1.52212
| 36>    C       -3.45041         6.21499        -0.92406
| 37>    C       -2.32494         5.35902        -0.71388
| 38>    S       -0.73393         5.56116        -0.06689
| 39>    C       -3.63938         7.56280        -0.63147
| 40>    C       -4.86676         8.10490        -0.93262
| 41>    C       -5.33523         9.53561        -0.73362
| 42>    C       -5.44269         9.96413         0.71906
| 43>    C       -5.65032        11.30765         1.00854
| 44>    C       -5.81106        11.72475         2.31501
| 45>    C       -5.77338        10.81476         3.36430
| 46>    C       -5.90133        11.27696         4.78720
| 47>    C       -4.52590        11.61733         5.36474
| 48>    C       -5.57167         9.47408         3.06736
| 49>    C       -5.41535         9.04832         1.76014
| 50>    C       -4.41781        10.45213        -1.52212
| 51>    C       -4.70112        10.79749        -2.83556
| 52>    C       -3.83241        11.59992        -3.55193
| 53>    C       -2.65781        12.06961        -2.98045
| 54>    C       -1.69510        12.90148        -3.77758
| 55>    C       -0.71919        12.00366        -4.54094
| 56>    C       -2.37299        11.71012        -1.66950
| 57>    C       -3.23983        10.91232        -0.94766
| 58>    C       -6.73235         9.45535        -1.28649
| 59>    C       -7.01344         8.16957        -1.71576
| 60>    C       -5.88216         7.31687        -1.52592
| 61>    C       -5.69093         5.97009        -1.82381
| 62>    S       -8.61631         7.96317        -2.33832
| 63>    C       -8.93189         9.64764        -2.00849
| 64>    C       -7.82168        10.31114        -1.44042
| 65>    S       -8.15516        11.96665        -1.11576
| 66>    C       -9.78864        11.77447        -1.74259
| 67>    C      -10.02807        10.46730        -2.17965
| 68>    C      -10.77401        12.76397        -1.81276
| 69>    C        2.51444         0.27942        -0.14743
| 70>    C      -10.80630        14.08509        -1.42555
| 71>    C      -12.06880        14.78229        -1.66618
| 72>    N      -12.12544        16.10673        -1.25030
| 73>    C      -11.08432        16.77647        -0.67739
| 74>    N       -9.91995        16.09756        -0.44603
| 75>    C       -9.69888        14.77985        -0.81368
| 76>    C        3.47807         1.18380         0.45847
| 77>    N        4.69988         0.62250         0.82108
| 78>    C        5.06372        -0.67249         0.59262
| 79>    N        4.14695        -1.51396         0.03453
| 80>    C        2.87922        -1.12539        -0.37137
| 81>    O      -13.03231        14.26054        -2.19244
| 82>    O       -8.60348        14.27547        -0.60466
| 83>    C       -8.79845        16.79442         0.17488
| 84>    C       -7.94667        17.50957        -0.86516
| 85>    C      -13.37901        16.81107        -1.49701
| 86>    C      -13.34724        17.55011        -2.82798
| 87>    S      -11.22583        18.36971        -0.26586
| 88>    O        3.29132         2.36847         0.66812
| 89>    C        5.66584         1.52956         1.43295
| 90>    S        6.57511        -1.21212         0.98682
| 91>    C        4.50810        -2.90670        -0.20785
| 92>    O        2.12945        -1.93422        -0.88370
| 93>    C        5.20837        -3.07149        -1.54992
| 94>    C        6.56715         2.16866         0.38504
| 95>    H        0.72583        -0.27303        -0.97773
| 96>    H        1.61251         3.37994         0.27636
| 97>    H       -3.81253         3.09493         0.85585
| 98>    H       -5.37956         1.65753         2.06548
| 99>    H       -7.19956         0.02837         1.95516
|100>    H       -8.19857        -0.11002         0.50135
|101>    H       -8.32478         2.18590         2.51672
|102>    H       -9.49756         0.87122         2.38048
|103>    H       -9.32249         2.04352         1.07005
|104>    H       -7.85912         1.43386        -1.39611
|105>    H       -6.28379         2.85798        -2.61900
|106>    H       -3.93361         5.57991        -3.97425
|107>    H       -3.56683         4.87443        -6.28923
|108>    H       -3.57543         3.07668        -7.93298
|109>    H       -3.56761         1.38357        -7.41794
|110>    H       -1.16323         3.26952        -7.32142
|111>    H       -1.41704         1.98427        -8.50723
|112>    H       -1.15639         1.58312        -6.80638
|113>    H       -3.28321         0.81344        -5.01781
|114>    H       -3.66046         1.51304        -2.69923
|115>    H       -2.85169         8.14620        -0.18080
|116>    H       -5.68482        12.03004         0.20648
|117>    H       -5.97457        12.77251         2.52069
|118>    H       -6.36125        10.49269         5.39190
|119>    H       -6.53895        12.16200         4.83194
|120>    H       -3.87835        10.74368         5.33964
|121>    H       -4.61792        11.95213         6.39533
|122>    H       -4.05684        12.40762         4.78290
|123>    H       -5.54320         8.74868         3.86813
|124>    H       -5.27199         7.99735         1.55460
|125>    H       -5.60716        10.44257        -3.30479
|126>    H       -4.07335        11.86682        -4.57111
|127>    H       -1.13329        13.55877        -3.11115
|128>    H       -2.24326        13.52285        -4.48860
|129>    H       -0.15329        11.38504        -3.84792
|130>    H       -0.02177        12.60473        -5.11964
|131>    H       -1.25994        11.34809        -5.22000
|132>    H       -1.46288        12.06298        -1.20562
|133>    H       -3.00726        10.65711         0.07606
|134>    H       -6.47822         5.38582        -2.27427
|135>    H      -10.97036        10.15771        -2.59413
|136>    H      -11.71068        12.42667        -2.25031
|137>    H       -8.20471        16.03675         0.68920
|138>    H       -9.19926        17.50650         0.89761
|139>    H       -7.55660        16.79506        -1.58620
|140>    H       -7.11274        18.00205        -0.37384
|141>    H       -8.53572        18.26015        -1.38675
|142>    H      -13.54689        17.50823        -0.67469
|143>    H      -14.16399        16.05296        -1.50809
|144>    H      -12.56190        18.30224        -2.82715
|145>    H      -14.30085        18.04356        -2.99036
|146>    H      -13.17157        16.84996        -3.64121
|147>    H        6.25720         0.96120         2.15200
|148>    H        5.09075         2.29839         1.95166
|149>    H        3.57709        -3.47594        -0.19833
|150>    H        5.15505        -3.23776         0.60583
|151>    H        4.56286        -2.72611        -2.35397
|152>    H        5.43856        -4.12042        -1.71146
|153>    H        6.13630        -2.50473        -1.56713
|154>    H        7.13871         1.40664        -0.13946
|155>    H        7.25954         2.85038         0.87005
|156>    H        5.97052         2.72621        -0.33308
|157> *
|158> 
|159>                          ****END OF INPUT****
================================================================================

                     *******************************
                     * Energy+Gradient Calculation *
                     *******************************

---------------------------------
CARTESIAN COORDINATES (ANGSTROEM)
---------------------------------
  C      1.239320    0.591140   -0.559850
  C      0.455340    1.754810   -0.561670
  C      0.681500    3.061450   -0.152610
  C     -0.419820    3.874020   -0.367550
  C     -1.526290    3.216720   -0.948730
  S     -1.179140    1.560520   -1.227030
  C     -2.609850    4.070330   -1.135360
  C     -3.994580    3.996990   -1.720870
  C     -4.933400    3.072230   -0.970560
  C     -4.696590    2.730180    0.353000
  C     -5.584230    1.920390    1.037430
  C     -6.731340    1.438710    0.422160
  C     -7.716740    0.596810    1.179800
  C     -8.784690    1.479640    1.828990
  C     -6.970460    1.795710   -0.898850
  C     -6.085730    2.602440   -1.588050
  C     -3.836900    3.593120   -3.176490
  C     -3.798590    4.531410   -4.197020
  C     -3.588600    4.131270   -5.504830
  C     -3.404480    2.793120   -5.823220
  C     -3.127500    2.366050   -7.235650
  C     -1.619490    2.295670   -7.485180
  C     -3.430250    1.860040   -4.793780
  C     -3.641260    2.252450   -3.486810
  C     -4.463530    5.428320   -1.522120
  C     -3.450410    6.214990   -0.924060
  C     -2.324940    5.359020   -0.713880
  S     -0.733930    5.561160   -0.066890
  C     -3.639380    7.562800   -0.631470
  C     -4.866760    8.104900   -0.932620
  C     -5.335230    9.535610   -0.733620
  C     -5.442690    9.964130    0.719060
  C     -5.650320   11.307650    1.008540
  C     -5.811060   11.724750    2.315010
  C     -5.773380   10.814760    3.364300
  C     -5.901330   11.276960    4.787200
  C     -4.525900   11.617330    5.364740
  C     -5.571670    9.474080    3.067360
  C     -5.415350    9.048320    1.760140
  C     -4.417810   10.452130   -1.522120
  C     -4.701120   10.797490   -2.835560
  C     -3.832410   11.599920   -3.551930
  C     -2.657810   12.069610   -2.980450
  C     -1.695100   12.901480   -3.777580
  C     -0.719190   12.003660   -4.540940
  C     -2.372990   11.710120   -1.669500
  C     -3.239830   10.912320   -0.947660
  C     -6.732350    9.455350   -1.286490
  C     -7.013440    8.169570   -1.715760
  C     -5.882160    7.316870   -1.525920
  C     -5.690930    5.970090   -1.823810
  S     -8.616310    7.963170   -2.338320
  C     -8.931890    9.647640   -2.008490
  C     -7.821680   10.311140   -1.440420
  S     -8.155160   11.966650   -1.115760
  C     -9.788640   11.774470   -1.742590
  C    -10.028070   10.467300   -2.179650
  C    -10.774010   12.763970   -1.812760
  C      2.514440    0.279420   -0.147430
  C    -10.806300   14.085090   -1.425550
  C    -12.068800   14.782290   -1.666180
  N    -12.125440   16.106730   -1.250300
  C    -11.084320   16.776470   -0.677390
  N     -9.919950   16.097560   -0.446030
  C     -9.698880   14.779850   -0.813680
  C      3.478070    1.183800    0.458470
  N      4.699880    0.622500    0.821080
  C      5.063720   -0.672490    0.592620
  N      4.146950   -1.513960    0.034530
  C      2.879220   -1.125390   -0.371370
  O    -13.032310   14.260540   -2.192440
  O     -8.603480   14.275470   -0.604660
  C     -8.798450   16.794420    0.174880
  C     -7.946670   17.509570   -0.865160
  C    -13.379010   16.811070   -1.497010
  C    -13.347240   17.550110   -2.827980
  S    -11.225830   18.369710   -0.265860
  O      3.291320    2.368470    0.668120
  C      5.665840    1.529560    1.432950
  S      6.575110   -1.212120    0.986820
  C      4.508100   -2.906700   -0.207850
  O      2.129450   -1.934220   -0.883700
  C      5.208370   -3.071490   -1.549920
  C      6.567150    2.168660    0.385040
  H      0.725830   -0.273030   -0.977730
  H      1.612510    3.379940    0.276360
  H     -3.812530    3.094930    0.855850
  H     -5.379560    1.657530    2.065480
  H     -7.199560    0.028370    1.955160
  H     -8.198570   -0.110020    0.501350
  H     -8.324780    2.185900    2.516720
  H     -9.497560    0.871220    2.380480
  H     -9.322490    2.043520    1.070050
  H     -7.859120    1.433860   -1.396110
  H     -6.283790    2.857980   -2.619000
  H     -3.933610    5.579910   -3.974250
  H     -3.566830    4.874430   -6.289230
  H     -3.575430    3.076680   -7.932980
  H     -3.567610    1.383570   -7.417940
  H     -1.163230    3.269520   -7.321420
  H     -1.417040    1.984270   -8.507230
  H     -1.156390    1.583120   -6.806380
  H     -3.283210    0.813440   -5.017810
  H     -3.660460    1.513040   -2.699230
  H     -2.851690    8.146200   -0.180800
  H     -5.684820   12.030040    0.206480
  H     -5.974570   12.772510    2.520690
  H     -6.361250   10.492690    5.391900
  H     -6.538950   12.162000    4.831940
  H     -3.878350   10.743680    5.339640
  H     -4.617920   11.952130    6.395330
  H     -4.056840   12.407620    4.782900
  H     -5.543200    8.748680    3.868130
  H     -5.271990    7.997350    1.554600
  H     -5.607160   10.442570   -3.304790
  H     -4.073350   11.866820   -4.571110
  H     -1.133290   13.558770   -3.111150
  H     -2.243260   13.522850   -4.488600
  H     -0.153290   11.385040   -3.847920
  H     -0.021770   12.604730   -5.119640
  H     -1.259940   11.348090   -5.220000
  H     -1.462880   12.062980   -1.205620
  H     -3.007260   10.657110    0.076060
  H     -6.478220    5.385820   -2.274270
  H    -10.970360   10.157710   -2.594130
  H    -11.710680   12.426670   -2.250310
  H     -8.204710   16.036750    0.689200
  H     -9.199260   17.506500    0.897610
  H     -7.556600   16.795060   -1.586200
  H     -7.112740   18.002050   -0.373840
  H     -8.535720   18.260150   -1.386750
  H    -13.546890   17.508230   -0.674690
  H    -14.163990   16.052960   -1.508090
  H    -12.561900   18.302240   -2.827150
  H    -14.300850   18.043560   -2.990360
  H    -13.171570   16.849960   -3.641210
  H      6.257200    0.961200    2.152000
  H      5.090750    2.298390    1.951660
  H      3.577090   -3.475940   -0.198330
  H      5.155050   -3.237760    0.605830
  H      4.562860   -2.726110   -2.353970
  H      5.438560   -4.120420   -1.711460
  H      6.136300   -2.504730   -1.567130
  H      7.138710    1.406640   -0.139460
  H      7.259540    2.850380    0.870050
  H      5.970520    2.726210   -0.333080

----------------------------
CARTESIAN COORDINATES (A.U.)
----------------------------
  NO LB      ZA    FRAG     MASS         X           Y           Z
   0 C     6.0000    0    12.011    2.341975    1.117093   -1.057963
   1 C     6.0000    0    12.011    0.860468    3.316110   -1.061402
   2 C     6.0000    0    12.011    1.287848    5.785302   -0.288391
   3 C     6.0000    0    12.011   -0.793345    7.320837   -0.694569
   4 C     6.0000    0    12.011   -2.884270    6.078720   -1.792840
   5 S    16.0000    0    32.060   -2.228252    2.948955   -2.318751
   6 C     6.0000    0    12.011   -4.931902    7.691809   -2.145519
   7 C     6.0000    0    12.011   -7.548662    7.553216   -3.251973
   8 C     6.0000    0    12.011   -9.322775    5.805673   -1.834093
   9 C     6.0000    0    12.011   -8.875269    5.159292    0.667073
  10 C     6.0000    0    12.011  -10.552665    3.629011    1.960459
  11 C     6.0000    0    12.011  -12.720389    2.718768    0.797767
  12 C     6.0000    0    12.011  -14.582525    1.127807    2.229499
  13 C     6.0000    0    12.011  -16.600658    2.796114    3.456290
  14 C     6.0000    0    12.011  -13.172260    3.393400   -1.698580
  15 C     6.0000    0    12.011  -11.500363    4.917899   -3.000980
  16 C     6.0000    0    12.011   -7.250690    6.790013   -6.002696
  17 C     6.0000    0    12.011   -7.178295    8.563124   -7.931218
  18 C     6.0000    0    12.011   -6.781471    7.806969  -10.402621
  19 C     6.0000    0    12.011   -6.433535    5.278232  -11.004291
  20 C     6.0000    0    12.011   -5.910118    4.471187  -13.673397
  21 C     6.0000    0    12.011   -3.060393    4.338188  -14.144940
  22 C     6.0000    0    12.011   -6.482233    3.514966   -9.058931
  23 C     6.0000    0    12.011   -6.880984    4.256514   -6.589116
  24 C     6.0000    0    12.011   -8.434849   10.258038   -2.876390
  25 C     6.0000    0    12.011   -6.520330   11.744629   -1.746220
  26 C     6.0000    0    12.011   -4.393500   10.127080   -1.349038
  27 S    16.0000    0    32.060   -1.386927   10.509069   -0.126404
  28 C     6.0000    0    12.011   -6.877431   14.291621   -1.193305
  29 C     6.0000    0    12.011   -9.196844   15.316041   -1.762396
  30 C     6.0000    0    12.011  -10.082124   18.019691   -1.386341
  31 C     6.0000    0    12.011  -10.285194   18.829477    1.358826
  32 C     6.0000    0    12.011  -10.677557   21.368362    1.905864
  33 C     6.0000    0    12.011  -10.981312   22.156566    4.374735
  34 C     6.0000    0    12.011  -10.910107   20.436935    6.357606
  35 C     6.0000    0    12.011  -11.151898   21.310366    9.046497
  36 C     6.0000    0    12.011   -8.552712   21.953572   10.137889
  37 C     6.0000    0    12.011  -10.528930   17.903417    5.796470
  38 C     6.0000    0    12.011  -10.233528   17.098847    3.326183
  39 C     6.0000    0    12.011   -8.348451   19.751663   -2.876390
  40 C     6.0000    0    12.011   -8.883829   20.404299   -5.358432
  41 C     6.0000    0    12.011   -7.242205   21.920672   -6.712175
  42 C     6.0000    0    12.011   -5.022533   22.808257   -5.632234
  43 C     6.0000    0    12.011   -3.203275   24.380264   -7.138592
  44 C     6.0000    0    12.011   -1.359072   22.683630   -8.581133
  45 C     6.0000    0    12.011   -4.484301   22.128920   -3.154898
  46 C     6.0000    0    12.011   -6.122391   20.621296   -1.790818
  47 C     6.0000    0    12.011  -12.722298   17.868022   -2.431114
  48 C     6.0000    0    12.011  -13.253481   15.438250   -3.242317
  49 C     6.0000    0    12.011  -11.115671   13.826880   -2.883571
  50 C     6.0000    0    12.011  -10.754299   11.281835   -3.446501
  51 S    16.0000    0    32.060  -16.282466   15.048210   -4.418784
  52 C     6.0000    0    12.011  -16.878826   18.231397   -3.795496
  53 C     6.0000    0    12.011  -14.780833   19.485231   -2.721999
  54 S    16.0000    0    32.060  -15.411019   22.613691   -2.108481
  55 C     6.0000    0    12.011  -18.497849   22.250524   -3.293018
  56 C     6.0000    0    12.011  -18.950306   19.780330   -4.118942
  57 C     6.0000    0    12.011  -20.359928   24.120408   -3.425620
  58 C     6.0000    0    12.011    4.751603    0.528027   -0.278602
  59 C     6.0000    0    12.011  -20.420948   26.616963   -2.693899
  60 C     6.0000    0    12.011  -22.806727   27.934480   -3.148624
  61 N     7.0000    0    14.007  -22.913761   30.437309   -2.362725
  62 C     6.0000    0    12.011  -20.946329   31.702934   -1.280082
  63 N     7.0000    0    14.007  -18.745989   30.419980   -0.842875
  64 C     6.0000    0    12.011  -18.328227   27.929869   -1.537632
  65 C     6.0000    0    12.011    6.572600    2.237058    0.866383
  66 N     7.0000    0    14.007    8.881486    1.176355    1.551616
  67 C     6.0000    0    12.011    9.569044   -1.270822    1.119890
  68 N     7.0000    0    14.007    7.836600   -2.860970    0.065252
  69 C     6.0000    0    12.011    5.440937   -2.126679   -0.701788
  70 O     8.0000    0    15.999  -24.627497   26.948515   -4.143111
  71 O     8.0000    0    15.999  -16.258221   26.976729   -1.142642
  72 C     6.0000    0    12.011  -16.626661   31.736854    0.330475
  73 C     6.0000    0    12.011  -15.017030   33.088292   -1.634915
  74 C     6.0000    0    12.011  -25.282665   31.768318   -2.828939
  75 C     6.0000    0    12.011  -25.222628   33.164902   -5.344108
  76 S    16.0000    0    32.060  -21.213744   34.713721   -0.502403
  77 O     8.0000    0    15.999    6.219693    4.475760    1.262564
  78 C     6.0000    0    12.011   10.706886    2.890450    2.707883
  79 S    16.0000    0    32.060   12.425157   -2.290575    1.864820
  80 C     6.0000    0    12.011    8.519074   -5.492867   -0.392780
  81 O     8.0000    0    15.999    4.024077   -3.655146   -1.669951
  82 C     6.0000    0    12.011    9.842393   -5.804275   -2.928924
  83 C     6.0000    0    12.011   12.410115    4.098173    0.727620
  84 H     1.0000    0     1.008    1.371620   -0.515952   -1.847642
  85 H     1.0000    0     1.008    3.047202    6.387161    0.522245
  86 H     1.0000    0     1.008   -7.204638    5.848570    1.617322
  87 H     1.0000    0     1.008  -10.165895    3.132278    3.903192
  88 H     1.0000    0     1.008  -13.605197    0.053612    3.694717
  89 H     1.0000    0     1.008  -15.493052   -0.207908    0.947414
  90 H     1.0000    0     1.008  -15.731554    4.130752    4.755912
  91 H     1.0000    0     1.008  -17.947787    1.646367    4.498455
  92 H     1.0000    0     1.008  -17.616953    3.861693    2.022101
  93 H     1.0000    0     1.008  -14.851584    2.709603   -2.638266
  94 H     1.0000    0     1.008  -11.874642    5.400799   -4.949193
  95 H     1.0000    0     1.008   -7.433446   10.544502   -7.510244
  96 H     1.0000    0     1.008   -6.740332    9.211338  -11.884922
  97 H     1.0000    0     1.008   -6.756584    5.814083  -14.991160
  98 H     1.0000    0     1.008   -6.741806    2.614568  -14.017875
  99 H     1.0000    0     1.008   -2.198186    6.178497  -13.835479
 100 H     1.0000    0     1.008   -2.677818    3.749727  -16.076335
 101 H     1.0000    0     1.008   -2.185260    2.991663  -12.862194
 102 H     1.0000    0     1.008   -6.204368    1.537179   -9.482287
 103 H     1.0000    0     1.008   -6.917267    2.859231   -5.100805
 104 H     1.0000    0     1.008   -5.388913   15.394087   -0.341662
 105 H     1.0000    0     1.008  -10.742753   22.733481    0.390191
 106 H     1.0000    0     1.008  -11.290301   24.136546    4.763414
 107 H     1.0000    0     1.008  -12.021020   19.828311   10.189214
 108 H     1.0000    0     1.008  -12.356825   22.982849    9.131043
 109 H     1.0000    0     1.008   -7.329019   20.302613   10.090457
 110 H     1.0000    0     1.008   -8.726604   22.586252   12.085422
 111 H     1.0000    0     1.008   -7.666317   23.447004    9.038371
 112 H     1.0000    0     1.008  -10.475130   16.532609    7.309706
 113 H     1.0000    0     1.008   -9.962617   15.112801    2.937768
 114 H     1.0000    0     1.008  -10.595997   19.733597   -6.245148
 115 H     1.0000    0     1.008   -7.697516   22.425040   -8.638146
 116 H     1.0000    0     1.008   -2.141608   25.622362   -5.879221
 117 H     1.0000    0     1.008   -4.239147   25.554483   -8.482225
 118 H     1.0000    0     1.008   -0.289676   21.514608   -7.271515
 119 H     1.0000    0     1.008   -0.041139   23.819488   -9.674718
 120 H     1.0000    0     1.008   -2.380942   21.444782   -9.864370
 121 H     1.0000    0     1.008   -2.764443   22.795729   -2.278292
 122 H     1.0000    0     1.008   -5.682898   20.139019    0.143733
 123 H     1.0000    0     1.008  -12.242062   10.177725   -4.297747
 124 H     1.0000    0     1.008  -20.730976   19.195290   -4.902195
 125 H     1.0000    0     1.008  -22.129978   23.483003   -4.252470
 126 H     1.0000    0     1.008  -15.504655   30.305066    1.302399
 127 H     1.0000    0     1.008  -17.384082   33.082491    1.696237
 128 H     1.0000    0     1.008  -14.279905   31.738064   -2.997484
 129 H     1.0000    0     1.008  -13.441131   34.018944   -0.706455
 130 H     1.0000    0     1.008  -16.130173   34.506683   -2.620578
 131 H     1.0000    0     1.008  -25.599912   33.085760   -1.274979
 132 H     1.0000    0     1.008  -26.766062   30.335698   -2.849877
 133 H     1.0000    0     1.008  -23.738551   34.586221   -5.342539
 134 H     1.0000    0     1.008  -27.024690   34.097387   -5.650961
 135 H     1.0000    0     1.008  -24.890660   31.841810   -6.880890
 136 H     1.0000    0     1.008   11.824394    1.816405    4.066691
 137 H     1.0000    0     1.008    9.620123    4.343328    3.688103
 138 H     1.0000    0     1.008    6.759720   -6.568575   -0.374789
 139 H     1.0000    0     1.008    9.741633   -6.118480    1.144853
 140 H     1.0000    0     1.008    8.622556   -5.151601   -4.448359
 141 H     1.0000    0     1.008   10.277389   -7.786465   -3.234191
 142 H     1.0000    0     1.008   11.595926   -4.733254   -2.961447
 143 H     1.0000    0     1.008   13.490207    2.658164   -0.263541
 144 H     1.0000    0     1.008   13.718542    5.386438    1.644156
 145 H     1.0000    0     1.008   11.282648    5.151790   -0.629430

--------------------------------
INTERNAL COORDINATES (ANGSTROEM)
--------------------------------
 C      0   0   0     0.000000000000     0.00000000     0.00000000
 C      1   0   0     1.403123594592     0.00000000     0.00000000
 C      2   1   0     1.387727105306   133.58593625     0.00000000
 C      3   2   1     1.385415082529   112.14561896   179.67897581
 C      4   3   2     1.412122283409   114.43881288     0.00000000
 S      5   4   3     1.714923453831   110.95941949     0.03069472
 C      5   4   3     1.391970927354   112.31395087   179.53678798
 C      7   5   4     1.505216890883   137.59525449   177.44914831
 C      8   7   5     1.516419844931   114.00349353    65.16378826
 C      9   8   7     1.387403420855   121.11098015    21.78175383
 C     10   9   8     1.382790308977   120.46411673   177.91267040
 C     11  10   9     1.387960427174   120.95404067   359.64587412
 C     12  11  10     1.501275171179   120.88923688   182.02408341
 C     13  12  11     1.530148250171   110.40599203    90.67854946
 C     12  11  10     1.389134548739   118.33519772   359.68887556
 C     15  12  11     1.381505376682   120.94700676     0.43103597
 C      8   7   5     1.518816494413   106.87295356   300.72434231
 C     17   8   7     1.386844353596   121.88446009   264.73575972
 C     18  17   8     1.383681616486   120.26863538   176.84725322
 C     19  18  17     1.387774401335   121.05253140   359.59916903
 C     20  19  18     1.501354458547   120.97054644   182.22796604
 C     21  20  19     1.530134871637   110.38466481    92.37271219
 C     20  19  18     1.389621924446   118.36151098   359.73463091
 C     23  20  19     1.380826350089   120.87697984     0.35896356
 C      8   7   5     1.519250220964   100.78779483   181.26806660
 C     25   8   7     1.415251775092   110.97749549     1.17479721
 C      7   5   4     1.385475014066   111.68685935     0.57392967
 S     27   7   5     1.729384127312   114.31279890   359.50994060
 C     26  25   8     1.392088490399   121.99298120   180.36366121
 C     29  26  25     1.375145591165   117.18111073     0.81016788
 C     30  29  26     1.518550705443   128.17458111   180.61852393
 C     31  30  29     1.518372887139   114.40019757   293.93272590
 C     32  31  30     1.389947796754   118.85694287   169.67489817
 C     33  32  31     1.380823529094   120.42550591   177.17244836
 C     34  33  32     1.389428330861   120.89982901   359.79140075
 C     35  34  33     1.501547352733   120.77906209   177.88542986
 C     36  35  34     1.530101916017   110.46022284   271.07781038
 C     35  34  33     1.387906030717   118.36075368   359.92018806
 C     38  35  34     1.383666017650   121.04967653   359.81084149
 C     31  30  29     1.517695824861   108.32412502    59.21052031
 C     40  31  30     1.387322139699   121.24899107    90.73275660
 C     41  40  31     1.382655758278   120.44342433   182.02998508
 C     42  41  40     1.388122201573   120.97837155     0.42928241
 C     43  42  41     1.501410829154   120.76180742   177.88058921
 C     44  43  42     1.530097895594   110.40983114   273.03216127
 C     43  42  41     1.388864786435   118.32974433     0.19054099
 C     46  43  42     1.381647354139   120.92640172   359.58489620
 C     31  30  29     1.504676443259   100.83845172   178.89365866
 C     48  31  30     1.384382363872   110.61001435     0.67302290
 C     30  29  26     1.415638841972   120.83304275   359.45576910
 C     25   8   7     1.375151754898   128.16864819   182.46736845
 S     49  48  31     1.731870130957   114.20950285   178.66775666
 C     52  49  48     1.745227133126    89.10560446   359.68425818
 C     48  31  30     1.393811614925   137.18142594   178.08083125
 S     54  48  31     1.719687874616   136.20212600     2.11276258
 C     55  54  48     1.760143719047    90.43670046   179.92956251
 C     53  52  49     1.379401628823   133.92964538   180.13880197
 C     56  55  54     1.398208895623   126.48601129   179.40710365
 C      1   2   3     1.375932639776   134.91677121     0.86929604
 C     58  56  55     1.377073811602   132.94918284   358.41766554
 C     60  58  56     1.462154877877   115.55816970   180.85074313
 N     61  60  58     1.389354374377   116.13516153   178.48657899
 C     62  61  60     1.364077853387   124.23911379     1.64703142
 N     63  62  61     1.367553923836   118.49959282   357.42513909
 C     64  63  62     1.385784294723   124.26328139     3.21171539
 C     59   1   2     1.453822812897   126.74463377   359.95473602
 N     66  59   1     1.392610275059   116.06045938   178.53732961
 C     67  66  59     1.364394597358   124.95377780     3.18191803
 N     68  67  66     1.363819431560   118.35111514   356.16846319
 C     69  68  67     1.386679778392   124.15511251     2.86544656
 O     61  60  58     1.215534520365   123.43599455   358.74415231
 O     65  64  63     1.223923896654   119.29618658   177.38340475
 C     64  63  62     1.459076878612   119.29645098   180.44169748
 C     73  64  63     1.522712018899   111.32227312   273.55404850
 C     62  61  60     1.458903151206   116.40033423   179.53821020
 C     75  62  61     1.522718160199   111.35845274   267.37280001
 S     63  62  61     1.651603983587   120.85649456   177.66478548
 O     66  59   1     1.217485808500   125.12756669   358.75103584
 C     67  66  59     1.459527821626   116.06099243   180.17351737
 S     68  67  66     1.652541651215   120.92279113   176.40350144
 C     69  68  67     1.459075767224   119.37588078   180.57681335
 O     70  69  68     1.216076909862   120.03998545   178.64058182
 C     81  69  68     1.522723120564   111.31779748   274.24076174
 C     79  67  66     1.522801331166   111.34967842   269.24635967
 H      1   2   3     1.088616306786   113.22246778   180.63414716
 H      3   2   1     1.073420123297   122.58278233   359.77854351
 H     10   9   8     1.080491910474   120.02668537   357.77092864
 H     11  10   9     1.080681262445   119.45421714   179.49937181
 H     13  12  11     1.091687828823   109.84528345   330.12854324
 H     13  12  11     1.091816468231   109.82316695   211.16987372
 H     14  13  12     1.087792695600   110.34937954   300.33326373
 H     14  13  12     1.087428045160   110.48090956   180.15943570
 H     14  13  12     1.087740510416   110.37402245    59.97105629
 H     15  12  11     1.080703255154   119.54185607   180.16703882
 H     16  15  12     1.080456550584   119.78414190   179.20604163
 H     18  17   8     1.080374529180   120.09389026   356.79733835
 H     19  18  17     1.080760879427   119.35330266   179.67169230
 H     21  20  19     1.091744205709   109.87988844   331.78389939
 H     21  20  19     1.091876094894   109.79506740   212.79395140
 H     22  21  20     1.087830109760   110.34251913   300.03969374
 H     22  21  20     1.087447545861   110.48237478   179.87219189
 H     22  21  20     1.087638980774   110.36408700    59.69497039
 H     23  20  19     1.080361866460   119.62610352   180.36807392
 H     24  23  20     1.080452703500   119.87963850   179.85692321
 H     29  26  25     1.078848712749   120.81381653   180.37444652
 H     33  32  31     1.079971205959   119.77884159   357.09111580
 H     34  33  32     1.080204054843   119.39118891   180.19095550
 H     36  35  34     1.091910220348   109.85220691   150.51607651
 H     36  35  34     1.091721912210   109.76381719    31.57006731
 H     37  36  35     1.087757020203   110.35017376   300.16306473
 H     37  36  35     1.087508376290   110.49452815   180.00190875
 H     37  36  35     1.087710142133   110.32594479    59.83889266
 H     38  35  34     1.080855352857   119.57876116   180.26484048
 H     39  38  35     1.080433580605   119.60590972   180.76507319
 H     41  40  31     1.080302495091   120.04665715     2.26375312
 H     42  41  40     1.080747688408   119.46221022   180.57290437
 H     44  43  42     1.091691149135   109.84425808   152.48975006
 H     44  43  42     1.091846831245   109.82446850    33.53527990
 H     45  44  43     1.087754675835   110.34491260   300.12344133
 H     45  44  43     1.087461949357   110.50017338   179.94429929
 H     45  44  43     1.087798267603   110.36515965    59.75384715
 H     46  43  42     1.080738194985   119.55983927   179.87363546
 H     47  46  43     1.080381223180   119.76159815   180.97447582
 H     51  25   8     1.078939844755   121.97426044   358.97092015
 H     57  53  52     1.074965154133   124.98109560   359.88595144
 H     58  56  55     1.087461255126   114.06059981   179.21820130
 H     73  64  63     1.091382645501   106.68647033   153.41676421
 H     73  64  63     1.090891944878   108.13635026    35.21359252
 H     74  73  64     1.087463942667   110.17806757   300.64480944
 H     74  73  64     1.085988553209   109.48274484   181.01090694
 H     74  73  64     1.087385105195   110.41307287    61.41982125
 H     75  62  61     1.091066424376   108.25495540   145.58144306
 H     75  62  61     1.091351061254   106.52219936    27.40383155
 H     76  75  62     1.087409371580   110.49335118   298.35109092
 H     76  75  62     1.085924582556   109.44624277   178.72894477
 H     76  75  62     1.087388157145   110.15528513    59.12209348
 H     79  67  66     1.090766996980   108.14014909   147.56960400
 H     79  67  66     1.091278214343   106.75823561    29.42343394
 H     81  69  68     1.091285676668   106.57630878   154.17698718
 H     81  69  68     1.090972120863   108.21245039    35.97289821
 H     83  81  69     1.087412942263   110.14065804   301.15263707
 H     83  81  69     1.085972721849   109.45778497   181.54757833
 H     83  81  69     1.087459041344   110.48500754    61.91238719
 H     84  79  67     1.087407726660   110.42111880   298.52921402
 H     84  79  67     1.085992988283   109.48033175   178.91750765
 H     84  79  67     1.087439972504   110.17450665    59.25843129

---------------------------
INTERNAL COORDINATES (A.U.)
---------------------------
 C      0   0   0     0.000000000000     0.00000000     0.00000000
 C      1   0   0     2.651519325822     0.00000000     0.00000000
 C      2   1   0     2.622424177647   133.58593625     0.00000000
 C      3   2   1     2.618055087785   112.14561896   179.67897581
 C      4   3   2     2.668524383250   114.43881288     0.00000000
 S      5   4   3     3.240735668379   110.95941949     0.03069472
 C      5   4   3     2.630443839080   112.31395087   179.53678798
 C      7   5   4     2.844447695922   137.59525449   177.44914831
 C      8   7   5     2.865618210963   114.00349353    65.16378826
 C      9   8   7     2.621812502681   121.11098015    21.78175383
 C     10   9   8     2.613094984606   120.46411673   177.91267040
 C     11  10   9     2.622865092079   120.95404067   359.64587412
 C     12  11  10     2.836998925185   120.88923688   182.02408341
 C     13  12  11     2.891561137121   110.40599203    90.67854946
 C     12  11  10     2.625083860285   118.33519772   359.68887556
 C     15  12  11     2.610666814468   120.94700676     0.43103597
 C      8   7   5     2.870147222122   106.87295356   300.72434231
 C     17   8   7     2.620756018671   121.88446009   264.73575972
 C     18  17   8     2.614779311699   120.26863538   176.84725322
 C     19  18  17     2.622513554189   121.05253140   359.59916903
 C     20  19  18     2.837148756596   120.97054644   182.22796604
 C     21  20  19     2.891535855357   110.38466481    92.37271219
 C     20  19  18     2.626004866895   118.36151098   359.73463091
 C     23  20  19     2.609383640170   120.87697984     0.35896356
 C      8   7   5     2.870966846522   100.78779483   181.26806660
 C     25   8   7     2.674438265469   110.97749549     1.17479721
 C      7   5   4     2.618168341975   111.68685935     0.57392967
 S     27   7   5     3.268062380971   114.31279890   359.50994060
 C     26  25   8     2.630666001037   121.99298120   180.36366121
 C     29  26  25     2.598648561571   117.18111073     0.81016788
 C     30  29  26     2.869644953759   128.17458111   180.61852393
 C     31  30  29     2.869308925865   114.40019757   293.93272590
 C     32  31  30     2.626620676311   118.85694287   169.67489817
 C     33  32  31     2.609378309263   120.42550591   177.17244836
 C     34  33  32     2.625639028039   120.89982901   359.79140075
 C     35  34  33     2.837513273780   120.77906209   177.88542986
 C     36  35  34     2.891473578261   110.46022284   271.07781038
 C     35  34  33     2.622762297672   118.36075368   359.92018806
 C     38  35  34     2.614749834172   121.04967653   359.81084149
 C     31  30  29     2.868029463583   108.32412502    59.21052031
 C     40  31  30     2.621658903557   121.24899107    90.73275660
 C     41  40  31     2.612840720635   120.44342433   182.02998508
 C     42  41  40     2.623170801389   120.97837155     0.42928241
 C     43  42  41     2.837255281604   120.76180742   177.88058921
 C     44  43  42     2.891465980761   110.40983114   273.03216127
 C     43  42  41     2.624574083410   118.32974433     0.19054099
 C     46  43  42     2.610935112980   120.92640172   359.58489620
 C     31  30  29     2.843426397923   100.83845172   178.89365866
 C     48  31  30     2.616103532349   110.61001435     0.67302290
 C     30  29  26     2.675169715869   120.83304275   359.45576910
 C     25   8   7     2.598660209339   128.16864819   182.46736845
 S     49  48  31     3.272760247027   114.20950285   178.66775666
 C     52  49  48     3.298001323097    89.10560446   359.68425818
 C     48  31  30     2.633922234487   137.18142594   178.08083125
 S     54  48  31     3.249739118849   136.20212600     2.11276258
 C     55  54  48     3.326189585340    90.43670046   179.92956251
 C     53  52  49     2.606691307161   133.92964538   180.13880197
 C     56  55  54     2.642231890740   126.48601129   179.40710365
 C      1   2   3     2.600135867899   134.91677121     0.86929604
 C     58  56  55     2.602292370123   132.94918284   358.41766554
 C     60  58  56     2.763072284565   115.55816970   180.85074313
 N     61  60  58     2.625499270538   116.13516153   178.48657899
 C     62  61  60     2.577733568248   124.23911379     1.64703142
 N     63  62  61     2.584302389420   118.49959282   357.42513909
 C     64  63  62     2.618752797715   124.26328139     3.21171539
 C     59   1   2     2.747326963623   126.74463377   359.95473602
 N     66  59   1     2.631652031146   116.06045938   178.53732961
 C     67  66  59     2.578332127609   124.95377780     3.18191803
 N     68  67  66     2.577245221768   118.35111514   356.16846319
 C     69  68  67     2.620445016607   124.15511251     2.86544656
 O     61  60  58     2.297027349818   123.43599455   358.74415231
 O     65  64  63     2.312880973437   119.29618658   177.38340475
 C     64  63  62     2.757255708913   119.29645098   180.44169748
 C     73  64  63     2.877508696550   111.32227312   273.55404850
 C     62  61  60     2.756927411695   116.40033423   179.53821020
 C     75  62  61     2.877520301925   111.35845274   267.37280001
 S     63  62  61     3.121079210673   120.85649456   177.66478548
 O     66  59   1     2.300714750002   125.12756669   358.75103584
 C     67  66  59     2.758107867712   116.06099243   180.17351737
 S     68  67  66     3.122851145694   120.92279113   176.40350144
 C     69  68  67     2.757253608694   119.37588078   180.57681335
 O     70  69  68     2.298052317425   120.03998545   178.64058182
 C     81  69  68     2.877529675656   111.31779748   274.24076174
 C     79  67  66     2.877677472274   111.34967842   269.24635967
 H      1   2   3     2.057186684746   113.22246778   180.63414716
 H      3   2   1     2.028470059672   122.58278233   359.77854351
 H     10   9   8     2.041833800713   120.02668537   357.77092864
 H     11  10   9     2.042191624082   119.45421714   179.49937181
 H     13  12  11     2.062991020210   109.84528345   330.12854324
 H     13  12  11     2.063234113461   109.82316695   211.16987372
 H     14  13  12     2.055630285163   110.34937954   300.33326373
 H     14  13  12     2.054941195697   110.48090956   180.15943570
 H     14  13  12     2.055531669458   110.37402245    59.97105629
 H     15  12  11     2.042233184278   119.54185607   180.16703882
 H     16  15  12     2.041766980205   119.78414190   179.20604163
 H     18  17   8     2.041611982214   120.09389026   356.79733835
 H     19  18  17     2.042342078373   119.35330266   179.67169230
 H     21  20  19     2.063097557086   109.87988844   331.78389939
 H     21  20  19     2.063346791524   109.79506740   212.79395140
 H     22  21  20     2.055700987680   110.34251913   300.03969374
 H     22  21  20     2.054978046683   110.48237478   179.87219189
 H     22  21  20     2.055339806241   110.36408700    59.69497039
 H     23  20  19     2.041588053141   119.62610352   180.36807392
 H     24  23  20     2.041759710269   119.87963850   179.85692321
 H     29  26  25     2.038728607029   120.81381653   180.37444652
 H     33  32  31     2.040849811783   119.77884159   357.09111580
 H     34  33  32     2.041289832405   119.39118891   180.19095550
 H     36  35  34     2.063411279287   109.85220691   150.51607651
 H     36  35  34     2.063055428478   109.76381719    31.57006731
 H     37  36  35     2.055562868433   110.35017376   300.16306473
 H     37  36  35     2.055092999533   110.49452815   180.00190875
 H     37  36  35     2.055474281721   110.32594479    59.83889266
 H     38  35  34     2.042520607283   119.57876116   180.26484048
 H     39  38  35     2.041723573236   119.60590972   180.76507319
 H     41  40  31     2.041475857514   120.04665715     2.26375312
 H     42  41  40     2.042317150960   119.46221022   180.57290437
 H     44  43  42     2.062997294691   109.84425808   152.48975006
 H     44  43  42     2.063291491243   109.82446850    33.53527990
 H     45  44  43     2.055558438220   110.34491260   300.12344133
 H     45  44  43     2.055005265345   110.50017338   179.94429929
 H     45  44  43     2.055640814724   110.36515965    59.75384715
 H     46  43  42     2.042299210991   119.55983927   179.87363546
 H     47  46  43     2.041624632041   119.76159815   180.97447582
 H     51  25   8     2.038900821563   121.97426044   358.97092015
 H     57  53  52     2.031389744820   124.98109560   359.88595144
 H     58  56  55     2.055003953438   114.06059981   179.21820130
 H     73  64  63     2.062414307311   106.68647033   153.41676421
 H     73  64  63     2.061487017520   108.13635026    35.21359252
 H     74  73  64     2.055009032154   110.17806757   300.64480944
 H     74  73  64     2.052220950138   109.48274484   181.01090694
 H     74  73  64     2.054860050924   110.41307287    61.41982125
 H     75  62  61     2.061816735987   108.25495540   145.58144306
 H     75  62  61     2.062354621734   106.52219936    27.40383155
 H     76  75  62     2.054905907746   110.49335118   298.35109092
 H     76  75  62     2.052100063124   109.44624277   178.72894477
 H     76  75  62     2.054865818274   110.15528513    59.12209348
 H     79  67  66     2.061250900211   108.14014909   147.56960400
 H     79  67  66     2.062216961023   106.75823561    29.42343394
 H     81  69  68     2.062231062773   106.57630878   154.17698718
 H     81  69  68     2.061638528174   108.21245039    35.97289821
 H     83  81  69     2.054912655358   110.14065804   301.15263707
 H     83  81  69     2.052191033204   109.45778497   181.54757833
 H     83  81  69     2.054999769996   110.48500754    61.91238719
 H     84  79  67     2.054902799297   110.42111880   298.52921402
 H     84  79  67     2.052229331214   109.48033175   178.91750765
 H     84  79  67     2.054963735112   110.17450665    59.25843129

---------------------
BASIS SET INFORMATION
---------------------
There are 5 groups of distinct atoms

 Group   1 Type C   : 7s4p1d contracted to 3s2p1d pattern {511/31/1}
 Group   2 Type S   : 10s7p1d contracted to 4s3p1d pattern {5311/511/1}
 Group   3 Type N   : 7s4p1d contracted to 3s2p1d pattern {511/31/1}
 Group   4 Type O   : 7s4p1d contracted to 3s2p1d pattern {511/31/1}
 Group   5 Type H   : 4s1p contracted to 2s1p pattern {31/1}

Atom   0C    basis set group =>   1
Atom   1C    basis set group =>   1
Atom   2C    basis set group =>   1
Atom   3C    basis set group =>   1
Atom   4C    basis set group =>   1
Atom   5S    basis set group =>   2
Atom   6C    basis set group =>   1
Atom   7C    basis set group =>   1
Atom   8C    basis set group =>   1
Atom   9C    basis set group =>   1
Atom  10C    basis set group =>   1
Atom  11C    basis set group =>   1
Atom  12C    basis set group =>   1
Atom  13C    basis set group =>   1
Atom  14C    basis set group =>   1
Atom  15C    basis set group =>   1
Atom  16C    basis set group =>   1
Atom  17C    basis set group =>   1
Atom  18C    basis set group =>   1
Atom  19C    basis set group =>   1
Atom  20C    basis set group =>   1
Atom  21C    basis set group =>   1
Atom  22C    basis set group =>   1
Atom  23C    basis set group =>   1
Atom  24C    basis set group =>   1
Atom  25C    basis set group =>   1
Atom  26C    basis set group =>   1
Atom  27S    basis set group =>   2
Atom  28C    basis set group =>   1
Atom  29C    basis set group =>   1
Atom  30C    basis set group =>   1
Atom  31C    basis set group =>   1
Atom  32C    basis set group =>   1
Atom  33C    basis set group =>   1
Atom  34C    basis set group =>   1
Atom  35C    basis set group =>   1
Atom  36C    basis set group =>   1
Atom  37C    basis set group =>   1
Atom  38C    basis set group =>   1
Atom  39C    basis set group =>   1
Atom  40C    basis set group =>   1
Atom  41C    basis set group =>   1
Atom  42C    basis set group =>   1
Atom  43C    basis set group =>   1
Atom  44C    basis set group =>   1
Atom  45C    basis set group =>   1
Atom  46C    basis set group =>   1
Atom  47C    basis set group =>   1
Atom  48C    basis set group =>   1
Atom  49C    basis set group =>   1
Atom  50C    basis set group =>   1
Atom  51S    basis set group =>   2
Atom  52C    basis set group =>   1
Atom  53C    basis set group =>   1
Atom  54S    basis set group =>   2
Atom  55C    basis set group =>   1
Atom  56C    basis set group =>   1
Atom  57C    basis set group =>   1
Atom  58C    basis set group =>   1
Atom  59C    basis set group =>   1
Atom  60C    basis set group =>   1
Atom  61N    basis set group =>   3
Atom  62C    basis set group =>   1
Atom  63N    basis set group =>   3
Atom  64C    basis set group =>   1
Atom  65C    basis set group =>   1
Atom  66N    basis set group =>   3
Atom  67C    basis set group =>   1
Atom  68N    basis set group =>   3
Atom  69C    basis set group =>   1
Atom  70O    basis set group =>   4
Atom  71O    basis set group =>   4
Atom  72C    basis set group =>   1
Atom  73C    basis set group =>   1
Atom  74C    basis set group =>   1
Atom  75C    basis set group =>   1
Atom  76S    basis set group =>   2
Atom  77O    basis set group =>   4
Atom  78C    basis set group =>   1
Atom  79S    basis set group =>   2
Atom  80C    basis set group =>   1
Atom  81O    basis set group =>   4
Atom  82C    basis set group =>   1
Atom  83C    basis set group =>   1
Atom  84H    basis set group =>   5
Atom  85H    basis set group =>   5
Atom  86H    basis set group =>   5
Atom  87H    basis set group =>   5
Atom  88H    basis set group =>   5
Atom  89H    basis set group =>   5
Atom  90H    basis set group =>   5
Atom  91H    basis set group =>   5
Atom  92H    basis set group =>   5
Atom  93H    basis set group =>   5
Atom  94H    basis set group =>   5
Atom  95H    basis set group =>   5
Atom  96H    basis set group =>   5
Atom  97H    basis set group =>   5
Atom  98H    basis set group =>   5
Atom  99H    basis set group =>   5
Atom 100H    basis set group =>   5
Atom 101H    basis set group =>   5
Atom 102H    basis set group =>   5
Atom 103H    basis set group =>   5
Atom 104H    basis set group =>   5
Atom 105H    basis set group =>   5
Atom 106H    basis set group =>   5
Atom 107H    basis set group =>   5
Atom 108H    basis set group =>   5
Atom 109H    basis set group =>   5
Atom 110H    basis set group =>   5
Atom 111H    basis set group =>   5
Atom 112H    basis set group =>   5
Atom 113H    basis set group =>   5
Atom 114H    basis set group =>   5
Atom 115H    basis set group =>   5
Atom 116H    basis set group =>   5
Atom 117H    basis set group =>   5
Atom 118H    basis set group =>   5
Atom 119H    basis set group =>   5
Atom 120H    basis set group =>   5
Atom 121H    basis set group =>   5
Atom 122H    basis set group =>   5
Atom 123H    basis set group =>   5
Atom 124H    basis set group =>   5
Atom 125H    basis set group =>   5
Atom 126H    basis set group =>   5
Atom 127H    basis set group =>   5
Atom 128H    basis set group =>   5
Atom 129H    basis set group =>   5
Atom 130H    basis set group =>   5
Atom 131H    basis set group =>   5
Atom 132H    basis set group =>   5
Atom 133H    basis set group =>   5
Atom 134H    basis set group =>   5
Atom 135H    basis set group =>   5
Atom 136H    basis set group =>   5
Atom 137H    basis set group =>   5
Atom 138H    basis set group =>   5
Atom 139H    basis set group =>   5
Atom 140H    basis set group =>   5
Atom 141H    basis set group =>   5
Atom 142H    basis set group =>   5
Atom 143H    basis set group =>   5
Atom 144H    basis set group =>   5
Atom 145H    basis set group =>   5
------------------------------------------------------------------------------
                           ORCA GTO INTEGRAL CALCULATION
------------------------------------------------------------------------------

                         BASIS SET STATISTICS AND STARTUP INFO

 # of primitive gaussian shells          ... 1354
 # of primitive gaussian functions       ... 2522
 # of contracted shells                  ...  702
 # of contracted basis functions         ... 1510
 Highest angular momentum                ...    2
 Maximum contraction depth               ...    5
 Integral package used                   ... LIBINT
 Integral threshhold            Thresh   ...  2.500e-11
 Primitive cut-off              TCut     ...  2.500e-12


------------------------------ INTEGRAL EVALUATION ----------------------------


 * One electron integrals 
 Pre-screening matrix                    ... done
 Shell pair data                         ... done (   0.034 sec)

-------------------------------------------------------------------------------
                                 ORCA SCF
-------------------------------------------------------------------------------

------------
SCF SETTINGS
------------
Hamiltonian:
 Ab initio Hamiltonian  Method          .... Hartree-Fock(GTOs)


General Settings:
 Integral files         IntName         .... IDTT-TBTA
 Hartree-Fock type      HFTyp           .... RHF
 Total Charge           Charge          ....    0
 Multiplicity           Mult            ....    1
 Number of Electrons    NEL             ....  638
 Basis Dimension        Dim             .... 1510
 Nuclear Repulsion      ENuc            ....  15303.7004122038 Eh

Convergence Acceleration:
 DIIS                   CNVDIIS         .... on
   Start iteration      DIISMaxIt       ....    12
   Startup error        DIISStart       ....  0.200000
   # of expansion vecs  DIISMaxEq       ....     5
   Bias factor          DIISBfac        ....   1.050
   Max. coefficient     DIISMaxC        ....  10.000
 Newton-Raphson         CNVNR           .... off
 SOSCF                  CNVSOSCF        .... on
   Start iteration      SOSCFMaxIt      ....   150
   Startup grad/error   SOSCFStart      ....  0.003300
 Level Shifting         CNVShift        .... on
   Level shift para.    LevelShift      ....    0.2500
   Turn off err/grad.   ShiftErr        ....    0.0010
 Zerner damping         CNVZerner       .... off
 Static damping         CNVDamp         .... on
   Fraction old density DampFac         ....    0.7000
   Max. Damping (<1)    DampMax         ....    0.9800
   Min. Damping (>=0)   DampMin         ....    0.0000
   Turn off err/grad.   DampErr         ....    0.1000
 Fernandez-Rico         CNVRico         .... off

SCF Procedure:
 Maximum # iterations   MaxIter         ....   125
 SCF integral mode      SCFMode         .... Direct
   Integral package                     .... LIBINT
 Reset frequency        DirectResetFreq ....    20
 Integral Threshold     Thresh          ....  2.500e-11 Eh
 Primitive CutOff       TCut            ....  2.500e-12 Eh

Convergence Tolerance:
 Convergence Check Mode ConvCheckMode   .... Total+1el-Energy
 Convergence forced     ConvForced      .... 1
 Energy Change          TolE            ....  1.000e-08 Eh
 1-El. energy change                    ....  1.000e-05 Eh
 Orbital Gradient       TolG            ....  1.000e-05
 Orbital Rotation angle TolX            ....  1.000e-05
 DIIS Error             TolErr          ....  5.000e-07


Diagonalization of the overlap matrix:
Smallest eigenvalue                        ... 1.867e-04
Time for diagonalization                   ...    1.556 sec
Threshold for overlap eigenvalues          ... 1.000e-08
Number of eigenvalues below threshold      ... 0
Time for construction of square roots      ...    0.398 sec
Total time needed                          ...    1.976 sec

-------------------
DFT GRID GENERATION
-------------------

General Integration Accuracy     IntAcc      ...  4.340
Radial Grid Type                 RadialGrid  ... Gauss-Chebyshev
Angular Grid (max. acc.)         AngularGrid ... Lebedev-110
Angular grid pruning method      GridPruning ... 3 (G Style)
Weight generation scheme         WeightScheme... Becke
Basis function cutoff            BFCut       ...    1.0000e-11
Integration weight cutoff        WCut        ...    1.0000e-14
Grids for H and He will be reduced by one unit

# of grid points (after initial pruning)     ... 189656 (   0.5 sec)
# of grid points (after weights+screening)   ... 163447 (  13.3 sec)
nearest neighbour list constructed           ...    0.0 sec
Grid point re-assignment to atoms done       ...    0.0 sec
Grid point division into batches done        ...    0.2 sec
Reduced shell lists constructed in    4.6 sec

Total number of grid points                  ...   163447
Total number of batches                      ...     2631
Average number of points per batch           ...       62
Average number of grid points per atom       ...     1120
Average number of shells per batch           ...   123.38 (17.58%)
Average number of basis functions per batch  ...   247.21 (16.37%)
Average number of large shells per batch     ...    70.42 (57.08%)
Average number of large basis fcns per batch ...   144.59 (58.49%)
Maximum spatial batch extension              ...  21.79, 21.29, 24.36 au
Average spatial batch extension              ...   3.16,  3.08,  3.31 au

Time for grid setup =   18.460 sec

------------------------------
INITIAL GUESS: MODEL POTENTIAL
------------------------------
Loading Hartree-Fock densities                     ... done
Calculating cut-offs                               ... done
Setting up the integral package                    ... done
Initializing the effective Hamiltonian             ... done
Starting the Coulomb interaction                   ... done (  20.8 sec)
Reading the grid                                   ... done
Mapping shells                                     ... done
Starting the XC term evaluation                    ... done (   3.5 sec)
Transforming the Hamiltonian                       ... done (   0.4 sec)
Diagonalizing the Hamiltonian                      ... done (   0.9 sec)
Back transforming the eigenvectors                 ... done (   0.2 sec)
Now organizing SCF variables                       ... done
                      ------------------
                      INITIAL GUESS DONE (  44.7 sec)
                      ------------------
--------------
SCF ITERATIONS
--------------
ITER       Energy         Delta-E        Max-DP      RMS-DP      [F,P]     Damp
               ***  Starting incremental Fock matrix formation  ***
  0  -5583.4041080364   0.000000000000 0.33979163  0.00121369  0.2503585 0.7000
  1  -5584.3560769751  -0.951968938687 0.25957239  0.00094545  0.1503601 0.7000
                               ***Turning on DIIS***
  2  -5584.9459275701  -0.589850594970 0.61526990  0.00221659  0.0831844 0.0000
  3  -5581.1785016549   3.767425915230 0.05594890  0.00041422  0.0493299 0.0000
  4  -5586.3236202880  -5.145118633176 0.02742893  0.00017524  0.0103836 0.0000
  5  -5586.2479028678   0.075717420281 0.00989822  0.00008018  0.0078886 0.0000
  6  -5586.1577567228   0.090146144998 0.00484585  0.00004513  0.0027329 0.0000
                      *** Initiating the SOSCF procedure ***
                           *** Shutting down DIIS ***
                      *** Re-Reading the Fockian *** 
                      *** Removing any level shift *** 
ITER      Energy       Delta-E        Grad      Rot      Max-DP    RMS-DP
  7  -5586.23845918  -0.0807024608  0.002423  0.002423  0.002886  0.000027
               *** Restarting incremental Fock matrix formation ***
  8  -5586.21444513   0.0240140533  0.001276  0.004689  0.001920  0.000016
  9  -5586.21459472  -0.0001495872  0.000586  0.004216  0.002741  0.000021
 10  -5586.21465620  -0.0000614859  0.000201  0.000587  0.000839  0.000005
 11  -5586.21466127  -0.0000050687  0.000112  0.000416  0.000229  0.000002
 12  -5586.21466223  -0.0000009605  0.000029  0.000129  0.000099  0.000001
 13  -5586.21466237  -0.0000001356  0.000012  0.000077  0.000093  0.000000
 14  -5586.21466243  -0.0000000604  0.000009  0.000058  0.000034  0.000000
 15  -5586.21466247  -0.0000000377  0.000004  0.000022  0.000014  0.000000
                  ***Gradient check signals convergence***
              ***Rediagonalizing the Fockian in SOSCF/NRSCF***

               *****************************************************
               *                     SUCCESS                       *
               *           SCF CONVERGED AFTER  16 CYCLES          *
               *****************************************************


----------------
TOTAL SCF ENERGY
----------------

Total Energy       :        -5586.21466244 Eh         -152008.62893 eV

Components:
Nuclear Repulsion  :        15303.70041220 Eh          416434.85936 eV
Electronic Energy  :       -20889.91507465 Eh         -568443.48829 eV
One Electron Energy:       -38164.30694545 Eh        -1038503.58849 eV
Two Electron Energy:        17274.39187080 Eh          470060.10020 eV

Virial components:
Potential Energy   :       -11159.34337713 Eh         -303661.17113 eV
Kinetic Energy     :         5573.12871468 Eh          151652.54219 eV
Virial Ratio       :            2.00234804


---------------
SCF CONVERGENCE
---------------

  Last Energy change         ...    2.3734e-08  Tolerance :   1.0000e-08
  Last MAX-Density change    ...    5.6443e-06  Tolerance :   1.0000e-07
  Last RMS-Density change    ...    4.9851e-08  Tolerance :   5.0000e-09
  Last Orbital Gradient      ...    1.3826e-06  Tolerance :   1.0000e-05
  Last Orbital Rotation      ...    6.6559e-06  Tolerance :   1.0000e-05

             **** THE GBW FILE WAS UPDATED (IDTT-TBTA.gbw) ****
             **** DENSITY FILE WAS UPDATED (IDTT-TBTA.scfp) ****
             **** ENERGY FILE WAS UPDATED (IDTT-TBTA.en.tmp) ****
             **** THE GBW FILE WAS UPDATED (IDTT-TBTA.gbw) ****
             **** DENSITY FILE WAS UPDATED (IDTT-TBTA.scfp) ****
----------------
ORBITAL ENERGIES
----------------

  NO   OCC          E(Eh)            E(eV) 
   0   2.0000     -91.979134     -2502.8795 
   1   2.0000     -91.977142     -2502.8253 
   2   2.0000     -91.974473     -2502.7526 
   3   2.0000     -91.967684     -2502.5679 
   4   2.0000     -91.863271     -2499.7267 
   5   2.0000     -91.861425     -2499.6765 
   6   2.0000     -20.544892      -559.0549 
   7   2.0000     -20.544266      -559.0379 
   8   2.0000     -20.536718      -558.8325 
   9   2.0000     -20.534960      -558.7847 
  10   2.0000     -15.633254      -425.4025 
  11   2.0000     -15.631460      -425.3537 
  12   2.0000     -15.630894      -425.3383 
  13   2.0000     -15.629820      -425.3090 
  14   2.0000     -11.393756      -310.0399 
  15   2.0000     -11.391800      -309.9866 
  16   2.0000     -11.388178      -309.8881 
  17   2.0000     -11.388090      -309.8857 
  18   2.0000     -11.382285      -309.7277 
  19   2.0000     -11.381062      -309.6944 
  20   2.0000     -11.314290      -307.8775 
  21   2.0000     -11.312845      -307.8382 
  22   2.0000     -11.307258      -307.6861 
  23   2.0000     -11.301531      -307.5303 
  24   2.0000     -11.300124      -307.4920 
  25   2.0000     -11.295200      -307.3580 
  26   2.0000     -11.294225      -307.3315 
  27   2.0000     -11.290436      -307.2284 
  28   2.0000     -11.289911      -307.2141 
  29   2.0000     -11.288516      -307.1761 
  30   2.0000     -11.286834      -307.1304 
  31   2.0000     -11.283092      -307.0285 
  32   2.0000     -11.283005      -307.0262 
  33   2.0000     -11.279931      -306.9425 
  34   2.0000     -11.275970      -306.8348 
  35   2.0000     -11.275715      -306.8278 
  36   2.0000     -11.270532      -306.6868 
  37   2.0000     -11.269909      -306.6698 
  38   2.0000     -11.269871      -306.6688 
  39   2.0000     -11.267090      -306.5931 
  40   2.0000     -11.266722      -306.5831 
  41   2.0000     -11.266459      -306.5759 
  42   2.0000     -11.265467      -306.5489 
  43   2.0000     -11.263390      -306.4924 
  44   2.0000     -11.263312      -306.4903 
  45   2.0000     -11.261865      -306.4509 
  46   2.0000     -11.260440      -306.4122 
  47   2.0000     -11.258327      -306.3547 
  48   2.0000     -11.253796      -306.2313 
  49   2.0000     -11.253601      -306.2260 
  50   2.0000     -11.251057      -306.1568 
  51   2.0000     -11.249758      -306.1215 
  52   2.0000     -11.245387      -306.0025 
  53   2.0000     -11.244388      -305.9753 
  54   2.0000     -11.244256      -305.9718 
  55   2.0000     -11.244023      -305.9654 
  56   2.0000     -11.243183      -305.9426 
  57   2.0000     -11.242895      -305.9347 
  58   2.0000     -11.242672      -305.9286 
  59   2.0000     -11.241509      -305.8970 
  60   2.0000     -11.241386      -305.8937 
  61   2.0000     -11.241258      -305.8902 
  62   2.0000     -11.240610      -305.8726 
  63   2.0000     -11.240292      -305.8639 
  64   2.0000     -11.239898      -305.8532 
  65   2.0000     -11.239647      -305.8464 
  66   2.0000     -11.239087      -305.8311 
  67   2.0000     -11.238489      -305.8148 
  68   2.0000     -11.238176      -305.8063 
  69   2.0000     -11.237617      -305.7911 
  70   2.0000     -11.237212      -305.7801 
  71   2.0000     -11.235920      -305.7449 
  72   2.0000     -11.235780      -305.7411 
  73   2.0000     -11.235121      -305.7232 
  74   2.0000     -11.235101      -305.7226 
  75   2.0000     -11.233520      -305.6796 
  76   2.0000     -11.227778      -305.5234 
  77   2.0000     -11.226008      -305.4752 
  78   2.0000     -11.225681      -305.4663 
  79   2.0000     -11.224875      -305.4444 
  80   2.0000     -11.217552      -305.2451 
  81   2.0000     -11.215991      -305.2026 
  82   2.0000     -11.215816      -305.1979 
  83   2.0000     -11.214496      -305.1620 
  84   2.0000      -9.014263      -245.2906 
  85   2.0000      -9.012300      -245.2371 
  86   2.0000      -9.009616      -245.1641 
  87   2.0000      -9.000845      -244.9254 
  88   2.0000      -8.901708      -242.2278 
  89   2.0000      -8.899852      -242.1773 
  90   2.0000      -6.701797      -182.3652 
  91   2.0000      -6.700950      -182.3421 
  92   2.0000      -6.699887      -182.3132 
  93   2.0000      -6.699035      -182.2900 
  94   2.0000      -6.698820      -182.2842 
  95   2.0000      -6.697097      -182.2373 
  96   2.0000      -6.696862      -182.2309 
  97   2.0000      -6.696035      -182.2084 
  98   2.0000      -6.694083      -182.1553 
  99   2.0000      -6.687831      -181.9851 
 100   2.0000      -6.686503      -181.9490 
 101   2.0000      -6.684574      -181.8965 
 102   2.0000      -6.590193      -179.3283 
 103   2.0000      -6.588340      -179.2779 
 104   2.0000      -6.587135      -179.2451 
 105   2.0000      -6.586068      -179.2160 
 106   2.0000      -6.585276      -179.1945 
 107   2.0000      -6.584217      -179.1656 
 108   2.0000      -1.416090       -38.5338 
 109   2.0000      -1.414877       -38.5008 
 110   2.0000      -1.398196       -38.0469 
 111   2.0000      -1.397562       -38.0296 
 112   2.0000      -1.328416       -36.1480 
 113   2.0000      -1.326699       -36.1013 
 114   2.0000      -1.252279       -34.0762 
 115   2.0000      -1.249785       -34.0084 
 116   2.0000      -1.247342       -33.9419 
 117   2.0000      -1.243756       -33.8443 
 118   2.0000      -1.211617       -32.9698 
 119   2.0000      -1.197696       -32.5910 
 120   2.0000      -1.171273       -31.8720 
 121   2.0000      -1.166350       -31.7380 
 122   2.0000      -1.161106       -31.5953 
 123   2.0000      -1.157812       -31.5057 
 124   2.0000      -1.149654       -31.2837 
 125   2.0000      -1.130681       -30.7674 
 126   2.0000      -1.111780       -30.2531 
 127   2.0000      -1.109236       -30.1839 
 128   2.0000      -1.105076       -30.0706 
 129   2.0000      -1.076441       -29.2915 
 130   2.0000      -1.066684       -29.0260 
 131   2.0000      -1.064022       -28.9535 
 132   2.0000      -1.057443       -28.7745 
 133   2.0000      -1.055478       -28.7210 
 134   2.0000      -1.047748       -28.5107 
 135   2.0000      -1.043642       -28.3989 
 136   2.0000      -1.041489       -28.3403 
 137   2.0000      -1.039664       -28.2907 
 138   2.0000      -1.028695       -27.9922 
 139   2.0000      -1.024905       -27.8891 
 140   2.0000      -1.019857       -27.7517 
 141   2.0000      -1.016814       -27.6689 
 142   2.0000      -1.016620       -27.6636 
 143   2.0000      -1.013475       -27.5781 
 144   2.0000      -1.009434       -27.4681 
 145   2.0000      -1.007489       -27.4152 
 146   2.0000      -1.004450       -27.3325 
 147   2.0000      -0.998129       -27.1605 
 148   2.0000      -0.983088       -26.7512 
 149   2.0000      -0.980491       -26.6805 
 150   2.0000      -0.980280       -26.6748 
 151   2.0000      -0.974484       -26.5170 
 152   2.0000      -0.964616       -26.2485 
 153   2.0000      -0.936210       -25.4756 
 154   2.0000      -0.929978       -25.3060 
 155   2.0000      -0.917262       -24.9600 
 156   2.0000      -0.897242       -24.4152 
 157   2.0000      -0.888711       -24.1831 
 158   2.0000      -0.886122       -24.1126 
 159   2.0000      -0.883761       -24.0484 
 160   2.0000      -0.878973       -23.9181 
 161   2.0000      -0.867821       -23.6146 
 162   2.0000      -0.865457       -23.5503 
 163   2.0000      -0.863308       -23.4918 
 164   2.0000      -0.859206       -23.3802 
 165   2.0000      -0.848074       -23.0773 
 166   2.0000      -0.839471       -22.8432 
 167   2.0000      -0.839065       -22.8321 
 168   2.0000      -0.836734       -22.7687 
 169   2.0000      -0.835663       -22.7395 
 170   2.0000      -0.832251       -22.6467 
 171   2.0000      -0.830928       -22.6107 
 172   2.0000      -0.830463       -22.5980 
 173   2.0000      -0.826863       -22.5001 
 174   2.0000      -0.809428       -22.0257 
 175   2.0000      -0.798253       -21.7216 
 176   2.0000      -0.795539       -21.6477 
 177   2.0000      -0.794894       -21.6302 
 178   2.0000      -0.792263       -21.5586 
 179   2.0000      -0.787437       -21.4273 
 180   2.0000      -0.780190       -21.2300 
 181   2.0000      -0.775810       -21.1109 
 182   2.0000      -0.774507       -21.0754 
 183   2.0000      -0.756832       -20.5944 
 184   2.0000      -0.748353       -20.3637 
 185   2.0000      -0.743564       -20.2334 
 186   2.0000      -0.736259       -20.0346 
 187   2.0000      -0.712761       -19.3952 
 188   2.0000      -0.709493       -19.3063 
 189   2.0000      -0.707883       -19.2625 
 190   2.0000      -0.706158       -19.2155 
 191   2.0000      -0.696982       -18.9659 
 192   2.0000      -0.693286       -18.8653 
 193   2.0000      -0.684912       -18.6374 
 194   2.0000      -0.682562       -18.5735 
 195   2.0000      -0.676793       -18.4165 
 196   2.0000      -0.671424       -18.2704 
 197   2.0000      -0.668369       -18.1872 
 198   2.0000      -0.664733       -18.0883 
 199   2.0000      -0.663802       -18.0630 
 200   2.0000      -0.662436       -18.0258 
 201   2.0000      -0.659447       -17.9445 
 202   2.0000      -0.657958       -17.9039 
 203   2.0000      -0.657469       -17.8906 
 204   2.0000      -0.654315       -17.8048 
 205   2.0000      -0.652797       -17.7635 
 206   2.0000      -0.650874       -17.7112 
 207   2.0000      -0.648923       -17.6581 
 208   2.0000      -0.643931       -17.5222 
 209   2.0000      -0.640653       -17.4330 
 210   2.0000      -0.639708       -17.4073 
 211   2.0000      -0.637332       -17.3427 
 212   2.0000      -0.634833       -17.2747 
 213   2.0000      -0.629651       -17.1337 
 214   2.0000      -0.623858       -16.9760 
 215   2.0000      -0.618293       -16.8246 
 216   2.0000      -0.617543       -16.8042 
 217   2.0000      -0.616809       -16.7842 
 218   2.0000      -0.612973       -16.6798 
 219   2.0000      -0.611291       -16.6341 
 220   2.0000      -0.607959       -16.5434 
 221   2.0000      -0.606517       -16.5042 
 222   2.0000      -0.606002       -16.4902 
 223   2.0000      -0.604411       -16.4469 
 224   2.0000      -0.603145       -16.4124 
 225   2.0000      -0.602086       -16.3836 
 226   2.0000      -0.601523       -16.3683 
 227   2.0000      -0.599503       -16.3133 
 228   2.0000      -0.599373       -16.3098 
 229   2.0000      -0.596326       -16.2268 
 230   2.0000      -0.594994       -16.1906 
 231   2.0000      -0.593663       -16.1544 
 232   2.0000      -0.592690       -16.1279 
 233   2.0000      -0.590976       -16.0813 
 234   2.0000      -0.589224       -16.0336 
 235   2.0000      -0.588932       -16.0257 
 236   2.0000      -0.586688       -15.9646 
 237   2.0000      -0.584610       -15.9080 
 238   2.0000      -0.579451       -15.7677 
 239   2.0000      -0.576628       -15.6909 
 240   2.0000      -0.570851       -15.5337 
 241   2.0000      -0.566743       -15.4219 
 242   2.0000      -0.565516       -15.3885 
 243   2.0000      -0.561414       -15.2768 
 244   2.0000      -0.557737       -15.1768 
 245   2.0000      -0.553285       -15.0557 
 246   2.0000      -0.547804       -14.9065 
 247   2.0000      -0.543755       -14.7963 
 248   2.0000      -0.541035       -14.7223 
 249   2.0000      -0.540452       -14.7065 
 250   2.0000      -0.539713       -14.6863 
 251   2.0000      -0.539014       -14.6673 
 252   2.0000      -0.538067       -14.6416 
 253   2.0000      -0.536451       -14.5976 
 254   2.0000      -0.533466       -14.5163 
 255   2.0000      -0.532497       -14.4900 
 256   2.0000      -0.532153       -14.4806 
 257   2.0000      -0.529082       -14.3970 
 258   2.0000      -0.528594       -14.3838 
 259   2.0000      -0.526373       -14.3233 
 260   2.0000      -0.525127       -14.2894 
 261   2.0000      -0.524768       -14.2797 
 262   2.0000      -0.520261       -14.1570 
 263   2.0000      -0.517353       -14.0779 
 264   2.0000      -0.514636       -14.0039 
 265   2.0000      -0.513098       -13.9621 
 266   2.0000      -0.511495       -13.9185 
 267   2.0000      -0.509564       -13.8659 
 268   2.0000      -0.507697       -13.8151 
 269   2.0000      -0.505370       -13.7518 
 270   2.0000      -0.504604       -13.7310 
 271   2.0000      -0.503653       -13.7051 
 272   2.0000      -0.499625       -13.5955 
 273   2.0000      -0.498146       -13.5552 
 274   2.0000      -0.497390       -13.5347 
 275   2.0000      -0.496249       -13.5036 
 276   2.0000      -0.494457       -13.4548 
 277   2.0000      -0.493218       -13.4212 
[...]
   Using LibInt in JK Direct
   Time for J+K (Direct):  1505.247
   Time for Sigma-Completion:    10.812
   Size of expansion space: 23
   Lowest Energy          :     0.108832554418
   Maximum Energy change  :     0.000001142500 (vector 2)
   Maximum residual norm  :     0.000000234440

      *** CONVERGENCE OF RESIDUAL NORM REACHED ***

Storing the converged CI vectors               ... IDTT-TBTA.cis1

                 *** DAVIDSON DONE ***

Total time for solving the CIS problem: 95494.331sec

-----------------------------
CIS-EXCITED STATES (SINGLETS)
-----------------------------

the weight of the individual excitations are printed if larger than 1.0e-02

STATE  1:  E=   0.108833 au      2.961 eV    23886.0 cm**-1
   302a -> 321a  :     0.019757 (c=  0.14055917)
   317a -> 320a  :     0.151618 (c= -0.38938145)
   318a -> 319a  :     0.734888 (c= -0.85725630)
   318a -> 321a  :     0.017319 (c=  0.13160013)

STATE  2:  E=   0.135059 au      3.675 eV    29642.1 cm**-1
   300a -> 321a  :     0.011108 (c=  0.10539574)
   302a -> 320a  :     0.032018 (c=  0.17893553)
   314a -> 320a  :     0.017138 (c= -0.13091370)
   317a -> 319a  :     0.368187 (c= -0.60678454)
   317a -> 321a  :     0.013729 (c= -0.11716974)
   318a -> 320a  :     0.438518 (c= -0.66220719)

STATE  3:  E=   0.166075 au      4.519 eV    36449.2 cm**-1
   312a -> 319a  :     0.088549 (c=  0.29757201)
   312a -> 320a  :     0.116619 (c=  0.34149510)
   312a -> 321a  :     0.118873 (c=  0.34477971)
   312a -> 323a  :     0.187937 (c= -0.43351683)
   312a -> 326a  :     0.133269 (c= -0.36505998)
   312a -> 327a  :     0.041287 (c= -0.20319115)
   312a -> 328a  :     0.016315 (c=  0.12772983)
   312a -> 332a  :     0.043562 (c=  0.20871484)
   312a -> 333a  :     0.017967 (c= -0.13404204)
   312a -> 335a  :     0.015923 (c= -0.12618800)
   313a -> 319a  :     0.012955 (c= -0.11381948)
   313a -> 320a  :     0.016696 (c=  0.12921188)
   313a -> 321a  :     0.014758 (c= -0.12148095)
   313a -> 323a  :     0.020835 (c= -0.14434494)
   313a -> 326a  :     0.029867 (c=  0.17282215)


----------------------
CIS-EXCITATION SPECTRA
----------------------

Center of mass = ( -7.8273, 13.5042, -1.8029)
Calculating the Dipole integrals                  ... done
Transforming integrals                            ... done
Calculating the Linear Momentum integrals         ... done
Transforming integrals                            ... done
Calculating angular momentum integrals            ... done
Transforming integrals                            ... done

-----------------------------------------------------------------------------
         ABSORPTION SPECTRUM VIA TRANSITION ELECTRIC DIPOLE MOMENTS
-----------------------------------------------------------------------------
State   Energy    Wavelength  fosc         T2        TX        TY        TZ  
        (cm-1)      (nm)                 (au**2)    (au)      (au)      (au) 
-----------------------------------------------------------------------------
   1   23886.0    418.7   3.134903012  43.20724   4.30168  -4.96659   0.18918
   2   29642.1    337.4   0.101808457   1.13071  -0.75227  -0.56135  -0.49968
   3   36449.2    274.4   0.000351409   0.00317   0.05015  -0.02277   0.01185

-----------------------------------------------------------------------------
         ABSORPTION SPECTRUM VIA TRANSITION VELOCITY DIPOLE MOMENTS
-----------------------------------------------------------------------------
State   Energy    Wavelength   fosc        P2         PX        PY        PZ  
        (cm-1)      (nm)                 (au**2)     (au)      (au)      (au) 
-----------------------------------------------------------------------------
   1   23886.0    418.7   1.679750586   0.27422  -0.36065   0.37885  -0.02503
   2   29642.1    337.4   0.076574022   0.01551   0.10169   0.05659   0.04439
   3   36449.2    274.4   0.000077904   0.00002  -0.00024   0.00439  -0.00020

-------------------------------------------------------------------
                             CD SPECTRUM
-------------------------------------------------------------------
State  Energy     Wavelength     R         MX        MY        MZ   
       (cm-1)       (nm)     (1e40*cgs)   (au)      (au)      (au)  
-------------------------------------------------------------------
   1   23886.0    418.7    -43.08768  -0.36369  -0.24449   1.36786
   2   29642.1    337.4     81.75471  -0.26476  -0.21913   0.29772
   3   36449.2    274.4      0.44410  -0.11283  -0.27547   0.02777

Total run time:    95687.540 sec

           *** ORCA-CIS/TD-DFT FINISHED WITHOUT ERROR ***

-----------------------
CIS/TD-DFT TOTAL ENERGY
-----------------------

    E(SCF)  =  -5586.214662443 Eh
    DE(CIS) =      0.108832554 Eh (Root  1)
    ----------------------------- ---------
    E(tot)  =  -5586.105829888 Eh


-------------------------   --------------------
FINAL SINGLE POINT ENERGY     -5586.105829888183
-------------------------   --------------------

------------------------------------------------------------------------------
                         ORCA SCF GRADIENT CALCULATION
------------------------------------------------------------------------------


------------
CIS GRADIENT
------------

Reference wavefunction             ... RHF
State of interest                  ... 1
Basis dimension                    ... 1510
DFT-XC contribution needed         ... NO
RI-approximation                   ... OFF
CIS-vectors being read from        ... IDTT-TBTA.cis

 => Number of Vectors found: 3
 => Orbital Window: 108...318 -> 319...1509

Reading the CIS file                     ... done
Norm of the CI vector                    ... 1.000000000
Making the CIS (pseudo)densities         ... done
Making operators G(D) and Q(T)           ... done
Transforming the Fock operators          ... done
Making the frozen-core relaxed density   ... done
Constructing the G(H) operator           ... done
Transforming the G(H) operator           ... done
Calculating the CIS Lagrangian           ... done
Solving the Z-vector equations           ... done
Finalizing the relaxed density           ... done
Storing the relaxed density              ... done
Constructing the G(Z) operator           ... done
Transforming the G(Z) operator           ... done
Making the W-matrix                      ... done
Finalizing the W-matrix                  ... done
Transforming the W-matrix                ... done
Nuclear repulsion gradient               ... done
One-Electron gradient                    ... done
Prescreening matrices                    ... done
Two-Electron gradient (4-center)         ... done
                 ---------------------------
                 EXCITED STATE GRADIENT DONE
                 ---------------------------


------------------
CARTESIAN GRADIENT
------------------

   1   C   :   -0.000891752    0.005342671    0.000994774
   2   C   :    0.010060471    0.002252744    0.003856154
   3   C   :   -0.000791634   -0.011408430   -0.003089990
   4   C   :    0.002450576    0.006906160    0.002353744
   5   C   :    0.000047343   -0.007011344   -0.001840636
   6   S   :   -0.003823575    0.001802896   -0.001199517
   7   C   :   -0.008417506   -0.001565386   -0.004593327
   8   C   :    0.001515917    0.004599232    0.002048628
   9   C   :    0.001164399    0.003586299   -0.004783697
  10   C   :   -0.000613500   -0.000595083    0.000358551
  11   C   :    0.001372735    0.001062988   -0.000923283
  12   C   :   -0.003249718    0.003003562   -0.000031601
  13   C   :    0.005167069   -0.003438969   -0.003224952
  14   C   :   -0.001050562    0.005107919    0.000079122
  15   C   :    0.000515008   -0.000694026    0.001376586
  16   C   :    0.002091648    0.000931595   -0.000772039
  17   C   :    0.000565475   -0.002413203    0.005493650
  18   C   :    0.000132713    0.000005473   -0.000833065
  19   C   :   -0.000316737    0.000639327    0.002118483
  20   C   :    0.004398180   -0.001845199    0.000797585
  21   C   :   -0.006753222    0.000536555    0.001746366
  22   C   :    0.004217775    0.000702480    0.002909795
  23   C   :    0.000158696    0.000891958   -0.001824852
  24   C   :   -0.000473473    0.000640096    0.002732526
  25   C   :    0.015802211   -0.005613340    0.004762896
  26   C   :   -0.016254842    0.012713954   -0.002874431
  27   C   :    0.007792520   -0.007273450    0.000829081
  28   S   :   -0.001880214   -0.004753150   -0.001708595
  29   C   :    0.011322460   -0.014290997    0.000640234
  30   C   :   -0.015708713    0.005661006   -0.005122756
  31   C   :   -0.001860708   -0.005203033   -0.001676998
  32   C   :   -0.000583261    0.002482665   -0.005626732
  33   C   :   -0.000660074   -0.000349613   -0.002869394
  34   C   :    0.000986267   -0.000899412    0.001712481
  35   C   :    0.003643032    0.002588443    0.000096727
  36   C   :   -0.006263695   -0.001701734   -0.003044497
  37   C   :    0.005044696   -0.000117377   -0.001865820
  38   C   :    0.001386924   -0.000384349   -0.002020759
  39   C   :   -0.000425424    0.000084483    0.000564972
  40   C   :   -0.001265811   -0.003384340    0.004807139
  41   C   :    0.000415355    0.000518820   -0.000181923
  42   C   :   -0.001336560   -0.000972027    0.000908734
  43   C   :    0.003017417   -0.003051781   -0.000293446
  44   C   :   -0.004598356    0.003514448    0.003783895
  45   C   :    0.000660727   -0.005132264   -0.000527682
  46   C   :   -0.000646293    0.000685330   -0.001342193
  47   C   :   -0.001949118   -0.000977994    0.000929547
  48   C   :    0.007980668    0.001099627    0.003881333
  49   C   :   -0.007643158    0.007460455   -0.000749396
  50   C   :    0.016486960   -0.013158053    0.002621543
  51   C   :   -0.011506002    0.014650801   -0.000385829
  52   S   :    0.002102455    0.004853668    0.001907038
  53   C   :   -0.001074323   -0.002667272   -0.000638742
  54   C   :    0.004561923    0.007977741    0.003643328
  55   S   :   -0.008652492    0.017153728    0.002042405
  56   C   :   -0.010068133   -0.000175566   -0.002719195
  57   C   :   -0.002423056    0.002284990   -0.000268176
  58   C   :    0.009055960   -0.003565667    0.002069616
  59   C   :    0.000490068    0.003467330    0.001775452
  60   C   :    0.003702106    0.002970305    0.003130147
  61   C   :    0.023627414    0.012271387    0.011344639
  62   N   :   -0.005376345    0.006410247   -0.002821023
  63   C   :    0.000154520    0.001791994   -0.000870974
  64   N   :    0.007251386    0.006316654    0.001837328
  65   C   :   -0.029945520    0.007219735   -0.009050972
  66   C   :    0.002453718   -0.026041194   -0.006528823
  67   N   :    0.007919705    0.003153414    0.001276537
  68   C   :    0.002343792    0.000663639   -0.000377206
  69   N   :    0.004297846   -0.006991988   -0.003205387
  70   C   :    0.018445011    0.020551807    0.011398171
  71   O   :   -0.028293229   -0.013962945   -0.014190217
  72   O   :    0.042689889   -0.027641892    0.007024423
  73   C   :   -0.013554772   -0.004271381   -0.006449055
  74   C   :    0.002832470    0.002064912   -0.002520210
  75   C   :    0.014509570   -0.004084338    0.003916938
  76   C   :   -0.000569965    0.001976141   -0.003789905
  77   S   :    0.001743525   -0.013005066   -0.004319534
  78   O   :   -0.003082964    0.033468399    0.007426479
  79   C   :   -0.007431502   -0.012341051   -0.006552207
  80   S   :   -0.012118114    0.004724541   -0.004245693
  81   C   :   -0.000222509    0.015146189    0.003817731
  82   O   :   -0.021167853   -0.023914495   -0.013944821
  83   C   :    0.001722196   -0.001056200   -0.003824005
  84   C   :    0.002709619    0.002275642   -0.002568062
  85   H   :   -0.003865331   -0.003067309   -0.002239000
  86   H   :   -0.000603133    0.000691630    0.000084052
  87   H   :    0.000312169    0.000859132   -0.000651336
  88   H   :   -0.000715059    0.000506296   -0.001514085
  89   H   :    0.000566816    0.001918101    0.001712018
  90   H   :   -0.001486576    0.001734499   -0.001356168
  91   H   :    0.000519012   -0.002020989   -0.001852447
  92   H   :    0.003115643    0.000285807   -0.002116662
  93   H   :    0.002173371   -0.001853438    0.000418995
  94   H   :    0.001256536    0.000692638    0.001236629
  95   H   :    0.001003119    0.001322083   -0.000135930
  96   H   :   -0.000253747    0.000574161    0.001718992
  97   H   :    0.000226970   -0.001250125    0.001176388
  98   H   :    0.001614201    0.002056475    0.000299708
  99   H   :    0.001691348   -0.001404703    0.001515072
 100   H   :   -0.002371845   -0.001378444    0.000039279
 101   H   :   -0.002418319    0.000875131    0.002745341
 102   H   :   -0.002533108    0.001207217   -0.000652816
 103   H   :   -0.000068130    0.002010899    0.000094567
 104   H   :    0.001220718    0.001112045    0.002093069
 105   H   :   -0.000176711   -0.000752166   -0.000256709
 106   H   :   -0.001238736   -0.001238093   -0.002081897
 107   H   :    0.000595290   -0.001919156   -0.000002028
 108   H   :    0.001949399   -0.001720757    0.000168873
 109   H   :    0.001654307    0.001764033   -0.001111157
 110   H   :   -0.002614749    0.001015340   -0.000680146
 111   H   :   -0.001609707   -0.001280324   -0.003189034
 112   H   :   -0.002362635   -0.001706193    0.000190249
 113   H   :    0.000166914    0.001341495   -0.001138522
 114   H   :    0.000359300   -0.000684245   -0.001689847
 115   H   :   -0.000333491   -0.000913622    0.000679425
 116   H   :    0.000826039   -0.000504817    0.001490677
 117   H   :    0.001530791   -0.001807626    0.001179393
 118   H   :   -0.000775784   -0.001858605   -0.001720593
 119   H   :   -0.002089604    0.001975700   -0.000206452
 120   H   :   -0.002934827   -0.000260058    0.002363499
 121   H   :   -0.000321423    0.001957914    0.001985782
 122   H   :   -0.001239391   -0.000699614   -0.001148930
 123   H   :   -0.001006322   -0.001292215    0.000122374
 124   H   :    0.000235274    0.000737772    0.000192167
 125   H   :    0.004026681    0.000316589    0.001356650
 126   H   :   -0.003615921   -0.001030650   -0.001732137
 127   H   :    0.004064596   -0.005132932    0.001678256
 128   H   :   -0.003385846    0.006510158    0.003108920
 129   H   :   -0.002290769    0.000677847    0.001299941
 130   H   :   -0.003543280   -0.001959273   -0.000587742
 131   H   :   -0.001123213   -0.001098698    0.000595450
 132   H   :    0.000496883    0.006217930    0.004491937
 133   H   :   -0.004085592   -0.005068701   -0.001417721
 134   H   :    0.000598943   -0.000993979    0.001238119
 135   H   :    0.003087119   -0.001927311    0.001884309
 136   H   :    0.000950462    0.000810427    0.002615162
 137   H   :    0.005379522   -0.004916785    0.003132938
 138   H   :   -0.004036213    0.005290962    0.001688736
 139   H   :   -0.005978526   -0.002736914   -0.001289968
 140   H   :    0.006271427   -0.001025699    0.004456246
 141   H   :    0.001032777    0.000774011    0.002581379
 142   H   :   -0.001058649    0.003468406    0.001873184
 143   H   :   -0.000786023    0.000807863    0.001212641
 144   H   :   -0.001336355   -0.000863869    0.000560893
 145   H   :   -0.002802919   -0.002949380   -0.000527706
 146   H   :    0.000070570   -0.002456705    0.001294566

Difference to translation invariance:
           :    0.0000000004    0.0000000004   -0.0000000001

Norm of the cartesian gradient     ...    0.1296065214
RMS gradient                       ...    0.0061928391
MAX gradient                       ...    0.0426898892

-------
TIMINGS
-------

Total CIS gradient time            ...    39237.278 sec

Fock matrix formation       ....    3488.153 sec  (  8.9%)
  Coulomb formation         ....    3488.153 sec  (100.0% of F)
Z-vector equation           ....   32194.030 sec  ( 82.0%)
One electron gradient       ....      29.380 sec  (  0.1%)
Prescreening matrices       ....       1.614 sec  (  0.0%)
Two electron gradient       ....    3518.233 sec  (  9.0%)

                            ***************************************
                            *     ORCA property calculations      *
                            ***************************************

                                    ---------------------
                                    Active property flags
                                    ---------------------
   (+) Dipole Moment


------------------------------------------------------------------------------
                       ORCA ELECTRIC PROPERTIES CALCULATION
------------------------------------------------------------------------------

Dipole Moment Calculation                       ... on
Quadrupole Moment Calculation                   ... off
Polarizability Calculation                      ... off
GBWName                                         ... IDTT-TBTA.gbw
Electron density file                           ... IDTT-TBTA.scfp
The origin for moment calculation is the CENTER OF MASS  = (-7.827305, 13.504223 -1.802906)

-------------
DIPOLE MOMENT
-------------
                                X             Y             Z
Electronic contribution:    -17.18536      -8.42051       6.49930
Nuclear contribution   :     16.18577       8.04643      -7.06880
                        -----------------------------------------
Total Dipole Moment    :     -0.99960      -0.37408      -0.56950
                        -----------------------------------------
Magnitude (a.u.)       :      1.20974
Magnitude (Debye)      :      3.07490



--------------------
Rotational spectrum 
--------------------
 
Rotational constants in cm-1:     0.001227     0.000236     0.000226 
Rotational constants in MHz :    36.788214     7.088680     6.776668 

 Dipole components along the rotational axes: 
x,y,z [a.u.] :     0.367690    -1.138416    -0.179649 
x,y,z [Debye]:     0.934594    -2.893623    -0.456632 

 

                        *** CIS RELAXED DENSITY ***

------------------------------------------------------------------------------
                       ORCA ELECTRIC PROPERTIES CALCULATION
------------------------------------------------------------------------------

Dipole Moment Calculation                       ... on
Quadrupole Moment Calculation                   ... off
Polarizability Calculation                      ... off
GBWName                                         ... IDTT-TBTA.gbw
Electron density file                           ... IDTT-TBTA.cisp
The origin for moment calculation is the CENTER OF MASS  = (-7.827305, 13.504223 -1.802906)

-------------
DIPOLE MOMENT
-------------
                                X             Y             Z
Electronic contribution:    -17.28438      -8.42961       6.44736
Nuclear contribution   :     16.18577       8.04643      -7.06880
                        -----------------------------------------
Total Dipole Moment    :     -1.09862      -0.38318      -0.62144
                        -----------------------------------------
Magnitude (a.u.)       :      1.31908
Magnitude (Debye)      :      3.35284



--------------------
Rotational spectrum 
--------------------
 
Rotational constants in cm-1:     0.001227     0.000236     0.000226 
Rotational constants in MHz :    36.788214     7.088680     6.776668 

 Dipole components along the rotational axes: 
x,y,z [a.u.] :     0.425425    -1.232623    -0.199087 
x,y,z [Debye]:     1.081345    -3.133078    -0.506039 

 

Timings for individual modules:

Sum of individual times         ...   149435.364 sec (=2490.589 min)
GTO integral calculation        ...        5.241 sec (=   0.087 min)   0.0 %
SCF iterations                  ...    14502.079 sec (= 241.701 min)   9.7 %
CIS module                      ...    95690.556 sec (=1594.843 min)  64.0 %
SCF Gradient evaluation         ...    39237.488 sec (= 653.958 min)  26.3 %
                             ****ORCA TERMINATED NORMALLY****
TOTAL RUN TIME: 1 days 17 hours 30 minutes 36 seconds 787 msec
