
                                 *****************
                                 * O   R   C   A *
                                 *****************

           --- An Ab Initio, DFT and Semiempirical electronic structure package ---

                  #######################################################
                  #                        -***-                        #
                  #          Department of theory and spectroscopy      #
                  #               Directorship: Frank Neese             #
                  #        Max Planck Institute fuer Kohlenforschung    #
                  #                Kaiser Wilhelm Platz 1               #
                  #                 D-45470 Muelheim/Ruhr               #
                  #                      Germany                        #
                  #                                                     #
                  #                  All rights reserved                #
                  #                        -***-                        #
                  #######################################################


                         Program Version 4.2.0 -  RELEASE  -


 With contributions from (in alphabetic order):
   Daniel Aravena         : Magnetic Suceptibility
   Michael Atanasov       : Ab Initio Ligand Field Theory (pilot matlab implementation)
   Alexander A. Auer      : GIAO ZORA, VPT2
   Ute Becker             : Parallelization
   Giovanni Bistoni       : ED, misc. LED, open-shell LED, HFLED
   Martin Brehm           : Molecular dynamics
   Dmytro Bykov           : SCF Hessian
   Vijay G. Chilkuri      : MRCI spin determinant printing, contributions to CSF-ICE
   Dipayan Datta          : RHF DLPNO-CCSD density
   Achintya Kumar Dutta   : EOM-CC, STEOM-CC
   Dmitry Ganyushin       : Spin-Orbit,Spin-Spin,Magnetic field MRCI
   Miquel Garcia          : C-PCM Hessian, Gaussian charge scheme
   Yang Guo               : DLPNO-NEVPT2, CIM, IAO-localization
   Andreas Hansen         : Spin unrestricted coupled pair/coupled cluster methods
   Benjamin Helmich-Paris : CASSCF linear response (MC-RPA)
   Lee Huntington         : MR-EOM, pCC
   Robert Izsak           : Overlap fitted RIJCOSX, COSX-SCS-MP3, EOM
   Christian Kollmar      : KDIIS, OOCD, Brueckner-CCSD(T), CCSD density
   Simone Kossmann        : Meta GGA functionals, TD-DFT gradient, OOMP2, MP2 Hessian
   Martin Krupicka        : AUTO-CI
   Lucas Lang             : DCDCAS
   Dagmar Lenk            : GEPOL surface, SMD
   Dimitrios Liakos       : Extrapolation schemes; Compound Job, initial MDCI parallelization
   Dimitrios Manganas     : Further ROCIS development; embedding schemes
   Dimitrios Pantazis     : SARC Basis sets
   Taras Petrenko         : DFT Hessian,TD-DFT gradient, ASA, ECA, R-Raman, ABS, FL, XAS/XES, NRVS
   Peter Pinski           : DLPNO-MP2, DLPNO-MP2 Gradient
   Christoph Reimann      : Effective Core Potentials
   Marius Retegan         : Local ZFS, SOC
   Christoph Riplinger    : Optimizer, TS searches, QM/MM, DLPNO-CCSD(T), (RO)-DLPNO pert. Triples
   Tobias Risthaus        : Range-separated hybrids, TD-DFT gradient, RPA, STAB
   Michael Roemelt        : Original ROCIS implementation
   Masaaki Saitow         : Open-shell DLPNO-CCSD energy and density
   Barbara Sandhoefer     : DKH picture change effects
   Avijit Sen             : IP-ROCIS
   Kantharuban Sivalingam : CASSCF convergence, NEVPT2, FIC-MRCI
   Bernardo de Souza      : ESD, SOC TD-DFT
   Georgi Stoychev        : AutoAux, RI-MP2 NMR
   Willem Van den Heuvel  : Paramagnetic NMR
   Boris Wezisla          : Elementary symmetry handling
   Frank Wennmohs         : Technical directorship


 We gratefully acknowledge several colleagues who have allowed us to
 interface, adapt or use parts of their codes:
   Stefan Grimme, W. Hujo, H. Kruse,             : VdW corrections, initial TS optimization,
                  C. Bannwarth                     DFT functionals, gCP, sTDA/sTD-DF
   Ed Valeev, F. Pavosevic, A. Kumar             : LibInt (2-el integral package), F12 methods
   Garnet Chan, S. Sharma, J. Yang, R. Olivares  : DMRG
   Ulf Ekstrom                                   : XCFun DFT Library
   Mihaly Kallay                                 : mrcc  (arbitrary order and MRCC methods)
   Andreas Klamt, Michael Diedenhofen            : otool_cosmo (COSMO solvation model)
   Jiri Pittner, Ondrej Demel                    : Mk-CCSD
   Frank Weinhold                                : gennbo (NPA and NBO analysis)
   Christopher J. Cramer and Donald G. Truhlar   : smd solvation model
   Lars Goerigk                                  : TD-DFT with DH, B97 family of functionals
   V. Asgeirsson, H. Jonsson                     : NEB implementation
   FAccTs GmbH                                   : IRC, NEB, NEB-TS, Multilevel, MM, QM/MM, CI optimization
   S Lehtola, MJT Oliveira, MAL Marques          : LibXC Library


 Your calculation uses the libint2 library for the computation of 2-el integrals
 For citations please refer to: http://libint.valeyev.net

 Your ORCA version has been built with support for libXC version: 4.2.3
 For citations please refer to: https://tddft.org/programs/libxc/

 This ORCA versions uses:
   CBLAS   interface :  Fast vector & matrix operations
   LAPACKE interface :  Fast linear algebra routines
   SCALAPACK package :  Parallel linear algebra routines


----- Orbital basis set information -----
Your calculation utilizes the basis: def2-SVP
   F. Weigend and R. Ahlrichs, Phys. Chem. Chem. Phys. 7, 3297 (2005).

================================================================================
                                        WARNINGS
                       Please study these warnings very carefully!
================================================================================

INFO   : Checking CIS options ...

WARNING: CIS/ROCIS methods need fully converged wavefunctions
  ===> : Setting SCFConvForced true
         You can overwrite this default with %scf ConvForced false 


INFO   : the flag for use of LIBINT has been found!

================================================================================
                                       INPUT FILE
================================================================================
NAME = IPTBO-4Cl.inp
|  1> # ORCA input file
|  2> # IPTBO-4Cl.out: Geometry 40
|  3> ! Engrad Keepdens
|  4> %maxcore 1000
|  5> %tddft
|  6>   nroots 3 
|  7>   # nroots is the number of states to be computed
|  8>   Iroot 1
|  9>   end
| 10> * xyz 0 1
| 11>    C       -0.27832        -2.28777        -1.97872
| 12>    C       -1.26289        -2.12838        -1.01448
| 13>    C       -2.69478        -1.99339        -1.29466
| 14>    C       -3.38463        -1.78691         0.00541
| 15>    C       -2.42347        -1.80785         1.03194
| 16>    C       -1.07398        -2.03619         0.45575
| 17>    C       -4.72509        -1.57264         0.33644
| 18>    C       -5.06853        -1.37479         1.68059
| 19>    C       -4.08878        -1.39174         2.69599
| 20>    C       -2.74878        -1.61572         2.36480
| 21>   Cl       -4.52529        -1.13576         4.35263
| 22>   Cl       -6.73318        -1.10233         2.07810
| 23>    O       -0.04876        -2.12471         1.11408
| 24>    C       -3.34215        -2.02706        -2.52039
| 25>    C       -4.75772        -1.87537        -2.64812
| 26>    C       -2.68032        -2.20713        -3.77564
| 27>    N       -5.90743        -1.75499        -2.77012
| 28>    N       -2.16263        -2.35059        -4.80723
| 29>    C       15.50923         2.58107        -3.91825
| 30>    C       15.70475         3.62628        -3.04988
| 31>    C       14.77444         4.38424        -2.21830
| 32>    C       15.56512         4.96421        -1.11102
| 33>    C       16.93600         4.78885        -1.39278
| 34>    C       17.09501         4.05166        -2.67919
| 35>    C       15.17581         5.58724         0.07467
| 36>    C       16.16693         5.99457         0.97620
| 37>    C       17.53690         5.81022         0.68450
| 38>    C       17.92538         5.21269        -0.52032
| 39>   Cl       18.75068         6.30714         1.81284
| 40>   Cl       15.67165         6.72083         2.46827
| 41>    O       18.13054         3.79377        -3.25447
| 42>    C       13.46031         4.69639        -2.51338
| 43>    C       12.65122         5.50793        -1.66021
| 44>    C       12.82822         4.28984        -3.72878
| 45>    N       11.97887         6.15400        -0.96623
| 46>    N       12.30389         3.99755        -4.72318
| 47>    C        1.12904        -2.35411        -1.91610
| 48>    S        1.95468        -2.47103        -3.50093
| 49>    C        3.49405        -2.38978        -2.73476
| 50>    C        3.36106        -2.28648        -1.31399
| 51>    C        2.04619        -2.28005        -0.85325
| 52>    C        4.86690        -2.30311        -3.01499
| 53>    C        5.52944        -2.10892        -1.76753
| 54>    N        4.61288        -2.14642        -0.74035
| 55>    S        5.97552        -2.25888        -4.36958
| 56>    C        7.28029        -1.92336        -3.25925
| 57>    C        6.91015        -1.85215        -1.92158
| 58>    C        8.65369        -1.50782        -3.44031
| 59>    C        9.11268        -1.04762        -2.17387
| 60>    C        8.05261        -1.28777        -1.07678
| 61>    C        9.46752        -1.45085        -4.58368
| 62>    C       10.72675        -0.88642        -4.44825
| 63>    C       11.13749        -0.33139        -3.20474
| 64>    C       10.34766        -0.43689        -2.04913
| 65>    C       11.79871        -0.66686        -5.53415
| 66>    C       12.76819         0.24310        -4.78079
| 67>    C       12.37237         0.36814        -3.45180
| 68>    C       13.93449         0.96405        -5.07085
| 69>    C       14.39458         1.69726        -3.97138
| 70>    S       13.40098         1.39390        -2.53899
| 71>    C       12.57131        -1.95287        -5.87305
| 72>    C       11.14526         0.00613        -6.74223
| 73>    C        7.54820         0.02685        -0.44979
| 74>    C        8.63979        -2.30100        -0.08882
| 75>    C        4.91211        -2.15519         0.68305
| 76>    C        4.42902        -3.37725         1.48342
| 77>    C        5.12546        -4.69648         1.11076
| 78>    C        4.93076        -5.19539        -0.32315
| 79>    C        4.64156        -3.00558         2.96570
| 80>    C        4.32155        -4.08926         3.99095
| 81>    C        7.25448         1.10699        -1.29658
| 82>    C        6.63922         2.25807        -0.80747
| 83>    C        6.28910         2.37374         0.54618
| 84>    C        6.60138         1.30269         1.39191
| 85>    C        7.22219         0.15036         0.90585
| 86>    C        9.56013        -1.90830         0.89493
| 87>    C       10.16262        -2.85126         1.72783
| 88>    C        9.88067        -4.21969         1.60495
| 89>    C        8.97085        -4.60885         0.61132
| 90>    C        8.36089        -3.66806        -0.21807
| 91>    C       13.61838        -1.88749        -6.80823
| 92>    C       14.45495        -2.97738        -7.02837
| 93>    C       14.26990        -4.18677        -6.33559
| 94>    C       13.19914        -4.26128        -5.43833
| 95>    C       12.36474        -3.16210        -5.20302
| 96>    C       10.64211        -0.75150        -7.80649
| 97>    C        9.91457        -0.14097        -8.83233
| 98>    C        9.66784         1.23799        -8.82138
| 99>    C       10.18309         1.98904        -7.75382
|100>    C       10.91244         1.38944        -6.73007
|101>    C        5.64208         3.62092         1.09772
|102>    C        6.65892         4.56309         1.75600
|103>    C       10.51086        -5.23595         2.52843
|104>    C        9.51204        -5.87595         3.50036
|105>    C       15.21165        -5.34987        -6.54727
|106>    C       15.19618        -5.91813        -7.97186
|107>    C        8.91516         1.92121        -9.93722
|108>    C        9.84915         2.63534       -10.92348
|109>    H       -0.64446        -2.34673        -3.00299
|110>    H       -5.52008        -1.54441        -0.40396
|111>    H       -1.97554        -1.63270         3.13414
|112>    H       16.35624         2.34679        -4.57559
|113>    H       14.13301         5.75469         0.33579
|114>    H       18.97977         5.06374        -0.75833
|115>    H        1.70417        -2.19823         0.17513
|116>    H        9.11319        -1.81307        -5.55020
|117>    H       10.68322        -0.01346        -1.10136
|118>    H       14.41663         1.02496        -6.04608
|119>    H        4.50374        -1.23655         1.13388
|120>    H        6.00099        -2.09399         0.77184
|121>    H        3.34432        -3.50515         1.31881
|122>    H        4.74349        -5.47331         1.79204
|123>    H        6.20358        -4.60585         1.33165
|124>    H        3.86272        -5.25824        -0.58528
|125>    H        5.36278        -6.20214        -0.43821
|126>    H        5.41145        -4.54969        -1.06987
|127>    H        4.02726        -2.11521         3.18204
|128>    H        5.69111        -2.68249         3.09857
|129>    H        3.29814        -4.48003         3.86389
|130>    H        4.40030        -3.68113         5.01119
|131>    H        5.01293        -4.94227         3.92517
|132>    H        7.49153         1.03496        -2.36004
|133>    H        6.40631         3.07741        -1.49331
|134>    H        6.33544         1.36135         2.45121
|135>    H        7.43082        -0.66560         1.59671
|136>    H        9.81080        -0.85324         1.02148
|137>    H       10.86980        -2.51727         2.49154
|138>    H        8.72810        -5.66728         0.47861
|139>    H        7.65985        -4.00272        -0.98308
|140>    H       13.79105        -0.96085        -7.35931
|141>    H       15.27907        -2.88198        -7.74132
|142>    H       13.01666        -5.19191        -4.89339
|143>    H       11.55947        -3.25295        -4.47292
|144>    H       10.81713        -1.82929        -7.83367
|145>    H        9.52337        -0.75071        -9.65207
|146>    H       10.00150         3.06708        -7.71567
|147>    H       11.29256         2.01039        -5.91697
|148>    H        4.87825         3.33251         1.83890
|149>    H        5.11095         4.15190         0.29060
|150>    H        7.20944         4.04571         2.55811
|151>    H        6.16250         5.44227         2.19644
|152>    H        7.40051         4.91727         1.02324
|153>    H       11.31870        -4.74971         3.09863
|154>    H       10.98862        -6.02867         1.92678
|155>    H        9.02303        -5.11329         4.12718
|156>    H       10.01787        -6.59268         4.16703
|157>    H        8.71926        -6.41819         2.96091
|158>    H       14.96360        -6.14817        -5.82943
|159>    H       16.23681        -5.02023        -6.29834
|160>    H       14.19066        -6.27456        -8.24620
|161>    H       15.89472        -6.76394        -8.06973
|162>    H       15.49186        -5.15736        -8.71118
|163>    H        8.21580         2.65487        -9.50092
|164>    H        8.29825         1.18390       -10.47781
|165>    H       10.48524         3.36659       -10.39958
|166>    H        9.27839         3.17233       -11.69785
|167>    H       10.51730         1.91713       -11.42561
|168> *
|169> 
|170>                          ****END OF INPUT****
================================================================================

                     *******************************
                     * Energy+Gradient Calculation *
                     *******************************

---------------------------------
CARTESIAN COORDINATES (ANGSTROEM)
---------------------------------
  C     -0.278320   -2.287770   -1.978720
  C     -1.262890   -2.128380   -1.014480
  C     -2.694780   -1.993390   -1.294660
  C     -3.384630   -1.786910    0.005410
  C     -2.423470   -1.807850    1.031940
  C     -1.073980   -2.036190    0.455750
  C     -4.725090   -1.572640    0.336440
  C     -5.068530   -1.374790    1.680590
  C     -4.088780   -1.391740    2.695990
  C     -2.748780   -1.615720    2.364800
  Cl    -4.525290   -1.135760    4.352630
  Cl    -6.733180   -1.102330    2.078100
  O     -0.048760   -2.124710    1.114080
  C     -3.342150   -2.027060   -2.520390
  C     -4.757720   -1.875370   -2.648120
  C     -2.680320   -2.207130   -3.775640
  N     -5.907430   -1.754990   -2.770120
  N     -2.162630   -2.350590   -4.807230
  C     15.509230    2.581070   -3.918250
  C     15.704750    3.626280   -3.049880
  C     14.774440    4.384240   -2.218300
  C     15.565120    4.964210   -1.111020
  C     16.936000    4.788850   -1.392780
  C     17.095010    4.051660   -2.679190
  C     15.175810    5.587240    0.074670
  C     16.166930    5.994570    0.976200
  C     17.536900    5.810220    0.684500
  C     17.925380    5.212690   -0.520320
  Cl    18.750680    6.307140    1.812840
  Cl    15.671650    6.720830    2.468270
  O     18.130540    3.793770   -3.254470
  C     13.460310    4.696390   -2.513380
  C     12.651220    5.507930   -1.660210
  C     12.828220    4.289840   -3.728780
  N     11.978870    6.154000   -0.966230
  N     12.303890    3.997550   -4.723180
  C      1.129040   -2.354110   -1.916100
  S      1.954680   -2.471030   -3.500930
  C      3.494050   -2.389780   -2.734760
  C      3.361060   -2.286480   -1.313990
  C      2.046190   -2.280050   -0.853250
  C      4.866900   -2.303110   -3.014990
  C      5.529440   -2.108920   -1.767530
  N      4.612880   -2.146420   -0.740350
  S      5.975520   -2.258880   -4.369580
  C      7.280290   -1.923360   -3.259250
  C      6.910150   -1.852150   -1.921580
  C      8.653690   -1.507820   -3.440310
  C      9.112680   -1.047620   -2.173870
  C      8.052610   -1.287770   -1.076780
  C      9.467520   -1.450850   -4.583680
  C     10.726750   -0.886420   -4.448250
  C     11.137490   -0.331390   -3.204740
  C     10.347660   -0.436890   -2.049130
  C     11.798710   -0.666860   -5.534150
  C     12.768190    0.243100   -4.780790
  C     12.372370    0.368140   -3.451800
  C     13.934490    0.964050   -5.070850
  C     14.394580    1.697260   -3.971380
  S     13.400980    1.393900   -2.538990
  C     12.571310   -1.952870   -5.873050
  C     11.145260    0.006130   -6.742230
  C      7.548200    0.026850   -0.449790
  C      8.639790   -2.301000   -0.088820
  C      4.912110   -2.155190    0.683050
  C      4.429020   -3.377250    1.483420
  C      5.125460   -4.696480    1.110760
  C      4.930760   -5.195390   -0.323150
  C      4.641560   -3.005580    2.965700
  C      4.321550   -4.089260    3.990950
  C      7.254480    1.106990   -1.296580
  C      6.639220    2.258070   -0.807470
  C      6.289100    2.373740    0.546180
  C      6.601380    1.302690    1.391910
  C      7.222190    0.150360    0.905850
  C      9.560130   -1.908300    0.894930
  C     10.162620   -2.851260    1.727830
  C      9.880670   -4.219690    1.604950
  C      8.970850   -4.608850    0.611320
  C      8.360890   -3.668060   -0.218070
  C     13.618380   -1.887490   -6.808230
  C     14.454950   -2.977380   -7.028370
  C     14.269900   -4.186770   -6.335590
  C     13.199140   -4.261280   -5.438330
  C     12.364740   -3.162100   -5.203020
  C     10.642110   -0.751500   -7.806490
  C      9.914570   -0.140970   -8.832330
  C      9.667840    1.237990   -8.821380
  C     10.183090    1.989040   -7.753820
  C     10.912440    1.389440   -6.730070
  C      5.642080    3.620920    1.097720
  C      6.658920    4.563090    1.756000
  C     10.510860   -5.235950    2.528430
  C      9.512040   -5.875950    3.500360
  C     15.211650   -5.349870   -6.547270
  C     15.196180   -5.918130   -7.971860
  C      8.915160    1.921210   -9.937220
  C      9.849150    2.635340  -10.923480
  H     -0.644460   -2.346730   -3.002990
  H     -5.520080   -1.544410   -0.403960
  H     -1.975540   -1.632700    3.134140
  H     16.356240    2.346790   -4.575590
  H     14.133010    5.754690    0.335790
  H     18.979770    5.063740   -0.758330
  H      1.704170   -2.198230    0.175130
  H      9.113190   -1.813070   -5.550200
  H     10.683220   -0.013460   -1.101360
  H     14.416630    1.024960   -6.046080
  H      4.503740   -1.236550    1.133880
  H      6.000990   -2.093990    0.771840
  H      3.344320   -3.505150    1.318810
  H      4.743490   -5.473310    1.792040
  H      6.203580   -4.605850    1.331650
  H      3.862720   -5.258240   -0.585280
  H      5.362780   -6.202140   -0.438210
  H      5.411450   -4.549690   -1.069870
  H      4.027260   -2.115210    3.182040
  H      5.691110   -2.682490    3.098570
  H      3.298140   -4.480030    3.863890
  H      4.400300   -3.681130    5.011190
  H      5.012930   -4.942270    3.925170
  H      7.491530    1.034960   -2.360040
  H      6.406310    3.077410   -1.493310
  H      6.335440    1.361350    2.451210
  H      7.430820   -0.665600    1.596710
  H      9.810800   -0.853240    1.021480
  H     10.869800   -2.517270    2.491540
  H      8.728100   -5.667280    0.478610
  H      7.659850   -4.002720   -0.983080
  H     13.791050   -0.960850   -7.359310
  H     15.279070   -2.881980   -7.741320
  H     13.016660   -5.191910   -4.893390
  H     11.559470   -3.252950   -4.472920
  H     10.817130   -1.829290   -7.833670
  H      9.523370   -0.750710   -9.652070
  H     10.001500    3.067080   -7.715670
  H     11.292560    2.010390   -5.916970
  H      4.878250    3.332510    1.838900
  H      5.110950    4.151900    0.290600
  H      7.209440    4.045710    2.558110
  H      6.162500    5.442270    2.196440
  H      7.400510    4.917270    1.023240
  H     11.318700   -4.749710    3.098630
  H     10.988620   -6.028670    1.926780
  H      9.023030   -5.113290    4.127180
  H     10.017870   -6.592680    4.167030
  H      8.719260   -6.418190    2.960910
  H     14.963600   -6.148170   -5.829430
  H     16.236810   -5.020230   -6.298340
  H     14.190660   -6.274560   -8.246200
  H     15.894720   -6.763940   -8.069730
  H     15.491860   -5.157360   -8.711180
  H      8.215800    2.654870   -9.500920
  H      8.298250    1.183900  -10.477810
  H     10.485240    3.366590  -10.399580
  H      9.278390    3.172330  -11.697850
  H     10.517300    1.917130  -11.425610

----------------------------
CARTESIAN COORDINATES (A.U.)
----------------------------
  NO LB      ZA    FRAG     MASS         X           Y           Z
   0 C     6.0000    0    12.011   -0.525949   -4.323259   -3.739239
   1 C     6.0000    0    12.011   -2.386516   -4.022055   -1.917089
   2 C     6.0000    0    12.011   -5.092396   -3.766961   -2.446553
   3 C     6.0000    0    12.011   -6.396024   -3.376771    0.010223
   4 C     6.0000    0    12.011   -4.579695   -3.416341    1.950084
   5 C     6.0000    0    12.011   -2.029528   -3.847841    0.861243
   6 C     6.0000    0    12.011   -8.929126   -2.971859    0.635779
   7 C     6.0000    0    12.011   -9.578134   -2.597977    3.175855
   8 C     6.0000    0    12.011   -7.726674   -2.630007    5.094683
   9 C     6.0000    0    12.011   -5.194441   -3.053268    4.468824
  10 Cl   17.0000    0    35.453   -8.551559   -2.146275    8.225279
  11 Cl   17.0000    0    35.453  -12.723866   -2.083102    3.927040
  12 O     8.0000    0    15.999   -0.092143   -4.015120    2.105306
  13 C     6.0000    0    12.011   -6.315748   -3.830588   -4.762847
  14 C     6.0000    0    12.011   -8.990788   -3.543936   -5.004222
  15 C     6.0000    0    12.011   -5.065071   -4.170871   -7.134926
  16 N     7.0000    0    14.007  -11.163425   -3.316450   -5.234768
  17 N     7.0000    0    14.007   -4.086778   -4.441971   -9.084348
  18 C     6.0000    0    12.011   29.308197    4.877515   -7.404419
  19 C     6.0000    0    12.011   29.677677    6.852676   -5.763438
  20 C     6.0000    0    12.011   27.919645    8.285013   -4.191979
  21 C     6.0000    0    12.011   29.413814    9.380997   -2.099524
  22 C     6.0000    0    12.011   32.004402    9.049615   -2.631973
  23 C     6.0000    0    12.011   32.304887    7.656528   -5.062935
  24 C     6.0000    0    12.011   28.678125   10.558353    0.141106
  25 C     6.0000    0    12.011   30.551070   11.328096    1.844751
  26 C     6.0000    0    12.011   33.139938   10.979725    1.293518
  27 C     6.0000    0    12.011   33.874059    9.850557   -0.983262
  28 Cl   17.0000    0    35.453   35.433650   11.918767    3.425771
  29 Cl   17.0000    0    35.453   29.615127   12.700528    4.664354
  30 O     8.0000    0    15.999   34.261755    7.169186   -6.150057
  31 C     6.0000    0    12.011   25.436300    8.874891   -4.749600
  32 C     6.0000    0    12.011   23.907341   10.408479   -3.137342
  33 C     6.0000    0    12.011   24.241823    8.106623   -7.046373
  34 N     7.0000    0    14.007   22.636784   11.629375   -1.825910
  35 N     7.0000    0    14.007   23.250982    7.554275   -8.925517
  36 C     6.0000    0    12.011    2.133576   -4.448623   -3.620904
  37 S    16.0000    0    32.060    3.693810   -4.669570   -6.615799
  38 C     6.0000    0    12.011    6.602798   -4.516030   -5.167947
  39 C     6.0000    0    12.011    6.351483   -4.320821   -2.483081
  40 C     6.0000    0    12.011    3.866739   -4.308670   -1.612409
  41 C     6.0000    0    12.011    9.197108   -4.352247   -5.697505
  42 C     6.0000    0    12.011   10.449127   -3.985281   -3.340148
  43 N     7.0000    0    14.007    8.717080   -4.056146   -1.399059
  44 S    16.0000    0    32.060   11.292096   -4.268665   -8.257310
  45 C     6.0000    0    12.011   13.757754   -3.634624   -6.159090
  46 C     6.0000    0    12.011   13.058291   -3.500056   -3.631260
  47 C     6.0000    0    12.011   16.353104   -2.849367   -6.501244
  48 C     6.0000    0    12.011   17.220470   -1.979715   -4.108019
  49 C     6.0000    0    12.011   15.217228   -2.433533   -2.034819
  50 C     6.0000    0    12.011   17.891020   -2.741709   -8.661900
  51 C     6.0000    0    12.011   20.270620   -1.675091   -8.405974
  52 C     6.0000    0    12.011   21.046806   -0.626236   -6.056081
  53 C     6.0000    0    12.011   19.554244   -0.825602   -3.872295
  54 C     6.0000    0    12.011   22.296331   -1.260183  -10.458028
  55 C     6.0000    0    12.011   24.128382    0.459392   -9.034384
  56 C     6.0000    0    12.011   23.380391    0.695684   -6.522957
  57 C     6.0000    0    12.011   26.332370    1.821790   -9.582518
  58 C     6.0000    0    12.011   27.201814    3.207357   -7.504821
  59 S    16.0000    0    32.060   25.324182    2.634089   -4.797996
  60 C     6.0000    0    12.011   23.756333   -3.690389  -11.098456
  61 C     6.0000    0    12.011   21.061489    0.011584  -12.740968
  62 C     6.0000    0    12.011   14.264031    0.050739   -0.849980
  63 C     6.0000    0    12.011   16.326837   -4.348260   -0.167845
  64 C     6.0000    0    12.011    9.282543   -4.072719    1.290777
  65 C     6.0000    0    12.011    8.369635   -6.382078    2.803258
  66 C     6.0000    0    12.011    9.685716   -8.875061    2.099032
  67 C     6.0000    0    12.011    9.317786   -9.817864   -0.610665
  68 C     6.0000    0    12.011    8.771277   -5.679723    5.604361
  69 C     6.0000    0    12.011    8.166546   -7.727581    7.541803
  70 C     6.0000    0    12.011   13.708980    2.091908   -2.450181
  71 C     6.0000    0    12.011   12.546308    4.267134   -1.525897
  72 C     6.0000    0    12.011   11.884677    4.485719    1.032131
  73 C     6.0000    0    12.011   12.474800    2.461727    2.630329
  74 C     6.0000    0    12.011   13.647961    0.284139    1.711808
  75 C     6.0000    0    12.011   18.066028   -3.606164    1.691173
  76 C     6.0000    0    12.011   19.204569   -5.388101    3.265126
  77 C     6.0000    0    12.011   18.671760   -7.974058    3.032916
  78 C     6.0000    0    12.011   16.952450   -8.709464    1.155227
  79 C     6.0000    0    12.011   15.799792   -6.931629   -0.412093
  80 C     6.0000    0    12.011   25.735009   -3.566839  -12.865690
  81 C     6.0000    0    12.011   27.315897   -5.626433  -13.281694
  82 C     6.0000    0    12.011   26.966203   -7.911849  -11.972530
  83 C     6.0000    0    12.011   24.942760   -8.052652  -10.276954
  84 C     6.0000    0    12.011   23.365972   -5.975503   -9.832283
  85 C     6.0000    0    12.011   20.110673   -1.420129  -14.752128
  86 C     6.0000    0    12.011   18.735822   -0.266395  -16.690685
  87 C     6.0000    0    12.011   18.269570    2.339462  -16.669992
  88 C     6.0000    0    12.011   19.243251    3.758741  -14.652596
  89 C     6.0000    0    12.011   20.621523    2.625661  -12.717989
  90 C     6.0000    0    12.011   10.661986    6.842547    2.074390
  91 C     6.0000    0    12.011   12.583535    8.622990    3.318359
  92 C     6.0000    0    12.011   19.862647   -9.894512    4.778040
  93 C     6.0000    0    12.011   17.975151  -11.103936    6.614722
  94 C     6.0000    0    12.011   28.745853  -10.109789  -12.372547
  95 C     6.0000    0    12.011   28.716618  -11.183645  -15.064632
  96 C     6.0000    0    12.011   16.847211    3.630561  -18.778624
  97 C     6.0000    0    12.011   18.612196    4.980071  -20.642386
  98 H     1.0000    0     1.008   -1.217853   -4.434677   -5.674829
  99 H     1.0000    0     1.008  -10.431439   -2.918512   -0.763374
 100 H     1.0000    0     1.008   -3.733230   -3.085356    5.922666
 101 H     1.0000    0     1.008   30.908814    4.434790   -8.646612
 102 H     1.0000    0     1.008   26.707518   10.874788    0.634551
 103 H     1.0000    0     1.008   35.866567    9.569082   -1.433036
 104 H     1.0000    0     1.008    3.220415   -4.154053    0.330948
 105 H     1.0000    0     1.008   17.221433   -3.426206  -10.488358
 106 H     1.0000    0     1.008   20.188360   -0.025436   -2.081269
 107 H     1.0000    0     1.008   27.243482    1.936894  -11.425435
 108 H     1.0000    0     1.008    8.510835   -2.336741    2.142723
 109 H     1.0000    0     1.008   11.340228   -3.957068    1.458566
 110 H     1.0000    0     1.008    6.319849   -6.623774    2.492190
 111 H     1.0000    0     1.008    8.963897  -10.343057    3.386465
 112 H     1.0000    0     1.008   11.723067   -8.703795    2.516454
 113 H     1.0000    0     1.008    7.299483   -9.936634   -1.106019
 114 H     1.0000    0     1.008   10.134186  -11.720346   -0.828097
 115 H     1.0000    0     1.008   10.226158   -8.597668   -2.021761
 116 H     1.0000    0     1.008    7.610418   -3.997168    6.013184
 117 H     1.0000    0     1.008   10.754639   -5.069171    5.855449
 118 H     1.0000    0     1.008    6.232581   -8.466030    7.301694
 119 H     1.0000    0     1.008    8.315362   -6.956328    9.469777
 120 H     1.0000    0     1.008    9.473065   -9.339537    7.417496
 121 H     1.0000    0     1.008   14.156940    1.955791   -4.459829
 122 H     1.0000    0     1.008   12.106171    5.815462   -2.821947
 123 H     1.0000    0     1.008   11.972247    2.572579    4.632116
 124 H     1.0000    0     1.008   14.042215   -1.257802    3.017345
 125 H     1.0000    0     1.008   18.539725   -1.612390    1.930317
 126 H     1.0000    0     1.008   20.540945   -4.756951    4.708328
 127 H     1.0000    0     1.008   16.493719  -10.709607    0.904442
 128 H     1.0000    0     1.008   14.475019   -7.564045   -1.857752
 129 H     1.0000    0     1.008   26.061308   -1.815743  -13.907080
 130 H     1.0000    0     1.008   28.873258   -5.446153  -14.628975
 131 H     1.0000    0     1.008   24.597923   -9.811288   -9.247167
 132 H     1.0000    0     1.008   21.844233   -6.147185   -8.452594
 133 H     1.0000    0     1.008   20.441413   -3.456857  -14.803491
 134 H     1.0000    0     1.008   17.996561   -1.418636  -18.239769
 135 H     1.0000    0     1.008   18.900096    5.795941  -14.580503
 136 H     1.0000    0     1.008   21.339846    3.799087  -11.181453
 137 H     1.0000    0     1.008    9.218557    6.297531    3.475017
 138 H     1.0000    0     1.008    9.658296    7.845954    0.549154
 139 H     1.0000    0     1.008   13.623867    7.645284    4.834127
 140 H     1.0000    0     1.008   11.645437   10.284400    4.150670
 141 H     1.0000    0     1.008   13.984937    9.292294    1.933643
 142 H     1.0000    0     1.008   21.389243   -8.975651    5.855562
 143 H     1.0000    0     1.008   20.765482  -11.392535    3.641087
 144 H     1.0000    0     1.008   17.051056   -9.662718    7.799240
 145 H     1.0000    0     1.008   18.931031  -12.458360    7.874545
 146 H     1.0000    0     1.008   16.477013  -12.128621    5.595309
 147 H     1.0000    0     1.008   28.277106  -11.618358  -11.016026
 148 H     1.0000    0     1.008   30.683124   -9.486860  -11.902138
 149 H     1.0000    0     1.008   26.816461  -11.857200  -15.583060
 150 H     1.0000    0     1.008   30.036668  -12.781994  -15.249580
 151 H     1.0000    0     1.008   29.275373   -9.745998  -16.461745
 152 H     1.0000    0     1.008   15.525612    5.016977  -17.954137
 153 H     1.0000    0     1.008   15.681420    2.237247  -19.800191
 154 H     1.0000    0     1.008   19.814232    6.361933  -19.652358
 155 H     1.0000    0     1.008   17.533616    5.994835  -22.105733
 156 H     1.0000    0     1.008   19.874817    3.622851  -21.591274

--------------------------------
INTERNAL COORDINATES (ANGSTROEM)
--------------------------------
 C      0   0   0     0.000000000000     0.00000000     0.00000000
 C      1   0   0     1.387278643460     0.00000000     0.00000000
 C      2   1   0     1.465275436428   124.83556540     0.00000000
 C      3   2   1     1.486172607001   107.40555858   182.36209924
 C      4   3   2     1.406424854054   108.61432738   359.44865854
 C      5   4   3     1.485010886088   109.88480334   359.62246535
 C      4   3   2     1.397256420776   132.36596179   178.38518829
 C      7   4   3     1.401368930225   118.94724863   181.64671201
 C      8   7   4     1.411111095910   121.22097696   359.85661560
 C      5   4   3     1.385372264989   122.66179613   178.68387539
 Cl     9   8   7     1.732201729043   120.76020585   179.60731742
 Cl     8   7   4     1.733005560926   118.52975924   179.70672965
 O      6   5   4     1.221601501186   124.38131389   181.29791995
 C      3   2   1     1.386591366878   128.53805228     1.65016655
 C     14   3   2     1.429392610132   122.60061288   180.25338966
 C     14   3   2     1.430418371072   124.24794210   359.92129392
 N     15  14   3     1.162414912370   179.09165721   183.72317468
 N     16  14   3     1.163082815538   178.84835376   183.99474657
 C      1   2   3    16.634726164533   136.13552350   145.07656402
 C     19   1   2     1.372865059429   106.51409731   341.75719980
 C     20  19   1     1.459967586661   131.66576149   351.40859344
 C     21  20  19     1.479056814899   106.81885959   156.51548489
 C     22  21  20     1.410479280812   108.74003424    10.73618479
 C     23  22  21     1.491168657228   109.72072843   358.40462266
 C     22  21  20     1.394843874095   131.47736204   191.69517697
 C     25  22  21     1.400354570886   118.66161470   177.34381082
 C     26  25  22     1.412760281647   121.02715567     1.46014308
 C     23  22  21     1.385532237662   122.01970544   181.14587269
 Cl    27  26  25     1.730127894232   120.54202875   180.47420592
 Cl    26  25  22     1.731770409408   118.31029454   181.94241372
 O     24  23  22     1.212343479135   127.27245245   175.77848021
 C     21  20  19     1.382551078912   126.96487149   326.58616427
 C     32  21  20     1.428678707268   122.62158196   183.44467167
 C     32  21  20     1.428991893119   122.52977668     0.10826913
 N     33  32  21     1.162355026573   179.01448002   232.25166165
 N     34  32  21     1.161544985354   178.02065037   232.92628270
 C      1   2   3     1.410313592645   133.06046439   175.65768310
 S     37   1   2     1.790820433461   115.07798828   183.63928886
 C     38  37   1     1.721417447425    90.87759699   176.00324330
 C     39  38  37     1.430714724535   111.23977866     0.39660617
 C     40  39  38     1.393271620826   114.61046253     0.31145036
 C     39  38  37     1.403836765546   142.05255994   186.07714439
 C     42  39  38     1.425771881929   106.74949914   172.74464812
 N     43  42  39     1.377166379200   109.85291069     3.16491612
 S     42  39  38     1.750973633554   140.81928061   357.80767614
 C     45  42  39     1.745803864184    89.19948703   172.72165090
 C     46  45  42     1.389760955201   115.02142960     0.30442745
 C     46  45  42     1.446265458068   133.26062716   190.94426483
 C     48  46  45     1.423490826700   106.72047211   164.40521040
 C     47  46  45     1.528864505442   110.59438976   191.20010100
 C     48  46  45     1.404585279255   131.58884390   347.51338215
 C     51  48  46     1.386572285422   117.59375106   174.38550296
 C     52  51  48     1.422351141104   120.43046037   357.02004419
 C     49  48  46     1.383375148288   120.71708565   187.47715038
 C     52  51  48     1.541584783656   128.36553093   181.67987780
 C     55  52  51     1.528224447390   100.29315454   168.42103709
 C     56  55  52     1.392308476632   110.10070052     6.14174712
 C     56  55  52     1.401484711333   137.07141833   185.62923890
 C     58  56  55     1.399326263993   112.36740016   177.54966837
 S     57  56  55     1.715646876779   113.02316060   180.74518862
 C     55  52  51     1.538046062412   112.67007040   281.55459269
 C     55  52  51     1.529499829683   108.78172804    49.11648755
 C     50  47  46     1.541353837573   107.16222952   117.90547575
 C     50  47  46     1.532148931044   113.48833200   246.34245123
 C     44  43  42     1.454538781126   126.38054269   171.82150260
 C     65  44  43     1.538635346208   116.69515812   240.69043585
 C     66  65  44     1.537618919661   114.40351796    66.49900185
 C     67  66  65     1.530659062692   116.68466501   297.36645649
 C     66  65  44     1.542875833922   105.37705985   190.15985750
 C     69  66  65     1.525747785514   116.46068213   183.72752046
 C     63  50  47     1.403576560826   118.64810063   294.45548393
 C     71  63  50     1.393828764985   121.07779330   171.87503634
 C     72  71  63     1.402972517835   121.11920847   359.78841759
 C     73  72  71     1.399973618966   117.65358511     1.13063863
 C     74  73  72     1.396253490094   121.35080737   359.10955642
 C     64  50  47     1.403211697535   121.22162574   189.20193662
 C     76  64  50     1.394951673607   120.84368097   184.64314216
 C     77  76  64     1.402567631810   121.35860729     0.56505755
 C     78  77  76     1.402326108614   117.59743855     0.09830152
 C     79  78  77     1.394641458512   121.19368144   359.53210261
 C     61  55  52     1.405415156351   118.81403472   182.62507709
 C     81  61  55     1.391463688567   121.11493577   171.93934708
 C     82  81  61     1.405991395066   121.10847032     0.85800179
 C     83  82  81     1.398983282709   117.55318780     1.23964823
 C     61  55  52     1.397801330197   122.92067550   356.46500343
 C     62  55  52     1.399933029470   121.05680259   267.00273523
 C     86  62  55     1.398001801894   120.56656843   172.75948309
 C     87  86  62     1.400901951244   121.05073809   359.84388872
 C     88  87  86     1.403297195394   117.91106022     0.50054818
 C     89  88  87     1.392672124012   121.40536867   359.70271651
 C     73  72  71     1.509400279714   121.84718058   179.02281199
 C     91  73  72     1.534594556520   112.33386672   262.78898009
 C     78  77  76     1.510873632737   121.25593630   181.38600023
 C     93  78  77     1.533587075226   113.35430920   110.65844381
 C     83  82  81     1.511457275248   120.72415740   182.06013498
 C     95  83  82     1.533823789293   114.13507465   296.21479967
 C     88  87  86     1.509442167292   121.84250426   178.40240729
 C     97  88  87     1.534609971491   112.47244950   259.41620490
 H      1   2   3     1.089340999917   114.91135926   357.77343359
 H      7   4   3     1.086737407564   122.98195737     1.18332666
 H     10   5   4     1.090904420011   120.65721841   180.36590357
 H     19   1   2     1.097455663843   137.71799955   167.51668921
 H     25  22  21     1.087959097071   122.70330476   358.40935771
 H     28  23  22     1.091133875700   120.72503103   179.82721784
 H     41  40  39     1.086847559320   127.60605906   180.81476104
 H     51  48  46     1.091290056630   121.28975739   355.97330959
 H     54  49  48     1.090945210082   121.61977820   175.45007573
 H     58  56  55     1.089606608185   125.60772409     1.54697786
 H     65  44  43     1.101777289383   108.61136571   116.45186927
 H     65  44  43     1.094206908450   106.48660600     1.76278149
 H     66  65  44     1.104549207641   108.83099505   305.59449877
 H     67  66  65     1.101593558532   107.34286124   176.36602961
 H     67  66  65     1.104241333858   108.86387426    62.24855912
 H     68  67  66     1.101531525196   111.39880278   306.63324313
 H     68  67  66     1.101556011513   110.23401872   187.18841852
 H     68  67  66     1.097990038434   112.93746493    67.38208014
 H     69  66  65     1.103143790492   107.82614043    60.97389972
 H     69  66  65     1.106163092631   108.44937310   307.06880200
 H     70  69  66     1.102820685606   111.64713364   305.92824090
 H     70  69  66     1.101662977957   110.13173385   186.31222091
 H     70  69  66     1.099981532981   112.25798853    66.79560400
 H     71  63  50     1.091937816453   119.43134645   353.26926407
 H     72  71  63     1.093591152717   119.51658960   181.05639061
 H     74  73  72     1.093746574486   119.32814451   180.36079536
 H     75  74  73     1.089313884103   118.85366783   181.06374677
 H     76  64  50     1.091788420437   120.15178586     4.95628447
 H     77  76  64     1.093117485269   119.34270036   180.50904435
 H     79  78  77     1.093989749266   119.89469556   179.63969118
 H     80  79  78     1.090272762798   119.43523981   179.83753756
 H     81  61  55     1.091863446087   119.54744886   353.04935817
 H     82  81  61     1.093879626330   119.19306709   181.85950623
 H     84  83  82     1.093769057388   119.50848758   179.09379081
 H     85  61  55     1.090760975375   120.13280570     6.35701228
 H     86  62  55     1.092246326110   119.69307570   352.94373062
 H     87  86  62     1.093980792884   119.50709887   180.42743317
 H     89  88  87     1.093892404307   119.53977462   180.34543657
 H     90  89  88     1.091421883096   119.01822706   180.18244055
 H     91  73  72     1.102707753396   109.05170508   141.40829868
 H     91  73  72     1.102488789830   109.69126831    25.10768207
 H     92  91  73     1.101877845725   110.79567794   303.00765914
 H     92  91  73     1.101534240230   111.27989075   182.84404165
 H     92  91  73     1.101061496057   110.99588369    62.23768212
 H     93  78  77     1.101890576782   108.98191769   348.45706085
 H     93  78  77     1.103921346157   109.29334826   232.61157125
 H     94  93  78     1.101673439863   111.14859847   301.39489253
 H     94  93  78     1.101823384531   110.85047977   181.20747811
 H     94  93  78     1.101603671245   111.33247284    61.15225928
 H     95  83  82     1.101864763980   109.02696612   173.38697620
 H     95  83  82     1.105251871792   108.47382494    58.20908192
 H     96  95  83     1.101533136542   111.12497141   300.51611933
 H     96  95  83     1.101331568875   111.14123678   180.26273710
 H     96  95  83     1.101268231495   111.40023366    60.41581889
 H     97  88  87     1.103503101582   108.94594924   138.07963753
 H     97  88  87     1.102924082745   109.79531424    21.82235018
 H     98  97  88     1.101729667659   110.77170193   303.31615020
 H     98  97  88     1.101714180085   111.29917317   183.08153675
 H     98  97  88     1.101991181226   111.01216705    62.55699518

---------------------------
INTERNAL COORDINATES (A.U.)
---------------------------
 C      0   0   0     0.000000000000     0.00000000     0.00000000
 C      1   0   0     2.621576707577     0.00000000     0.00000000
 C      2   1   0     2.768969285611   124.83556540     0.00000000
 C      3   2   1     2.808459214968   107.40555858   182.36209924
 C      4   3   2     2.657757802102   108.61432738   359.44865854
 C      5   4   3     2.806263880598   109.88480334   359.62246535
 C      4   3   2     2.640431974130   132.36596179   178.38518829
 C      7   4   3     2.648203490711   118.94724863   181.64671201
 C      8   7   4     2.666613515807   121.22097696   359.85661560
 C      5   4   3     2.617974174359   122.66179613   178.68387539
 Cl     9   8   7     3.273386876596   120.76020585   179.60731742
 Cl     8   7   4     3.274905898712   118.52975924   179.70672965
 O      6   5   4     2.308492282029   124.38131389   181.29791995
 C      3   2   1     2.620277943059   128.53805228     1.65016655
 C     14   3   2     2.701160571000   122.60061288   180.25338966
 C     14   3   2     2.703098978256   124.24794210   359.92129392
 N     15  14   3     2.196645838365   179.09165721   183.72317468
 N     16  14   3     2.197907992437   178.84835376   183.99474657
 C      1   2   3    31.435076763742   136.13552350   145.07656402
 C     19   1   2     2.594338981150   106.51409731   341.75719980
 C     20  19   1     2.758938903191   131.66576149   351.40859344
 C     21  20  19     2.795012316669   106.81885959   156.51548489
 C     22  21  20     2.665419558305   108.74003424    10.73618479
 C     23  22  21     2.817900381649   109.72072843   358.40462266
 C     22  21  20     2.635872921617   131.47736204   191.69517697
 C     25  22  21     2.646286629358   118.66161470   177.34381082
 C     26  25  22     2.669730025195   121.02715567     1.46014308
 C     23  22  21     2.618276478900   122.01970544   181.14587269
 Cl    27  26  25     3.269467896757   120.54202875   180.47420592
 Cl    26  25  22     3.272571800609   118.31029454   181.94241372
 O     24  23  22     2.290997155810   127.27245245   175.77848021
 C     21  20  19     2.612642905301   126.96487149   326.58616427
 C     32  21  20     2.699811490101   122.62158196   183.44467167
 C     32  21  20     2.700403325589   122.52977668     0.10826913
 N     33  32  21     2.196532670610   179.01448002   232.25166165
 N     34  32  21     2.195001914548   178.02065037   232.92628270
 C      1   2   3     2.665106453046   133.06046439   175.65768310
 S     37   1   2     3.384160174271   115.07798828   183.63928886
 C     38  37   1     3.253007537787    90.87759699   176.00324330
 C     39  38  37     2.703659005139   111.23977866     0.39660617
 C     40  39  38     2.632901793526   114.61046253     0.31145036
 C     39  38  37     2.652867023613   142.05255994   186.07714439
 C     42  39  38     2.694318386292   106.74949914   172.74464812
 N     43  42  39     2.602467297533   109.85291069     3.16491612
 S     42  39  38     3.308860635133   140.81928061   357.80767614
 C     45  42  39     3.299091186849    89.19948703   172.72165090
 C     46  45  42     2.626267596946   115.02142960     0.30442745
 C     46  45  42     2.733045632698   133.26062716   190.94426483
 C     48  46  45     2.690007816613   106.72047211   164.40521040
 C     47  46  45     2.889135211158   110.59438976   191.20010100
 C     48  46  45     2.654281509529   131.58884390   347.51338215
 C     51  48  46     2.620241884333   117.59375106   174.38550296
 C     52  51  48     2.687854122957   120.43046037   357.02004419
 C     49  48  46     2.614200170736   120.71708565   187.47715038
 C     52  51  48     2.913173053330   128.36553093   181.67987780
 C     55  52  51     2.887925676730   100.29315454   168.42103709
 C     56  55  52     2.631081714771   110.10070052     6.14174712
 C     56  55  52     2.648422285297   137.07141833   185.62923890
 C     58  56  55     2.644343410950   112.36740016   177.54966837
 S     57  56  55     3.242102739629   113.02316060   180.74518862
 C     55  52  51     2.906485839314   112.67007040   281.55459269
 C     55  52  51     2.890335799980   108.78172804    49.11648755
 C     50  47  46     2.912736628481   107.16222952   117.90547575
 C     50  47  46     2.895341876054   113.48833200   246.34245123
 C     44  43  42     2.748679947496   126.38054269   171.82150260
 C     65  44  43     2.907599424304   116.69515812   240.69043585
 C     66  65  44     2.905678656495   114.40351796    66.49900185
 C     67  66  65     2.892526432892   116.68466501   297.36645649
 C     66  65  44     2.915612784758   105.37705985   190.15985750
 C     69  66  65     2.883245464058   116.46068213   183.72752046
 C     63  50  47     2.652375307952   118.64810063   294.45548393
 C     71  63  50     2.633954643404   121.07779330   171.87503634
 C     72  71  63     2.651233832126   121.11920847   359.78841759
 C     73  72  71     2.645566734560   117.65358511     1.13063863
 C     74  73  72     2.638536709810   121.35080737   359.10955642
 C     64  50  47     2.651685816257   121.22162574   189.20193662
 C     76  64  50     2.636076633173   120.84368097   184.64314216
 C     77  76  64     2.650468708423   121.35860729     0.56505755
 C     78  77  76     2.650012295728   117.59743855     0.09830152
 C     79  78  77     2.635490411600   121.19368144   359.53210261
 C     61  55  52     2.655849749965   118.81403472   182.62507709
 C     81  61  55     2.629485296687   121.11493577   171.93934708
 C     82  81  61     2.656938683325   121.10847032     0.85800179
 C     83  82  81     2.643695270255   117.55318780     1.23964823
 C     61  55  52     2.641461703703   122.92067550   356.46500343
 C     62  55  52     2.645490031528   121.05680259   267.00273523
 C     86  62  55     2.641840540309   120.56656843   172.75948309
 C     87  86  62     2.647321028328   121.05073809   359.84388872
 C     88  87  86     2.651847383794   117.91106022     0.50054818
 C     89  88  87     2.631768908729   121.40536867   359.70271651
 C     73  72  71     2.852353155123   121.84718058   179.02281199
 C     91  73  72     2.899963438429   112.33386672   262.78898009
 C     78  77  76     2.855137388836   121.25593630   181.38600023
 C     93  78  77     2.898059574698   113.35430920   110.65844381
 C     83  82  81     2.856240313341   120.72415740   182.06013498
 C     95  83  82     2.898506899456   114.13507465   296.21479967
 C     88  87  86     2.852432311175   121.84250426   178.40240729
 C     97  88  87     2.899992568503   112.47244950   259.41620490
 H      1   2   3     2.058556156295   114.91135926   357.77343359
 H      7   4   3     2.053636079784   122.98195737     1.18332666
 H     10   5   4     2.061510592105   120.65721841   180.36590357
 H     19   1   2     2.073890648783   137.71799955   167.51668921
 H     25  22  21     2.055944738373   122.70330476   358.40935771
 H     28  23  22     2.061944200517   120.72503103   179.82721784
 H     41  40  39     2.053844236436   127.60605906   180.81476104
 H     51  48  46     2.062239339703   121.28975739   355.97330959
 H     54  49  48     2.061587674167   121.61977820   175.45007573
 H     58  56  55     2.059058083180   125.60772409     1.54697786
 H     65  44  43     2.082057337508   108.61136571   116.45186927
 H     65  44  43     2.067751390815   106.48660600     1.76278149
 H     66  65  44     2.087295503881   108.83099505   305.59449877
 H     67  66  65     2.081710136518   107.34286124   176.36602961
 H     67  66  65     2.086713706747   108.86387426    62.24855912
 H     68  67  66     2.081592910500   111.39880278   306.63324313
 H     68  67  66     2.081639182934   110.23401872   187.18841852
 H     68  67  66     2.074900470414   112.93746493    67.38208014
 H     69  66  65     2.084639650365   107.82614043    60.97389972
 H     69  66  65     2.090345304525   108.44937310   307.06880200
 H     70  69  66     2.084029070618   111.64713364   305.92824090
 H     70  69  66     2.081841320218   110.13173385   186.31222091
 H     70  69  66     2.078663849706   112.25798853    66.79560400
 H     71  63  50     2.063463428368   119.43134645   353.26926407
 H     72  71  63     2.066587781114   119.51658960   181.05639061
 H     74  73  72     2.066881485693   119.32814451   180.36079536
 H     75  74  73     2.058504914833   118.85366783   181.06374677
 H     76  64  50     2.063181110812   120.15178586     4.95628447
 H     77  76  64     2.065692679358   119.34270036   180.50904435
 H     79  78  77     2.067341019431   119.89469556   179.63969118
 H     80  79  78     2.060316932963   119.43523981   179.83753756
 H     81  61  55     2.063322888743   119.54744886   353.04935817
 H     82  81  61     2.067132917240   119.19306709   181.85950623
 H     84  83  82     2.066923972221   119.50848758   179.09379081
 H     85  61  55     2.061239521027   120.13280570     6.35701228
 H     86  62  55     2.064046427129   119.69307570   352.94373062
 H     87  86  62     2.067324094322   119.50709887   180.42743317
 H     89  88  87     2.067157064116   119.53977462   180.34543657
 H     90  89  88     2.062488455619   119.01822706   180.18244055
 H     91  73  72     2.083815659670   109.05170508   141.40829868
 H     91  73  72     2.083401878496   109.69126831    25.10768207
 H     92  91  73     2.082247361456   110.79567794   303.00765914
 H     92  91  73     2.081598041173   111.27989075   182.84404165
 H     92  91  73     2.080704684154   110.99588369    62.23768212
 H     93  78  77     2.082271419666   108.98191769   348.45706085
 H     93  78  77     2.086109017625   109.29334826   232.61157125
 H     94  93  78     2.081861090356   111.14859847   301.39489253
 H     94  93  78     2.082144444714   110.85047977   181.20747811
 H     94  93  78     2.081729246775   111.33247284    61.15225928
 H     95  83  82     2.082222640539   109.02696612   173.38697620
 H     95  83  82     2.088623346691   108.47382494    58.20908192
 H     96  95  83     2.081595955504   111.12497141   300.51611933
 H     96  95  83     2.081215047815   111.14123678   180.26273710
 H     96  95  83     2.081095357513   111.40023366    60.41581889
 H     97  88  87     2.085318649922   108.94594924   138.07963753
 H     97  88  87     2.084224462895   109.79531424    21.82235018
 H     98  97  88     2.081967345492   110.77170193   303.31615020
 H     98  97  88     2.081938078218   111.29917317   183.08153675
 H     98  97  88     2.082461534514   111.01216705    62.55699518

---------------------
BASIS SET INFORMATION
---------------------
There are 6 groups of distinct atoms

 Group   1 Type C   : 7s4p1d contracted to 3s2p1d pattern {511/31/1}
 Group   2 Type Cl  : 10s7p1d contracted to 4s3p1d pattern {5311/511/1}
 Group   3 Type O   : 7s4p1d contracted to 3s2p1d pattern {511/31/1}
 Group   4 Type N   : 7s4p1d contracted to 3s2p1d pattern {511/31/1}
 Group   5 Type S   : 10s7p1d contracted to 4s3p1d pattern {5311/511/1}
 Group   6 Type H   : 4s1p contracted to 2s1p pattern {31/1}

Atom   0C    basis set group =>   1
Atom   1C    basis set group =>   1
Atom   2C    basis set group =>   1
Atom   3C    basis set group =>   1
Atom   4C    basis set group =>   1
Atom   5C    basis set group =>   1
Atom   6C    basis set group =>   1
Atom   7C    basis set group =>   1
Atom   8C    basis set group =>   1
Atom   9C    basis set group =>   1
Atom  10Cl   basis set group =>   2
Atom  11Cl   basis set group =>   2
Atom  12O    basis set group =>   3
Atom  13C    basis set group =>   1
Atom  14C    basis set group =>   1
Atom  15C    basis set group =>   1
Atom  16N    basis set group =>   4
Atom  17N    basis set group =>   4
Atom  18C    basis set group =>   1
Atom  19C    basis set group =>   1
Atom  20C    basis set group =>   1
Atom  21C    basis set group =>   1
Atom  22C    basis set group =>   1
Atom  23C    basis set group =>   1
Atom  24C    basis set group =>   1
Atom  25C    basis set group =>   1
Atom  26C    basis set group =>   1
Atom  27C    basis set group =>   1
Atom  28Cl   basis set group =>   2
Atom  29Cl   basis set group =>   2
Atom  30O    basis set group =>   3
Atom  31C    basis set group =>   1
Atom  32C    basis set group =>   1
Atom  33C    basis set group =>   1
Atom  34N    basis set group =>   4
Atom  35N    basis set group =>   4
Atom  36C    basis set group =>   1
Atom  37S    basis set group =>   5
Atom  38C    basis set group =>   1
Atom  39C    basis set group =>   1
Atom  40C    basis set group =>   1
Atom  41C    basis set group =>   1
Atom  42C    basis set group =>   1
Atom  43N    basis set group =>   4
Atom  44S    basis set group =>   5
Atom  45C    basis set group =>   1
Atom  46C    basis set group =>   1
Atom  47C    basis set group =>   1
Atom  48C    basis set group =>   1
Atom  49C    basis set group =>   1
Atom  50C    basis set group =>   1
Atom  51C    basis set group =>   1
Atom  52C    basis set group =>   1
Atom  53C    basis set group =>   1
Atom  54C    basis set group =>   1
Atom  55C    basis set group =>   1
Atom  56C    basis set group =>   1
Atom  57C    basis set group =>   1
Atom  58C    basis set group =>   1
Atom  59S    basis set group =>   5
Atom  60C    basis set group =>   1
Atom  61C    basis set group =>   1
Atom  62C    basis set group =>   1
Atom  63C    basis set group =>   1
Atom  64C    basis set group =>   1
Atom  65C    basis set group =>   1
Atom  66C    basis set group =>   1
Atom  67C    basis set group =>   1
Atom  68C    basis set group =>   1
Atom  69C    basis set group =>   1
Atom  70C    basis set group =>   1
Atom  71C    basis set group =>   1
Atom  72C    basis set group =>   1
Atom  73C    basis set group =>   1
Atom  74C    basis set group =>   1
Atom  75C    basis set group =>   1
Atom  76C    basis set group =>   1
Atom  77C    basis set group =>   1
Atom  78C    basis set group =>   1
Atom  79C    basis set group =>   1
Atom  80C    basis set group =>   1
Atom  81C    basis set group =>   1
Atom  82C    basis set group =>   1
Atom  83C    basis set group =>   1
Atom  84C    basis set group =>   1
Atom  85C    basis set group =>   1
Atom  86C    basis set group =>   1
Atom  87C    basis set group =>   1
Atom  88C    basis set group =>   1
Atom  89C    basis set group =>   1
Atom  90C    basis set group =>   1
Atom  91C    basis set group =>   1
Atom  92C    basis set group =>   1
Atom  93C    basis set group =>   1
Atom  94C    basis set group =>   1
Atom  95C    basis set group =>   1
Atom  96C    basis set group =>   1
Atom  97C    basis set group =>   1
Atom  98H    basis set group =>   6
Atom  99H    basis set group =>   6
Atom 100H    basis set group =>   6
Atom 101H    basis set group =>   6
Atom 102H    basis set group =>   6
Atom 103H    basis set group =>   6
Atom 104H    basis set group =>   6
Atom 105H    basis set group =>   6
Atom 106H    basis set group =>   6
Atom 107H    basis set group =>   6
Atom 108H    basis set group =>   6
Atom 109H    basis set group =>   6
Atom 110H    basis set group =>   6
Atom 111H    basis set group =>   6
Atom 112H    basis set group =>   6
Atom 113H    basis set group =>   6
Atom 114H    basis set group =>   6
Atom 115H    basis set group =>   6
Atom 116H    basis set group =>   6
Atom 117H    basis set group =>   6
Atom 118H    basis set group =>   6
Atom 119H    basis set group =>   6
Atom 120H    basis set group =>   6
Atom 121H    basis set group =>   6
Atom 122H    basis set group =>   6
Atom 123H    basis set group =>   6
Atom 124H    basis set group =>   6
Atom 125H    basis set group =>   6
Atom 126H    basis set group =>   6
Atom 127H    basis set group =>   6
Atom 128H    basis set group =>   6
Atom 129H    basis set group =>   6
Atom 130H    basis set group =>   6
Atom 131H    basis set group =>   6
Atom 132H    basis set group =>   6
Atom 133H    basis set group =>   6
Atom 134H    basis set group =>   6
Atom 135H    basis set group =>   6
Atom 136H    basis set group =>   6
Atom 137H    basis set group =>   6
Atom 138H    basis set group =>   6
Atom 139H    basis set group =>   6
Atom 140H    basis set group =>   6
Atom 141H    basis set group =>   6
Atom 142H    basis set group =>   6
Atom 143H    basis set group =>   6
Atom 144H    basis set group =>   6
Atom 145H    basis set group =>   6
Atom 146H    basis set group =>   6
Atom 147H    basis set group =>   6
Atom 148H    basis set group =>   6
Atom 149H    basis set group =>   6
Atom 150H    basis set group =>   6
Atom 151H    basis set group =>   6
Atom 152H    basis set group =>   6
Atom 153H    basis set group =>   6
Atom 154H    basis set group =>   6
Atom 155H    basis set group =>   6
Atom 156H    basis set group =>   6
------------------------------------------------------------------------------
                           ORCA GTO INTEGRAL CALCULATION
------------------------------------------------------------------------------

                         BASIS SET STATISTICS AND STARTUP INFO

 # of primitive gaussian shells          ... 1513
 # of primitive gaussian functions       ... 2849
 # of contracted shells                  ...  779
 # of contracted basis functions         ... 1695
 Highest angular momentum                ...    2
 Maximum contraction depth               ...    5
 Integral package used                   ... LIBINT
 Integral threshhold            Thresh   ...  2.500e-11
 Primitive cut-off              TCut     ...  2.500e-12


------------------------------ INTEGRAL EVALUATION ----------------------------


 * One electron integrals 
 Pre-screening matrix                    ... done
 Shell pair data                         ... done (   0.033 sec)

-------------------------------------------------------------------------------
                                 ORCA SCF
-------------------------------------------------------------------------------

------------
SCF SETTINGS
------------
Hamiltonian:
 Ab initio Hamiltonian  Method          .... Hartree-Fock(GTOs)


General Settings:
 Integral files         IntName         .... IPTBO-4Cl
 Hartree-Fock type      HFTyp           .... RHF
 Total Charge           Charge          ....    0
 Multiplicity           Mult            ....    1
 Number of Electrons    NEL             ....  730
 Basis Dimension        Dim             .... 1695
 Nuclear Repulsion      ENuc            ....  18872.5049504851 Eh

Convergence Acceleration:
 DIIS                   CNVDIIS         .... on
   Start iteration      DIISMaxIt       ....    12
   Startup error        DIISStart       ....  0.200000
   # of expansion vecs  DIISMaxEq       ....     5
   Bias factor          DIISBfac        ....   1.050
   Max. coefficient     DIISMaxC        ....  10.000
 Newton-Raphson         CNVNR           .... off
 SOSCF                  CNVSOSCF        .... on
   Start iteration      SOSCFMaxIt      ....   150
   Startup grad/error   SOSCFStart      ....  0.003300
 Level Shifting         CNVShift        .... on
   Level shift para.    LevelShift      ....    0.2500
   Turn off err/grad.   ShiftErr        ....    0.0010
 Zerner damping         CNVZerner       .... off
 Static damping         CNVDamp         .... on
   Fraction old density DampFac         ....    0.7000
   Max. Damping (<1)    DampMax         ....    0.9800
   Min. Damping (>=0)   DampMin         ....    0.0000
   Turn off err/grad.   DampErr         ....    0.1000
 Fernandez-Rico         CNVRico         .... off

SCF Procedure:
 Maximum # iterations   MaxIter         ....   125
 SCF integral mode      SCFMode         .... Direct
   Integral package                     .... LIBINT
 Reset frequency        DirectResetFreq ....    20
 Integral Threshold     Thresh          ....  2.500e-11 Eh
 Primitive CutOff       TCut            ....  2.500e-12 Eh

Convergence Tolerance:
 Convergence Check Mode ConvCheckMode   .... Total+1el-Energy
 Convergence forced     ConvForced      .... 1
 Energy Change          TolE            ....  1.000e-08 Eh
 1-El. energy change                    ....  1.000e-05 Eh
 Orbital Gradient       TolG            ....  1.000e-05
 Orbital Rotation angle TolX            ....  1.000e-05
 DIIS Error             TolErr          ....  5.000e-07


Diagonalization of the overlap matrix:
Smallest eigenvalue                        ... 1.603e-04
Time for diagonalization                   ...    0.986 sec
Threshold for overlap eigenvalues          ... 1.000e-08
Number of eigenvalues below threshold      ... 0
Time for construction of square roots      ...    0.395 sec
Total time needed                          ...    1.389 sec

-------------------
DFT GRID GENERATION
-------------------

General Integration Accuracy     IntAcc      ...  4.340
Radial Grid Type                 RadialGrid  ... Gauss-Chebyshev
Angular Grid (max. acc.)         AngularGrid ... Lebedev-110
Angular grid pruning method      GridPruning ... 3 (G Style)
Weight generation scheme         WeightScheme... Becke
Basis function cutoff            BFCut       ...    1.0000e-11
Integration weight cutoff        WCut        ...    1.0000e-14
Grids for H and He will be reduced by one unit

# of grid points (after initial pruning)     ... 210686 (   0.5 sec)
# of grid points (after weights+screening)   ... 180891 (  17.3 sec)
nearest neighbour list constructed           ...    0.0 sec
Grid point re-assignment to atoms done       ...    0.0 sec
Grid point division into batches done        ...    0.2 sec
Reduced shell lists constructed in    4.2 sec

Total number of grid points                  ...   180891
Total number of batches                      ...     2907
Average number of points per batch           ...       62
Average number of grid points per atom       ...     1152
Average number of shells per batch           ...   132.87 (17.06%)
Average number of basis functions per batch  ...   265.02 (15.64%)
Average number of large shells per batch     ...    73.59 (55.39%)
Average number of large basis fcns per batch ...   150.50 (56.79%)
Maximum spatial batch extension              ...  20.10, 33.84, 20.99 au
Average spatial batch extension              ...   2.99,  3.34,  3.10 au

Time for grid setup =   21.968 sec

------------------------------
INITIAL GUESS: MODEL POTENTIAL
------------------------------
Loading Hartree-Fock densities                     ... done
Calculating cut-offs                               ... done
Setting up the integral package                    ... done
Initializing the effective Hamiltonian             ... done
Starting the Coulomb interaction                   ... done (  22.6 sec)
Reading the grid                                   ... done
Mapping shells                                     ... done
Starting the XC term evaluation                    ... done (   3.8 sec)
Transforming the Hamiltonian                       ... done (   0.4 sec)
Diagonalizing the Hamiltonian                      ... done (   0.9 sec)
Back transforming the eigenvectors                 ... done (   0.2 sec)
Now organizing SCF variables                       ... done
                      ------------------
                      INITIAL GUESS DONE (  50.3 sec)
                      ------------------
--------------
SCF ITERATIONS
--------------
ITER       Energy         Delta-E        Max-DP      RMS-DP      [F,P]     Damp
               ***  Starting incremental Fock matrix formation  ***
  0  -6660.9553415545   0.000000000000 0.30676735  0.00115146  0.2398115 0.7000
  1  -6661.9975618526  -1.042220298110 0.23082232  0.00089483  0.1478439 0.7000
                               ***Turning on DIIS***
  2  -6662.6366332847  -0.639071432033 0.53886964  0.00209543  0.0852625 0.0000
  3  -6658.4558694761   4.180763808527 0.06222148  0.00042426  0.0487588 0.0000
  4  -6664.3377356611  -5.881866184947 0.02931766  0.00017216  0.0186955 0.0000
  5  -6664.2182594871   0.119476174030 0.01110573  0.00008293  0.0115460 0.0000
  6  -6663.9509094356   0.267350051465 0.00633681  0.00004862  0.0031156 0.0000
                      *** Initiating the SOSCF procedure ***
                           *** Shutting down DIIS ***
                      *** Re-Reading the Fockian *** 
                      *** Removing any level shift *** 
ITER      Energy       Delta-E        Grad      Rot      Max-DP    RMS-DP
  7  -6664.04275187  -0.0918424372  0.002776  0.002776  0.004741  0.000029
               *** Restarting incremental Fock matrix formation ***
  8  -6664.01883103   0.0239208399  0.001680  0.007030  0.003748  0.000021
  9  -6664.01911113  -0.0002800954  0.000714  0.006950  0.006005  0.000031
 10  -6664.01924337  -0.0001322418  0.000240  0.000822  0.001181  0.000007
 11  -6664.01925393  -0.0000105596  0.000212  0.000834  0.000481  0.000003
 12  -6664.01925811  -0.0000041830  0.000053  0.000263  0.000226  0.000001
 13  -6664.01925871  -0.0000006014  0.000039  0.000289  0.000171  0.000001
 14  -6664.01925898  -0.0000002706  0.000026  0.000269  0.000092  0.000001
 15  -6664.01925908  -0.0000000993  0.000012  0.000142  0.000044  0.000000
 16  -6664.01925907   0.0000000188  0.000004  0.000068  0.000031  0.000000
                  ***Gradient check signals convergence***
              ***Rediagonalizing the Fockian in SOSCF/NRSCF***

               *****************************************************
               *                     SUCCESS                       *
               *           SCF CONVERGED AFTER  17 CYCLES          *
               *****************************************************


----------------
TOTAL SCF ENERGY
----------------

Total Energy       :        -6664.01925902 Eh         -181337.18304 eV

Components:
Nuclear Repulsion  :        18872.50495049 Eh          513546.96793 eV
Electronic Energy  :       -25536.52420950 Eh         -694884.15097 eV
One Electron Energy:       -46757.93236752 Eh        -1272348.02464 eV
Two Electron Energy:        21221.40815802 Eh          577463.87368 eV

Virial components:
Potential Energy   :       -13308.88267881 Eh         -362153.10920 eV
Kinetic Energy     :         6644.86341979 Eh          180815.92616 eV
Virial Ratio       :            2.00288280


---------------
SCF CONVERGENCE
---------------

  Last Energy change         ...    4.9495e-08  Tolerance :   1.0000e-08
  Last MAX-Density change    ...    1.1202e-05  Tolerance :   1.0000e-07
  Last RMS-Density change    ...    6.9955e-08  Tolerance :   5.0000e-09
  Last Orbital Gradient      ...    1.7484e-06  Tolerance :   1.0000e-05
  Last Orbital Rotation      ...    5.5510e-06  Tolerance :   1.0000e-05

             **** THE GBW FILE WAS UPDATED (IPTBO-4Cl.gbw) ****
             **** DENSITY FILE WAS UPDATED (IPTBO-4Cl.scfp) ****
             **** ENERGY FILE WAS UPDATED (IPTBO-4Cl.en.tmp) ****
             **** THE GBW FILE WAS UPDATED (IPTBO-4Cl.gbw) ****
             **** DENSITY FILE WAS UPDATED (IPTBO-4Cl.scfp) ****
----------------
ORBITAL ENERGIES
----------------

  NO   OCC          E(Eh)            E(eV) 
   0   2.0000    -104.825690     -2852.4520 
   1   2.0000    -104.824710     -2852.4254 
   2   2.0000    -104.819482     -2852.2831 
   3   2.0000    -104.815981     -2852.1879 
   4   2.0000     -91.983662     -2503.0027 
   5   2.0000     -91.976289     -2502.8021 
   6   2.0000     -91.970644     -2502.6484 
   7   2.0000     -20.570897      -559.7626 
   8   2.0000     -20.565039      -559.6032 
   9   2.0000     -15.635844      -425.4729 
  10   2.0000     -15.599505      -424.4841 
  11   2.0000     -15.597782      -424.4372 
  12   2.0000     -15.589995      -424.2253 
  13   2.0000     -15.585678      -424.1079 
  14   2.0000     -11.371917      -309.4456 
  15   2.0000     -11.365325      -309.2662 
  16   2.0000     -11.351701      -308.8955 
  17   2.0000     -11.350985      -308.8760 
  18   2.0000     -11.350663      -308.8672 
  19   2.0000     -11.343396      -308.6695 
  20   2.0000     -11.342455      -308.6439 
  21   2.0000     -11.341624      -308.6213 
  22   2.0000     -11.333180      -308.3915 
  23   2.0000     -11.328038      -308.2516 
  24   2.0000     -11.318214      -307.9843 
  25   2.0000     -11.317084      -307.9535 
  26   2.0000     -11.316754      -307.9445 
  27   2.0000     -11.310872      -307.7845 
  28   2.0000     -11.309931      -307.7589 
  29   2.0000     -11.308705      -307.7255 
  30   2.0000     -11.305028      -307.6255 
  31   2.0000     -11.303745      -307.5905 
  32   2.0000     -11.302685      -307.5617 
  33   2.0000     -11.302113      -307.5461 
  34   2.0000     -11.302063      -307.5448 
  35   2.0000     -11.300978      -307.5152 
  36   2.0000     -11.300730      -307.5085 
  37   2.0000     -11.299136      -307.4651 
  38   2.0000     -11.298853      -307.4574 
  39   2.0000     -11.298125      -307.4376 
  40   2.0000     -11.297161      -307.4114 
  41   2.0000     -11.294860      -307.3488 
  42   2.0000     -11.292503      -307.2846 
  43   2.0000     -11.292343      -307.2803 
  44   2.0000     -11.291803      -307.2656 
  45   2.0000     -11.291298      -307.2518 
  46   2.0000     -11.289991      -307.2163 
  47   2.0000     -11.289750      -307.2097 
  48   2.0000     -11.285646      -307.0980 
  49   2.0000     -11.285187      -307.0855 
  50   2.0000     -11.284229      -307.0595 
  51   2.0000     -11.282210      -307.0045 
  52   2.0000     -11.281729      -306.9915 
  53   2.0000     -11.279586      -306.9331 
  54   2.0000     -11.276389      -306.8461 
  55   2.0000     -11.275437      -306.8202 
  56   2.0000     -11.274413      -306.7924 
  57   2.0000     -11.273480      -306.7670 
  58   2.0000     -11.271337      -306.7087 
  59   2.0000     -11.270257      -306.6793 
  60   2.0000     -11.268727      -306.6377 
  61   2.0000     -11.267913      -306.6155 
  62   2.0000     -11.263150      -306.4859 
  63   2.0000     -11.261390      -306.4380 
  64   2.0000     -11.259338      -306.3822 
  65   2.0000     -11.258385      -306.3562 
  66   2.0000     -11.256238      -306.2978 
  67   2.0000     -11.254746      -306.2572 
  68   2.0000     -11.253460      -306.2222 
  69   2.0000     -11.253171      -306.2144 
  70   2.0000     -11.252832      -306.2051 
  71   2.0000     -11.252830      -306.2051 
  72   2.0000     -11.251958      -306.1813 
  73   2.0000     -11.251269      -306.1626 
  74   2.0000     -11.251187      -306.1604 
  75   2.0000     -11.249332      -306.1099 
  76   2.0000     -11.248956      -306.0996 
  77   2.0000     -11.248117      -306.0768 
  78   2.0000     -11.247661      -306.0644 
  79   2.0000     -11.246946      -306.0449 
  80   2.0000     -11.246618      -306.0360 
  81   2.0000     -11.246460      -306.0317 
  82   2.0000     -11.244599      -305.9811 
  83   2.0000     -11.244235      -305.9712 
  84   2.0000     -11.243876      -305.9614 
  85   2.0000     -11.241804      -305.9050 
  86   2.0000     -11.240906      -305.8806 
  87   2.0000     -11.240862      -305.8794 
  88   2.0000     -11.240807      -305.8779 
  89   2.0000     -11.238346      -305.8109 
  90   2.0000     -11.236856      -305.7704 
  91   2.0000     -11.236682      -305.7657 
  92   2.0000     -11.235152      -305.7240 
  93   2.0000     -11.234501      -305.7063 
  94   2.0000     -11.233473      -305.6783 
  95   2.0000     -11.231370      -305.6211 
  96   2.0000     -11.229011      -305.5569 
  97   2.0000     -11.228510      -305.5433 
  98   2.0000     -10.589063      -288.1431 
  99   2.0000     -10.588060      -288.1158 
 100   2.0000     -10.582813      -287.9730 
 101   2.0000     -10.579321      -287.8780 
 102   2.0000      -9.018590      -245.4083 
 103   2.0000      -9.010403      -245.1855 
 104   2.0000      -9.005279      -245.0461 
 105   2.0000      -8.064150      -219.4367 
 106   2.0000      -8.063142      -219.4092 
 107   2.0000      -8.060381      -219.3341 
 108   2.0000      -8.060373      -219.3339 
 109   2.0000      -8.059372      -219.3067 
 110   2.0000      -8.059357      -219.3062 
 111   2.0000      -8.057901      -219.2666 
 112   2.0000      -8.054403      -219.1715 
 113   2.0000      -8.054150      -219.1646 
 114   2.0000      -8.054143      -219.1644 
 115   2.0000      -8.050647      -219.0692 
 116   2.0000      -8.050627      -219.0687 
 117   2.0000      -6.706113      -182.4826 
 118   2.0000      -6.705094      -182.4549 
 119   2.0000      -6.703230      -182.4042 
 120   2.0000      -6.697988      -182.2615 
 121   2.0000      -6.697139      -182.2384 
 122   2.0000      -6.694916      -182.1779 
 123   2.0000      -6.692801      -182.1204 
 124   2.0000      -6.691743      -182.0916 
 125   2.0000      -6.689692      -182.0358 
 126   2.0000      -1.399781       -38.0900 
 127   2.0000      -1.392616       -37.8950 
 128   2.0000      -1.330555       -36.2062 
 129   2.0000      -1.253112       -34.0989 
 130   2.0000      -1.242680       -33.8150 
 131   2.0000      -1.239647       -33.7325 
 132   2.0000      -1.237009       -33.6607 
 133   2.0000      -1.229789       -33.4643 
 134   2.0000      -1.224410       -33.3179 
 135   2.0000      -1.221412       -33.2363 
 136   2.0000      -1.214180       -33.0395 
 137   2.0000      -1.206105       -32.8198 
 138   2.0000      -1.196291       -32.5527 
 139   2.0000      -1.183542       -32.2058 
 140   2.0000      -1.176023       -32.0012 
 141   2.0000      -1.171343       -31.8739 
 142   2.0000      -1.161138       -31.5962 
 143   2.0000      -1.159981       -31.5647 
 144   2.0000      -1.158263       -31.5179 
 145   2.0000      -1.151520       -31.3345 
 146   2.0000      -1.149911       -31.2907 
 147   2.0000      -1.139103       -30.9966 
 148   2.0000      -1.130011       -30.7492 
 149   2.0000      -1.124166       -30.5901 
 150   2.0000      -1.109713       -30.1968 
 151   2.0000      -1.104551       -30.0564 
 152   2.0000      -1.096843       -29.8466 
 153   2.0000      -1.089864       -29.6567 
 154   2.0000      -1.082346       -29.4521 
 155   2.0000      -1.067340       -29.0438 
 156   2.0000      -1.065285       -28.9879 
 157   2.0000      -1.059376       -28.8271 
 158   2.0000      -1.054954       -28.7068 
 159   2.0000      -1.050471       -28.5848 
 160   2.0000      -1.049877       -28.5686 
 161   2.0000      -1.040847       -28.3229 
 162   2.0000      -1.039222       -28.2787 
 163   2.0000      -1.033713       -28.1288 
 164   2.0000      -1.023672       -27.8555 
 165   2.0000      -1.019546       -27.7433 
 166   2.0000      -1.015655       -27.6374 
 167   2.0000      -1.014331       -27.6014 
 168   2.0000      -1.012363       -27.5478 
 169   2.0000      -1.011981       -27.5374 
 170   2.0000      -1.005741       -27.3676 
 171   2.0000      -1.001291       -27.2465 
 172   2.0000      -0.999570       -27.1997 
 173   2.0000      -0.994407       -27.0592 
 174   2.0000      -0.984206       -26.7816 
 175   2.0000      -0.977643       -26.6030 
 176   2.0000      -0.971052       -26.4237 
 177   2.0000      -0.957620       -26.0582 
 178   2.0000      -0.946915       -25.7669 
 179   2.0000      -0.934536       -25.4300 
 180   2.0000      -0.928979       -25.2788 
 181   2.0000      -0.921492       -25.0751 
 182   2.0000      -0.918393       -24.9907 
 183   2.0000      -0.910837       -24.7851 
 184   2.0000      -0.887449       -24.1487 
 185   2.0000      -0.883891       -24.0519 
 186   2.0000      -0.869699       -23.6657 
 187   2.0000      -0.866045       -23.5663 
 188   2.0000      -0.864551       -23.5256 
 189   2.0000      -0.859568       -23.3900 
 190   2.0000      -0.851792       -23.1784 
 191   2.0000      -0.847282       -23.0557 
[...]
   364a -> 366a  :     0.074931 (c=  0.27373546)
   364a -> 367a  :     0.015553 (c= -0.12471152)
   364a -> 369a  :     0.015651 (c= -0.12510227)

STATE  2:  E=   0.114360 au      3.112 eV    25099.2 cm**-1
   351a -> 366a  :     0.011546 (c= -0.10745052)
   359a -> 365a  :     0.012645 (c=  0.11244967)
   360a -> 366a  :     0.014588 (c= -0.12078145)
   363a -> 365a  :     0.366527 (c=  0.60541492)
   364a -> 366a  :     0.392787 (c=  0.62672733)
   364a -> 368a  :     0.021056 (c= -0.14510823)
   364a -> 370a  :     0.012417 (c= -0.11143289)

STATE  3:  E=   0.152757 au      4.157 eV    33526.3 cm**-1
   345a -> 366a  :     0.011301 (c=  0.10630791)
   351a -> 365a  :     0.017874 (c=  0.13369518)
   351a -> 366a  :     0.012026 (c= -0.10966292)
   351a -> 368a  :     0.011061 (c= -0.10516988)
   353a -> 365a  :     0.023411 (c= -0.15300536)
   354a -> 365a  :     0.017000 (c= -0.13038238)
   356a -> 365a  :     0.018442 (c= -0.13580198)
   358a -> 365a  :     0.013337 (c= -0.11548639)
   360a -> 365a  :     0.037783 (c=  0.19437884)
   363a -> 366a  :     0.145510 (c= -0.38145741)
   363a -> 368a  :     0.035976 (c= -0.18967472)
   363a -> 369a  :     0.012461 (c=  0.11162844)
   364a -> 367a  :     0.192193 (c=  0.43839777)
   364a -> 368a  :     0.110670 (c=  0.33267083)
   364a -> 369a  :     0.097351 (c=  0.31201144)
   364a -> 372a  :     0.015977 (c= -0.12640205)


----------------------
CIS-EXCITATION SPECTRA
----------------------

Center of mass = ( 14.4404, -0.3439, -3.3244)
Calculating the Dipole integrals                  ... done
Transforming integrals                            ... done
Calculating the Linear Momentum integrals         ... done
Transforming integrals                            ... done
Calculating angular momentum integrals            ... done
Transforming integrals                            ... done

-----------------------------------------------------------------------------
         ABSORPTION SPECTRUM VIA TRANSITION ELECTRIC DIPOLE MOMENTS
-----------------------------------------------------------------------------
State   Energy    Wavelength  fosc         T2        TX        TY        TZ  
        (cm-1)      (nm)                 (au**2)    (au)      (au)      (au) 
-----------------------------------------------------------------------------
   1   21231.4    471.0   2.257906810  35.01080  -5.60250  -1.86080   0.40026
   2   25099.2    398.4   0.704745638   9.24374  -2.40876   1.68028   0.78630
   3   33526.3    298.3   0.205084345   2.01383   0.89377   0.01070  -1.10222

-----------------------------------------------------------------------------
         ABSORPTION SPECTRUM VIA TRANSITION VELOCITY DIPOLE MOMENTS
-----------------------------------------------------------------------------
State   Energy    Wavelength   fosc        P2         PX        PY        PZ  
        (cm-1)      (nm)                 (au**2)     (au)      (au)      (au) 
-----------------------------------------------------------------------------
   1   21231.4    471.0   1.298325465   0.18840   0.41500   0.12625  -0.01527
   2   25099.2    398.4   0.259196867   0.04446   0.19085  -0.07441  -0.05004
   3   33526.3    298.3   0.073697079   0.01689   0.05772  -0.01465   0.11550

-------------------------------------------------------------------
                             CD SPECTRUM
-------------------------------------------------------------------
State  Energy     Wavelength     R         MX        MY        MZ   
       (cm-1)       (nm)     (1e40*cgs)   (au)      (au)      (au)  
-------------------------------------------------------------------
   1   21231.4    471.0    420.00605  -0.71651   1.32739  -1.63236
   2   25099.2    398.4    -833.77877   0.46775  -0.53059   0.31757
   3   33526.3    298.3    380.02951   0.26978  -0.31956  -0.51567

Total run time:    63818.081 sec

           *** ORCA-CIS/TD-DFT FINISHED WITHOUT ERROR ***

-----------------------
CIS/TD-DFT TOTAL ENERGY
-----------------------

    E(SCF)  =  -6664.019259016 Eh
    DE(CIS) =      0.096737584 Eh (Root  1)
    ----------------------------- ---------
    E(tot)  =  -6663.922521432 Eh


-------------------------   --------------------
FINAL SINGLE POINT ENERGY     -6663.922521431534
-------------------------   --------------------

------------------------------------------------------------------------------
                         ORCA SCF GRADIENT CALCULATION
------------------------------------------------------------------------------


------------
CIS GRADIENT
------------

Reference wavefunction             ... RHF
State of interest                  ... 1
Basis dimension                    ... 1695
DFT-XC contribution needed         ... NO
RI-approximation                   ... OFF
CIS-vectors being read from        ... IPTBO-4Cl.cis

 => Number of Vectors found: 3
 => Orbital Window: 126...364 -> 365...1694

Reading the CIS file                     ... done
Norm of the CI vector                    ... 1.000000000
Making the CIS (pseudo)densities         ... done
Making operators G(D) and Q(T)           ... done
Transforming the Fock operators          ... done
Making the frozen-core relaxed density   ... done
Constructing the G(H) operator           ... done
Transforming the G(H) operator           ... done
Calculating the CIS Lagrangian           ... done
Solving the Z-vector equations           ... done
Finalizing the relaxed density           ... done
Storing the relaxed density              ... done
Constructing the G(Z) operator           ... done
Transforming the G(Z) operator           ... done
Making the W-matrix                      ... done
Finalizing the W-matrix                  ... done
Transforming the W-matrix                ... done
Nuclear repulsion gradient               ... done
One-Electron gradient                    ... done
Prescreening matrices                    ... done
Two-Electron gradient (4-center)         ... done
                 ---------------------------
                 EXCITED STATE GRADIENT DONE
                 ---------------------------


------------------
CARTESIAN GRADIENT
------------------

   1   C   :    0.001531861    0.000679367    0.005734082
   2   C   :    0.000612023   -0.000131814   -0.003461517
   3   C   :    0.000821672    0.001474487    0.016322574
   4   C   :    0.000251630   -0.002064335   -0.018092286
   5   C   :    0.011130680   -0.001788402    0.000699872
   6   C   :   -0.034245198    0.003254502   -0.019888601
   7   C   :    0.000117439   -0.000486158   -0.000951547
   8   C   :   -0.011095272    0.001146467   -0.004427652
   9   C   :    0.003813723    0.001052920    0.010855114
  10   C   :   -0.000030551    0.000052050    0.000565241
  11   Cl  :   -0.002746595    0.000846886    0.002895881
  12   Cl  :   -0.003129230    0.000727632    0.002541279
  13   O   :    0.042652900   -0.003839958    0.024733600
  14   C   :   -0.009045530   -0.000595099   -0.016267286
  15   C   :    0.074611160   -0.007498208    0.008545164
  16   C   :   -0.031938094    0.009478647    0.067414067
  17   N   :   -0.070052498    0.007467387   -0.005755696
  18   N   :    0.033233817   -0.008814874   -0.062548953
  19   C   :   -0.002572986    0.004916688    0.005194577
  20   C   :   -0.005296975   -0.000686988   -0.005041277
  21   C   :    0.013156064   -0.002854546    0.012110236
  22   C   :   -0.015896991   -0.004434296   -0.008904088
  23   C   :    0.005550692   -0.005275607   -0.008758434
  24   C   :   -0.030203713    0.012382715    0.020604712
  25   C   :   -0.001285714    0.000868732   -0.000368079
  26   C   :   -0.009747129    0.003763127    0.007541278
  27   C   :    0.011764936    0.000096298    0.002040217
  28   C   :    0.001308194    0.000249759    0.000001040
  29   Cl  :    0.000348351    0.000940351    0.002757668
  30   Cl  :   -0.000233209    0.001185017    0.003142246
  31   O   :    0.041556317   -0.010251052   -0.022607341
  32   C   :   -0.018007933    0.006053659   -0.004549202
  33   C   :    0.044278314   -0.041397187   -0.044924015
  34   C   :    0.033761060    0.015699114    0.064088420
  35   N   :   -0.040155911    0.039103687    0.042652810
  36   N   :   -0.030581868   -0.019717836   -0.060418954
  37   C   :   -0.004698715    0.000052248    0.003847981
  38   S   :   -0.000025151    0.000997737   -0.004089319
  39   C   :   -0.014658152   -0.002721486   -0.010235960
  40   C   :   -0.005567929   -0.001099319    0.009575733
  41   C   :   -0.000080518   -0.001422600   -0.001043608
  42   C   :    0.008881503   -0.001029987   -0.011654328
  43   C   :    0.005928991   -0.001595739    0.002569645
  44   N   :    0.000582096    0.001778562    0.009500890
  45   S   :    0.000000043    0.000966677   -0.003510383
  46   C   :   -0.006268669   -0.004736088   -0.003671021
  47   C   :    0.006101400    0.000009300    0.010816573
  48   C   :    0.010274344    0.002489939   -0.005335386
  49   C   :   -0.009321903   -0.004376321    0.000931250
  50   C   :   -0.001508083   -0.000738739   -0.000787654
  51   C   :   -0.011075827   -0.003939447    0.005052499
  52   C   :    0.011249471    0.003215441   -0.001383877
  53   C   :   -0.009086820   -0.004844072    0.006475341
  54   C   :    0.011190746    0.002751962   -0.004350482
  55   C   :   -0.000560458    0.000824127    0.001549744
  56   C   :   -0.004649451   -0.003898817   -0.007843490
  57   C   :    0.006198166    0.002593084    0.000623000
  58   C   :    0.002132020    0.002270830   -0.001032638
  59   C   :    0.000991296    0.000661680    0.000312016
  60   S   :    0.001117216    0.005042921    0.003943966
  61   C   :   -0.004788196    0.009380514   -0.000550447
  62   C   :    0.005418138   -0.003566700    0.007587993
  63   C   :    0.004396144   -0.007845577   -0.003918400
  64   C   :   -0.005363435    0.008298944   -0.005847810
  65   C   :   -0.003819502   -0.005142176   -0.003732631
  66   C   :    0.006172793   -0.000586812    0.000825381
  67   C   :   -0.003419762    0.003946310   -0.005485822
  68   C   :    0.001038467    0.002558707    0.005331287
  69   C   :   -0.002734215   -0.005628348   -0.001179316
  70   C   :    0.002339801    0.004527168   -0.005046550
  71   C   :    0.001117200   -0.001656789   -0.003347312
  72   C   :    0.000357735    0.001284947   -0.000721172
  73   C   :   -0.005824215    0.009200198    0.002744995
  74   C   :    0.000401244   -0.001084195    0.002720249
  75   C   :   -0.000472938   -0.003146297    0.001887996
  76   C   :   -0.000318819    0.003757718    0.000074123
  77   C   :    0.001464215    0.001125817    0.001304502
  78   C   :    0.005967180   -0.006723523    0.006591623
  79   C   :   -0.002756740   -0.001766972   -0.001273212
  80   C   :   -0.003775773   -0.002439927   -0.001219791
  81   C   :   -0.001981821    0.004174835   -0.000341756
  82   C   :    0.002777320   -0.002389004   -0.001273176
  83   C   :    0.008697078   -0.007007227   -0.003036483
  84   C   :   -0.003425081    0.000274542    0.002835288
  85   C   :   -0.001869859   -0.002887610    0.002196054
  86   C   :   -0.000178442   -0.003227080   -0.000159711
  87   C   :    0.000342060   -0.002306331   -0.001009486
  88   C   :   -0.006210287    0.005522877   -0.007435056
  89   C   :    0.000197702    0.001615273    0.000054240
  90   C   :    0.001889321    0.000826785    0.003156901
  91   C   :    0.006210785   -0.004578983   -0.001314402
  92   C   :   -0.003674535   -0.003033797   -0.002197149
  93   C   :   -0.006912325    0.004266288   -0.001572174
  94   C   :    0.003408883    0.002055773   -0.003841576
  95   C   :   -0.006321614    0.004858667   -0.003248983
  96   C   :    0.000720052    0.001628291    0.005031873
  97   C   :    0.007359176   -0.002151394    0.003607958
  98   C   :   -0.003461795   -0.002266652    0.003213914
  99   H   :   -0.004908420   -0.000421179   -0.010190103
 100   H   :   -0.006488378    0.000187836   -0.007184123
 101   H   :    0.006193663   -0.000114651    0.005664381
 102   H   :    0.007340048   -0.002617145   -0.004154767
 103   H   :   -0.008880466    0.001707664    0.001448475
 104   H   :    0.007926953   -0.001604638   -0.002257449
 105   H   :   -0.005471172    0.000469632    0.009040721
 106   H   :   -0.002159751   -0.002486167   -0.007346558
 107   H   :    0.002294943    0.003286543    0.007185327
 108   H   :    0.003478129    0.000434895   -0.006986081
 109   H   :   -0.002342703    0.007021113    0.003974369
 110   H   :    0.010176074    0.001016942    0.000792127
 111   H   :   -0.007157380   -0.000539101   -0.001816785
 112   H   :   -0.002601984   -0.004642224    0.005832188
 113   H   :    0.008367255    0.000912489    0.001496157
 114   H   :   -0.006597620    0.000604390   -0.001984491
 115   H   :    0.003109881   -0.005797371   -0.001171632
 116   H   :    0.003712168    0.006436349   -0.005675843
 117   H   :   -0.003461451    0.006009637    0.000525700
 118   H   :    0.006481533    0.002882727   -0.000074390
 119   H   :   -0.006213679   -0.003094637   -0.000869682
 120   H   :    0.000891376    0.002835123    0.006530596
 121   H   :    0.004073730   -0.005761518   -0.000977114
 122   H   :    0.002408166   -0.002191428   -0.007701613
 123   H   :   -0.002463748    0.006242370   -0.004497800
 124   H   :   -0.002787951    0.000818611    0.007178565
 125   H   :    0.001914456   -0.007757687    0.004580869
 126   H   :    0.001576006    0.008475981    0.000483498
 127   H   :    0.004958807    0.001741663    0.005656234
 128   H   :   -0.002142858   -0.007782468   -0.000973606
 129   H   :   -0.006928172   -0.001012919   -0.006390704
 130   H   :    0.000939080    0.007157843   -0.003128043
 131   H   :    0.006377456    0.000331825   -0.005150387
 132   H   :   -0.001402967   -0.007067703    0.003716921
 133   H   :   -0.007083729    0.000604458    0.005673545
 134   H   :    0.001966942   -0.008082318    0.000896633
 135   H   :   -0.003378087   -0.004011243   -0.006093073
 136   H   :   -0.002064011    0.007792353   -0.000009082
 137   H   :    0.004012521    0.004415790    0.007177715
 138   H   :   -0.004660743   -0.002170072    0.004940255
 139   H   :   -0.003677042    0.003640604   -0.005633323
 140   H   :    0.003828725   -0.003863342    0.004767401
 141   H   :   -0.002825329    0.005451613    0.003270762
 142   H   :    0.004698784    0.001800257   -0.004555657
 143   H   :    0.005273003    0.003823368    0.003757593
 144   H   :    0.002962516   -0.005402404   -0.004073247
 145   H   :   -0.003523244    0.004653476    0.003758480
 146   H   :    0.003264585   -0.004579989    0.004427512
 147   H   :   -0.005295548   -0.003155623   -0.003640917
 148   H   :   -0.001817405   -0.005173235    0.005007223
 149   H   :    0.007030292    0.003054066    0.001882161
 150   H   :   -0.006221632   -0.002183315   -0.001983383
 151   H   :    0.004161651   -0.005230013   -0.001440188
 152   H   :    0.001914750    0.005022591   -0.004538812
 153   H   :   -0.004496572    0.004994969    0.003488723
 154   H   :   -0.004316995   -0.005184029   -0.003868268
 155   H   :    0.004432979    0.004218000    0.004018757
 156   H   :   -0.003266647    0.003693918   -0.004838311
 157   H   :    0.004522220   -0.004535958   -0.003115060

Difference to translation invariance:
           :   -0.0000000001   -0.0000000001    0.0000000002

Norm of the cartesian gradient     ...    0.2475556163
RMS gradient                       ...    0.0114067607
MAX gradient                       ...    0.0746111602

-------
TIMINGS
-------

Total CIS gradient time            ...    52799.596 sec

Fock matrix formation       ....    3606.570 sec  (  6.8%)
  Coulomb formation         ....    3606.570 sec  (100.0% of F)
Z-vector equation           ....   45145.108 sec  ( 85.5%)
One electron gradient       ....      34.896 sec  (  0.1%)
Prescreening matrices       ....       1.715 sec  (  0.0%)
Two electron gradient       ....    4003.602 sec  (  7.6%)

                            ***************************************
                            *     ORCA property calculations      *
                            ***************************************

                                    ---------------------
                                    Active property flags
                                    ---------------------
   (+) Dipole Moment


------------------------------------------------------------------------------
                       ORCA ELECTRIC PROPERTIES CALCULATION
------------------------------------------------------------------------------

Dipole Moment Calculation                       ... on
Quadrupole Moment Calculation                   ... off
Polarizability Calculation                      ... off
GBWName                                         ... IPTBO-4Cl.gbw
Electron density file                           ... IPTBO-4Cl.scfp
The origin for moment calculation is the CENTER OF MASS  = (14.440405, -0.343908 -3.324389)

-------------
DIPOLE MOMENT
-------------
                                X             Y             Z
Electronic contribution:    -54.93812      86.29974      34.26539
Nuclear contribution   :     59.34443     -88.07954     -32.61021
                        -----------------------------------------
Total Dipole Moment    :      4.40631      -1.77980       1.65518
                        -----------------------------------------
Magnitude (a.u.)       :      5.03218
Magnitude (Debye)      :     12.79079



--------------------
Rotational spectrum 
--------------------
 
Rotational constants in cm-1:     0.000659     0.000205     0.000187 
Rotational constants in MHz :    19.754609     6.136630     5.601198 

 Dipole components along the rotational axes: 
x,y,z [a.u.] :    -3.446832     0.484049    -3.634267 
x,y,z [Debye]:    -8.761151     1.230354    -9.237571 

 

                        *** CIS RELAXED DENSITY ***

------------------------------------------------------------------------------
                       ORCA ELECTRIC PROPERTIES CALCULATION
------------------------------------------------------------------------------

Dipole Moment Calculation                       ... on
Quadrupole Moment Calculation                   ... off
Polarizability Calculation                      ... off
GBWName                                         ... IPTBO-4Cl.gbw
Electron density file                           ... IPTBO-4Cl.cisp
The origin for moment calculation is the CENTER OF MASS  = (14.440405, -0.343908 -3.324389)

-------------
DIPOLE MOMENT
-------------
                                X             Y             Z
Electronic contribution:    -55.11506      85.51589      34.02827
Nuclear contribution   :     59.34443     -88.07954     -32.61021
                        -----------------------------------------
Total Dipole Moment    :      4.22937      -2.56365       1.41806
                        -----------------------------------------
Magnitude (a.u.)       :      5.14498
Magnitude (Debye)      :     13.07749



--------------------
Rotational spectrum 
--------------------
 
Rotational constants in cm-1:     0.000659     0.000205     0.000187 
Rotational constants in MHz :    19.754609     6.136630     5.601198 

 Dipole components along the rotational axes: 
x,y,z [a.u.] :    -3.116451    -0.135438    -4.091476 
x,y,z [Debye]:    -7.921389    -0.344256   -10.399706 

 

Timings for individual modules:

Sum of individual times         ...   131854.121 sec (=2197.569 min)
GTO integral calculation        ...        5.682 sec (=   0.095 min)   0.0 %
SCF iterations                  ...    15230.645 sec (= 253.844 min)  11.6 %
CIS module                      ...    63818.167 sec (=1063.636 min)  48.4 %
SCF Gradient evaluation         ...    52799.627 sec (= 879.994 min)  40.0 %
                             ****ORCA TERMINATED NORMALLY****
TOTAL RUN TIME: 1 days 12 hours 37 minutes 35 seconds 475 msec
