
                                 *****************
                                 * O   R   C   A *
                                 *****************

           --- An Ab Initio, DFT and Semiempirical electronic structure package ---

                  #######################################################
                  #                        -***-                        #
                  #          Department of theory and spectroscopy      #
                  #               Directorship: Frank Neese             #
                  #        Max Planck Institute fuer Kohlenforschung    #
                  #                Kaiser Wilhelm Platz 1               #
                  #                 D-45470 Muelheim/Ruhr               #
                  #                      Germany                        #
                  #                                                     #
                  #                  All rights reserved                #
                  #                        -***-                        #
                  #######################################################


                         Program Version 4.2.0 -  RELEASE  -


 With contributions from (in alphabetic order):
   Daniel Aravena         : Magnetic Suceptibility
   Michael Atanasov       : Ab Initio Ligand Field Theory (pilot matlab implementation)
   Alexander A. Auer      : GIAO ZORA, VPT2
   Ute Becker             : Parallelization
   Giovanni Bistoni       : ED, misc. LED, open-shell LED, HFLED
   Martin Brehm           : Molecular dynamics
   Dmytro Bykov           : SCF Hessian
   Vijay G. Chilkuri      : MRCI spin determinant printing, contributions to CSF-ICE
   Dipayan Datta          : RHF DLPNO-CCSD density
   Achintya Kumar Dutta   : EOM-CC, STEOM-CC
   Dmitry Ganyushin       : Spin-Orbit,Spin-Spin,Magnetic field MRCI
   Miquel Garcia          : C-PCM Hessian, Gaussian charge scheme
   Yang Guo               : DLPNO-NEVPT2, CIM, IAO-localization
   Andreas Hansen         : Spin unrestricted coupled pair/coupled cluster methods
   Benjamin Helmich-Paris : CASSCF linear response (MC-RPA)
   Lee Huntington         : MR-EOM, pCC
   Robert Izsak           : Overlap fitted RIJCOSX, COSX-SCS-MP3, EOM
   Christian Kollmar      : KDIIS, OOCD, Brueckner-CCSD(T), CCSD density
   Simone Kossmann        : Meta GGA functionals, TD-DFT gradient, OOMP2, MP2 Hessian
   Martin Krupicka        : AUTO-CI
   Lucas Lang             : DCDCAS
   Dagmar Lenk            : GEPOL surface, SMD
   Dimitrios Liakos       : Extrapolation schemes; Compound Job, initial MDCI parallelization
   Dimitrios Manganas     : Further ROCIS development; embedding schemes
   Dimitrios Pantazis     : SARC Basis sets
   Taras Petrenko         : DFT Hessian,TD-DFT gradient, ASA, ECA, R-Raman, ABS, FL, XAS/XES, NRVS
   Peter Pinski           : DLPNO-MP2, DLPNO-MP2 Gradient
   Christoph Reimann      : Effective Core Potentials
   Marius Retegan         : Local ZFS, SOC
   Christoph Riplinger    : Optimizer, TS searches, QM/MM, DLPNO-CCSD(T), (RO)-DLPNO pert. Triples
   Tobias Risthaus        : Range-separated hybrids, TD-DFT gradient, RPA, STAB
   Michael Roemelt        : Original ROCIS implementation
   Masaaki Saitow         : Open-shell DLPNO-CCSD energy and density
   Barbara Sandhoefer     : DKH picture change effects
   Avijit Sen             : IP-ROCIS
   Kantharuban Sivalingam : CASSCF convergence, NEVPT2, FIC-MRCI
   Bernardo de Souza      : ESD, SOC TD-DFT
   Georgi Stoychev        : AutoAux, RI-MP2 NMR
   Willem Van den Heuvel  : Paramagnetic NMR
   Boris Wezisla          : Elementary symmetry handling
   Frank Wennmohs         : Technical directorship


 We gratefully acknowledge several colleagues who have allowed us to
 interface, adapt or use parts of their codes:
   Stefan Grimme, W. Hujo, H. Kruse,             : VdW corrections, initial TS optimization,
                  C. Bannwarth                     DFT functionals, gCP, sTDA/sTD-DF
   Ed Valeev, F. Pavosevic, A. Kumar             : LibInt (2-el integral package), F12 methods
   Garnet Chan, S. Sharma, J. Yang, R. Olivares  : DMRG
   Ulf Ekstrom                                   : XCFun DFT Library
   Mihaly Kallay                                 : mrcc  (arbitrary order and MRCC methods)
   Andreas Klamt, Michael Diedenhofen            : otool_cosmo (COSMO solvation model)
   Jiri Pittner, Ondrej Demel                    : Mk-CCSD
   Frank Weinhold                                : gennbo (NPA and NBO analysis)
   Christopher J. Cramer and Donald G. Truhlar   : smd solvation model
   Lars Goerigk                                  : TD-DFT with DH, B97 family of functionals
   V. Asgeirsson, H. Jonsson                     : NEB implementation
   FAccTs GmbH                                   : IRC, NEB, NEB-TS, Multilevel, MM, QM/MM, CI optimization
   S Lehtola, MJT Oliveira, MAL Marques          : LibXC Library


 Your calculation uses the libint2 library for the computation of 2-el integrals
 For citations please refer to: http://libint.valeyev.net

 Your ORCA version has been built with support for libXC version: 4.2.3
 For citations please refer to: https://tddft.org/programs/libxc/

 This ORCA versions uses:
   CBLAS   interface :  Fast vector & matrix operations
   LAPACKE interface :  Fast linear algebra routines
   SCALAPACK package :  Parallel linear algebra routines


----- Orbital basis set information -----
Your calculation utilizes the basis: def2-SVP
   F. Weigend and R. Ahlrichs, Phys. Chem. Chem. Phys. 7, 3297 (2005).

================================================================================
                                        WARNINGS
                       Please study these warnings very carefully!
================================================================================

INFO   : Checking CIS options ...

WARNING: CIS/ROCIS methods need fully converged wavefunctions
  ===> : Setting SCFConvForced true
         You can overwrite this default with %scf ConvForced false 


INFO   : the flag for use of LIBINT has been found!

================================================================================
                                       INPUT FILE
================================================================================
NAME = ITCC.inp
|  1> # ORCA input file
|  2> # ITCC.out: Geometry 31
|  3> ! Engrad Keepdens
|  4> %maxcore 1000
|  5> %tddft
|  6>   nroots 3 
|  7>   # nroots is the number of states to be computed
|  8>   Iroot 1
|  9>   end
| 10> * xyz 0 1
| 11>    C        0.92865        -1.19299         0.56682
| 12>    O        1.15839        -2.34321         0.89326
| 13>    C       -0.37541        -0.50830         0.62713
| 14>    C       -0.28666         0.80272         0.18491
| 15>    C        1.10633         1.07905        -0.20259
| 16>    C        1.53047         2.30805        -0.67516
| 17>    C        0.60328         3.38194        -0.86136
| 18>    N       -0.16264         4.24204        -1.01681
| 19>    C        2.88186         2.61997        -1.01832
| 20>    N        3.97601         2.89168        -1.30206
| 21>    C        1.87396        -0.16016         0.01819
| 22>    C        3.21024        -0.32112        -0.28290
| 23>    C        4.11132        -1.41760        -0.17596
| 24>    C        3.97539        -2.72490         0.31015
| 25>    C        5.15626        -3.46145         0.15748
| 26>    C        6.22373        -2.74662        -0.44676
| 27>    S        5.75392        -1.12856        -0.81258
| 28>    C        7.37203        -3.54308        -0.63497
| 29>    C        8.71725        -3.40855        -1.33712
| 30>    C        9.69995        -2.49671        -0.58999
| 31>    C        9.45620        -2.06912         0.71972
| 32>    C       10.36408        -1.23924         1.38102
| 33>    C       11.54643        -0.81584         0.76063
| 34>    C       12.54142         0.04545         1.50051
| 35>    C       13.51000        -0.78314         2.35621
| 36>    C       11.79075        -1.25414        -0.54964
| 37>    C       10.88462        -2.07861        -1.21483
| 38>    C        8.42356        -2.90796        -2.75944
| 39>    C        8.06691        -3.78882        -3.78700
| 40>    C        7.63042        -3.30300        -5.02213
| 41>    C        7.53935        -1.92689        -5.27204
| 42>    C        6.97450        -1.38607        -6.56346
| 43>    C        5.50604        -0.95961        -6.40622
| 44>    C        7.91531        -1.05111        -4.24421
| 45>    C        8.34398        -1.52972        -3.00816
| 46>    C        9.21418        -4.86927        -1.26475
| 47>    C        8.29861        -5.68037        -0.53650
| 48>    C        7.17203        -4.84134        -0.18947
| 49>    S        5.59741        -5.13011         0.49864
| 50>    C        8.52720        -7.04932        -0.32870
| 51>    C        9.66572        -7.60922        -0.88566
| 52>    C       10.11681        -9.08402        -0.86641
| 53>    C       10.71216        -9.55300         0.47937
| 54>    C       10.74077       -10.91658         0.80702
| 55>    C       11.49038       -11.37645         1.88996
| 56>    C       12.25293       -10.49961         2.67343
| 57>    C       13.12107       -11.02380         3.79484
| 58>    C       12.35241       -11.79950         4.86972
| 59>    C       12.20034        -9.13503         2.35561
| 60>    C       11.44549        -8.66770         1.27884
| 61>    C        9.00230        -9.99467        -1.37826
| 62>    C        8.98924       -10.46449        -2.69669
| 63>    C        7.96249       -11.29604        -3.14716
| 64>    C        6.91399       -11.68285        -2.30208
| 65>    C        5.78843       -12.54637        -2.82057
| 66>    C        4.73345       -11.73330        -3.58304
| 67>    C        6.92562       -11.20208        -0.98449
| 68>    C        7.95228       -10.37481        -0.52917
| 69>    C       11.32519        -9.00278        -1.78253
| 70>    C       11.59274        -7.69600        -2.15730
| 71>    C       10.56550        -6.80696        -1.64971
| 72>    C       10.35587        -5.42857        -1.82194
| 73>    S       13.09873        -7.50857        -3.02186
| 74>    C       13.39747        -9.23660        -2.86857
| 75>    C       12.34757        -9.88094        -2.17583
| 76>    S       12.64217       -11.56693        -1.98182
| 77>    C       14.20701       -11.41408        -2.79065
| 78>    C       14.43802       -10.11016        -3.23664
| 79>    C       15.05177       -12.54732        -2.98713
| 80>    C       15.07250       -13.74339        -2.32146
| 81>    C       14.50151       -14.19097        -1.04818
| 82>    C       14.29240       -13.45821         0.10485
| 83>    C       13.73008       -14.06490         1.27031
| 84>    N       13.24858       -14.54822         2.21155
| 85>    C       14.68759       -12.09337         0.26147
| 86>    N       15.04152       -11.00291         0.44945
| 87>    C       14.41827       -15.65871        -1.12215
| 88>    C       15.09834       -16.09483        -2.25525
| 89>    C       15.62075       -14.95641        -3.04152
| 90>    O       16.27633       -14.96133        -4.06036
| 91>    S       -1.95704        -0.94085         1.12285
| 92>    C       -2.52435         0.65966         0.73606
| 93>    C       -1.53879         1.48649         0.24769
| 94>    S       15.11922       -17.80425        -2.39082
| 95>    C       14.20305       -17.94748        -0.91852
| 96>    C       13.90317       -16.73388        -0.34094
| 97>    H        3.69047         0.56065        -0.70951
| 98>    H        3.03544        -3.07813         0.72764
| 99>    H        8.54161        -2.37815         1.22790
|100>    H       10.13909        -0.89806         2.39535
|101>    H       11.99584         0.75328         2.14687
|102>    H       13.11340         0.65456         0.78080
|103>    H       12.95854        -1.40740         3.07712
|104>    H       14.19927        -0.13475         2.92095
|105>    H       14.11405        -1.45835         1.72851
|106>    H       12.69887        -0.92676        -1.06366
|107>    H       11.08490        -2.37342        -2.24646
|108>    H        8.11414        -4.86637        -3.61618
|109>    H        7.34475        -4.01025        -5.80560
|110>    H        7.06540        -2.14711        -7.35635
|111>    H        7.57278        -0.52050        -6.89362
|112>    H        4.88272        -1.81202        -6.09207
|113>    H        5.09636        -0.55814        -7.34704
|114>    H        5.40343        -0.18061        -5.63393
|115>    H        7.85883         0.02858        -4.40892
|116>    H        8.61259        -0.81941        -2.22532
|117>    H        7.80952        -7.65658         0.22445
|118>    H       10.19008       -11.63428         0.19799
|119>    H       11.50478       -12.44547         2.11228
|120>    H       13.66517       -10.18308         4.25530
|121>    H       13.89412       -11.68057         3.35892
|122>    H       11.59935       -11.16057         5.35890
|123>    H       13.03723       -12.17706         5.64509
|124>    H       11.83248       -12.66925         4.44008
|125>    H       12.78558        -8.42512         2.94650
|126>    H       11.45997        -7.60300         1.03483
|127>    H        9.79473       -10.18719        -3.37877
|128>    H        7.98386       -11.66415        -4.17648
|129>    H        5.31150       -13.07935        -1.98164
|130>    H        6.20390       -13.32127        -3.48687
|131>    H        4.24590       -10.99945        -2.92166
|132>    H        3.95254       -12.38606        -4.00425
|133>    H        5.19566       -11.17442        -4.41216
|134>    H        6.12535       -11.49380        -0.29840
|135>    H        7.95742       -10.04759         0.51211
|136>    H       11.05493        -4.82615        -2.40416
|137>    H       15.34659        -9.82658        -3.76786
|138>    H       15.71545       -12.50874        -3.86036
|139>    H       -3.57201         0.91344         0.89551
|140>    H       -1.71916         2.51580        -0.05239
|141>    H       13.92756       -18.93477        -0.54900
|142>    H       13.34501       -16.63082         0.58710
|143> *
|144> 
|145>                          ****END OF INPUT****
================================================================================

                     *******************************
                     * Energy+Gradient Calculation *
                     *******************************

---------------------------------
CARTESIAN COORDINATES (ANGSTROEM)
---------------------------------
  C      0.928650   -1.192990    0.566820
  O      1.158390   -2.343210    0.893260
  C     -0.375410   -0.508300    0.627130
  C     -0.286660    0.802720    0.184910
  C      1.106330    1.079050   -0.202590
  C      1.530470    2.308050   -0.675160
  C      0.603280    3.381940   -0.861360
  N     -0.162640    4.242040   -1.016810
  C      2.881860    2.619970   -1.018320
  N      3.976010    2.891680   -1.302060
  C      1.873960   -0.160160    0.018190
  C      3.210240   -0.321120   -0.282900
  C      4.111320   -1.417600   -0.175960
  C      3.975390   -2.724900    0.310150
  C      5.156260   -3.461450    0.157480
  C      6.223730   -2.746620   -0.446760
  S      5.753920   -1.128560   -0.812580
  C      7.372030   -3.543080   -0.634970
  C      8.717250   -3.408550   -1.337120
  C      9.699950   -2.496710   -0.589990
  C      9.456200   -2.069120    0.719720
  C     10.364080   -1.239240    1.381020
  C     11.546430   -0.815840    0.760630
  C     12.541420    0.045450    1.500510
  C     13.510000   -0.783140    2.356210
  C     11.790750   -1.254140   -0.549640
  C     10.884620   -2.078610   -1.214830
  C      8.423560   -2.907960   -2.759440
  C      8.066910   -3.788820   -3.787000
  C      7.630420   -3.303000   -5.022130
  C      7.539350   -1.926890   -5.272040
  C      6.974500   -1.386070   -6.563460
  C      5.506040   -0.959610   -6.406220
  C      7.915310   -1.051110   -4.244210
  C      8.343980   -1.529720   -3.008160
  C      9.214180   -4.869270   -1.264750
  C      8.298610   -5.680370   -0.536500
  C      7.172030   -4.841340   -0.189470
  S      5.597410   -5.130110    0.498640
  C      8.527200   -7.049320   -0.328700
  C      9.665720   -7.609220   -0.885660
  C     10.116810   -9.084020   -0.866410
  C     10.712160   -9.553000    0.479370
  C     10.740770  -10.916580    0.807020
  C     11.490380  -11.376450    1.889960
  C     12.252930  -10.499610    2.673430
  C     13.121070  -11.023800    3.794840
  C     12.352410  -11.799500    4.869720
  C     12.200340   -9.135030    2.355610
  C     11.445490   -8.667700    1.278840
  C      9.002300   -9.994670   -1.378260
  C      8.989240  -10.464490   -2.696690
  C      7.962490  -11.296040   -3.147160
  C      6.913990  -11.682850   -2.302080
  C      5.788430  -12.546370   -2.820570
  C      4.733450  -11.733300   -3.583040
  C      6.925620  -11.202080   -0.984490
  C      7.952280  -10.374810   -0.529170
  C     11.325190   -9.002780   -1.782530
  C     11.592740   -7.696000   -2.157300
  C     10.565500   -6.806960   -1.649710
  C     10.355870   -5.428570   -1.821940
  S     13.098730   -7.508570   -3.021860
  C     13.397470   -9.236600   -2.868570
  C     12.347570   -9.880940   -2.175830
  S     12.642170  -11.566930   -1.981820
  C     14.207010  -11.414080   -2.790650
  C     14.438020  -10.110160   -3.236640
  C     15.051770  -12.547320   -2.987130
  C     15.072500  -13.743390   -2.321460
  C     14.501510  -14.190970   -1.048180
  C     14.292400  -13.458210    0.104850
  C     13.730080  -14.064900    1.270310
  N     13.248580  -14.548220    2.211550
  C     14.687590  -12.093370    0.261470
  N     15.041520  -11.002910    0.449450
  C     14.418270  -15.658710   -1.122150
  C     15.098340  -16.094830   -2.255250
  C     15.620750  -14.956410   -3.041520
  O     16.276330  -14.961330   -4.060360
  S     -1.957040   -0.940850    1.122850
  C     -2.524350    0.659660    0.736060
  C     -1.538790    1.486490    0.247690
  S     15.119220  -17.804250   -2.390820
  C     14.203050  -17.947480   -0.918520
  C     13.903170  -16.733880   -0.340940
  H      3.690470    0.560650   -0.709510
  H      3.035440   -3.078130    0.727640
  H      8.541610   -2.378150    1.227900
  H     10.139090   -0.898060    2.395350
  H     11.995840    0.753280    2.146870
  H     13.113400    0.654560    0.780800
  H     12.958540   -1.407400    3.077120
  H     14.199270   -0.134750    2.920950
  H     14.114050   -1.458350    1.728510
  H     12.698870   -0.926760   -1.063660
  H     11.084900   -2.373420   -2.246460
  H      8.114140   -4.866370   -3.616180
  H      7.344750   -4.010250   -5.805600
  H      7.065400   -2.147110   -7.356350
  H      7.572780   -0.520500   -6.893620
  H      4.882720   -1.812020   -6.092070
  H      5.096360   -0.558140   -7.347040
  H      5.403430   -0.180610   -5.633930
  H      7.858830    0.028580   -4.408920
  H      8.612590   -0.819410   -2.225320
  H      7.809520   -7.656580    0.224450
  H     10.190080  -11.634280    0.197990
  H     11.504780  -12.445470    2.112280
  H     13.665170  -10.183080    4.255300
  H     13.894120  -11.680570    3.358920
  H     11.599350  -11.160570    5.358900
  H     13.037230  -12.177060    5.645090
  H     11.832480  -12.669250    4.440080
  H     12.785580   -8.425120    2.946500
  H     11.459970   -7.603000    1.034830
  H      9.794730  -10.187190   -3.378770
  H      7.983860  -11.664150   -4.176480
  H      5.311500  -13.079350   -1.981640
  H      6.203900  -13.321270   -3.486870
  H      4.245900  -10.999450   -2.921660
  H      3.952540  -12.386060   -4.004250
  H      5.195660  -11.174420   -4.412160
  H      6.125350  -11.493800   -0.298400
  H      7.957420  -10.047590    0.512110
  H     11.054930   -4.826150   -2.404160
  H     15.346590   -9.826580   -3.767860
  H     15.715450  -12.508740   -3.860360
  H     -3.572010    0.913440    0.895510
  H     -1.719160    2.515800   -0.052390
  H     13.927560  -18.934770   -0.549000
  H     13.345010  -16.630820    0.587100

----------------------------
CARTESIAN COORDINATES (A.U.)
----------------------------
  NO LB      ZA    FRAG     MASS         X           Y           Z
   0 C     6.0000    0    12.011    1.754894   -2.254424    1.071135
   1 O     8.0000    0    15.999    2.189040   -4.428025    1.688017
   2 C     6.0000    0    12.011   -0.709422   -0.960548    1.185104
   3 C     6.0000    0    12.011   -0.541709    1.516921    0.349429
   4 C     6.0000    0    12.011    2.090661    2.039109   -0.382840
   5 C     6.0000    0    12.011    2.892169    4.361582   -1.275867
   6 C     6.0000    0    12.011    1.140034    6.390940   -1.627735
   7 N     7.0000    0    14.007   -0.307345    8.016294   -1.921492
   8 C     6.0000    0    12.011    5.445926    4.951026   -1.924346
   9 N     7.0000    0    14.007    7.513570    5.464483   -2.460537
  10 C     6.0000    0    12.011    3.541271   -0.302659    0.034374
  11 C     6.0000    0    12.011    6.066474   -0.606829   -0.534604
  12 C     6.0000    0    12.011    7.769269   -2.678876   -0.332516
  13 C     6.0000    0    12.011    7.512398   -5.149315    0.586099
  14 C     6.0000    0    12.011    9.743919   -6.541193    0.297594
  15 C     6.0000    0    12.011   11.761145   -5.190360   -0.844254
  16 S    16.0000    0    32.060   10.873333   -2.132669   -1.535554
  17 C     6.0000    0    12.011   13.931118   -6.695451   -1.199919
  18 C     6.0000    0    12.011   16.473215   -6.441226   -2.526791
  19 C     6.0000    0    12.011   18.330249   -4.718098   -1.114920
  20 C     6.0000    0    12.011   17.869628   -3.910070    1.360074
  21 C     6.0000    0    12.011   19.585273   -2.341824    2.609750
  22 C     6.0000    0    12.011   21.819591   -1.541714    1.437382
  23 C     6.0000    0    12.011   23.699849    0.085888    2.835553
  24 C     6.0000    0    12.011   25.530200   -1.479920    4.452592
  25 C     6.0000    0    12.011   22.281288   -2.369981   -1.038669
  26 C     6.0000    0    12.011   20.568951   -3.928004   -2.295696
  27 C     6.0000    0    12.011   15.918221   -5.495248   -5.214586
  28 C     6.0000    0    12.011   15.244251   -7.159832   -7.156393
  29 C     6.0000    0    12.011   14.419404   -6.241765   -9.490450
  30 C     6.0000    0    12.011   14.247307   -3.641294   -9.962712
  31 C     6.0000    0    12.011   13.179895   -2.619293  -12.403142
  32 C     6.0000    0    12.011   10.404908   -1.813400  -12.106001
  33 C     6.0000    0    12.011   14.957768   -1.986310   -8.020395
  34 C     6.0000    0    12.011   15.767837   -2.890752   -5.684599
  35 C     6.0000    0    12.011   17.412277   -9.201587   -2.390031
  36 C     6.0000    0    12.011   15.682100  -10.734344   -1.013838
  37 C     6.0000    0    12.011   13.553173   -9.148807   -0.358046
  38 S    16.0000    0    32.060   10.577572   -9.694503    0.942293
  39 C     6.0000    0    12.011   16.114073  -13.321284   -0.621153
  40 C     6.0000    0    12.011   18.265564  -14.379342   -1.673655
  41 C     6.0000    0    12.011   19.118000  -17.166310   -1.637278
  42 C     6.0000    0    12.011   20.243049  -18.052554    0.905878
  43 C     6.0000    0    12.011   20.297114  -20.629347    1.525047
  44 C     6.0000    0    12.011   21.713671  -21.498375    3.571507
  45 C     6.0000    0    12.011   23.154682  -19.841387    5.052051
  46 C     6.0000    0    12.011   24.795229  -20.831963    7.171208
  47 C     6.0000    0    12.011   23.342672  -22.297824    9.202437
  48 C     6.0000    0    12.011   23.055301  -17.262705    4.451458
  49 C     6.0000    0    12.011   21.628842  -16.379579    2.416657
  50 C     6.0000    0    12.011   17.011882  -18.887189   -2.604534
  51 C     6.0000    0    12.011   16.987202  -19.775020   -5.096006
  52 C     6.0000    0    12.011   15.046925  -21.346422   -5.947270
  53 C     6.0000    0    12.011   13.065548  -22.077387   -4.350301
  54 C     6.0000    0    12.011   10.938547  -23.709203   -5.330105
  55 C     6.0000    0    12.011    8.944924  -22.172724   -6.770964
  56 C     6.0000    0    12.011   13.087525  -21.168863   -1.860416
  57 C     6.0000    0    12.011   15.027631  -19.605550   -0.999986
  58 C     6.0000    0    12.011   21.401508  -17.012789   -3.368494
  59 C     6.0000    0    12.011   21.907104  -14.543332   -4.076706
  60 C     6.0000    0    12.011   19.965901  -12.863290   -3.117500
  61 C     6.0000    0    12.011   19.569758  -10.258511   -3.442968
  62 S    16.0000    0    32.060   24.753012  -14.189141   -5.710488
  63 C     6.0000    0    12.011   25.317549  -17.454644   -5.420812
  64 C     6.0000    0    12.011   23.333526  -18.672271   -4.111723
  65 S    16.0000    0    32.060   23.890239  -21.858330   -3.745097
  66 C     6.0000    0    12.011   26.847358  -21.569485   -5.273564
  67 C     6.0000    0    12.011   27.283904  -19.105434   -6.116363
  68 C     6.0000    0    12.011   28.443723  -23.710999   -5.644858
  69 C     6.0000    0    12.011   28.482897  -25.971243   -4.386924
  70 C     6.0000    0    12.011   27.403882  -26.817047   -1.980773
  71 C     6.0000    0    12.011   27.008722  -25.432331    0.198138
  72 C     6.0000    0    12.011   25.946091  -26.578809    2.400538
  73 N     7.0000    0    14.007   25.036188  -27.492152    4.179224
  74 C     6.0000    0    12.011   27.755523  -22.853157    0.494107
  75 N     7.0000    0    14.007   28.424353  -20.792487    0.849337
  76 C     6.0000    0    12.011   27.246582  -29.590674   -2.120556
  77 C     6.0000    0    12.011   28.531728  -30.414821   -4.261805
  78 C     6.0000    0    12.011   29.518940  -28.263519   -5.747640
  79 O     8.0000    0    15.999   30.757806  -28.272816   -7.672968
  80 S    16.0000    0    32.060   -3.698270   -1.777949    2.121879
  81 C     6.0000    0    12.011   -4.770330    1.246577    1.390952
  82 C     6.0000    0    12.011   -2.907892    2.809059    0.468066
  83 S    16.0000    0    32.060   28.571185  -33.645157   -4.517995
  84 C     6.0000    0    12.011   26.839875  -33.915822   -1.735751
  85 C     6.0000    0    12.011   26.273184  -31.622450   -0.644283
  86 H     1.0000    0     1.008    6.973978    1.059475   -1.340780
  87 H     1.0000    0     1.008    5.736150   -5.816823    1.375040
  88 H     1.0000    0     1.008   16.141304   -4.494052    2.320395
  89 H     1.0000    0     1.008   19.160103   -1.697087    4.526555
  90 H     1.0000    0     1.008   22.668852    1.423493    4.056996
  91 H     1.0000    0     1.008   24.780735    1.236939    1.475498
  92 H     1.0000    0     1.008   24.488092   -2.659601    5.814914
  93 H     1.0000    0     1.008   26.832732   -0.254641    5.519796
  94 H     1.0000    0     1.008   26.671689   -2.755882    3.266411
  95 H     1.0000    0     1.008   23.997387   -1.751323   -2.010026
  96 H     1.0000    0     1.008   20.947425   -4.485114   -4.245194
  97 H     1.0000    0     1.008   15.333502   -9.196107   -6.833590
  98 H     1.0000    0     1.008   13.879566   -7.578274  -10.970994
  99 H     1.0000    0     1.008   13.351671   -4.057450  -13.901487
 100 H     1.0000    0     1.008   14.310480   -0.983602  -13.027054
 101 H     1.0000    0     1.008    9.227004   -3.424222  -11.512344
 102 H     1.0000    0     1.008    9.630725   -1.054732  -13.883893
 103 H     1.0000    0     1.008   10.211003   -0.341303  -10.646585
 104 H     1.0000    0     1.008   14.851036    0.054008   -8.331651
 105 H     1.0000    0     1.008   16.275436   -1.548460   -4.205245
 106 H     1.0000    0     1.008   14.757854  -14.468839    0.424149
 107 H     1.0000    0     1.008   19.256460  -21.985603    0.374147
 108 H     1.0000    0     1.008   21.740883  -23.518530    3.991631
 109 H     1.0000    0     1.008   25.823429  -19.243232    8.041352
 110 H     1.0000    0     1.008   26.256082  -22.073078    6.347439
 111 H     1.0000    0     1.008   21.919595  -21.090421   10.126853
 112 H     1.0000    0     1.008   24.636794  -23.011309   10.667674
 113 H     1.0000    0     1.008   22.360147  -23.941413    8.390535
 114 H     1.0000    0     1.008   24.161245  -15.921169    5.568078
 115 H     1.0000    0     1.008   21.656205  -14.367588    1.955545
 116 H     1.0000    0     1.008   18.509357  -19.250999   -6.384950
 117 H     1.0000    0     1.008   15.087309  -22.042049   -7.892403
 118 H     1.0000    0     1.008   10.037280  -24.716390   -3.744757
 119 H     1.0000    0     1.008   11.723672  -25.173552   -6.589229
 120 H     1.0000    0     1.008    8.023588  -20.785948   -5.521137
 121 H     1.0000    0     1.008    7.469218  -23.406261   -7.566936
 122 H     1.0000    0     1.008    9.818374  -21.116594   -8.337774
 123 H     1.0000    0     1.008   11.575234  -21.720134   -0.563894
 124 H     1.0000    0     1.008   15.037345  -18.987193    0.967748
 125 H     1.0000    0     1.008   20.890790   -9.120102   -4.543204
 126 H     1.0000    0     1.008   29.000852  -18.569545   -7.120224
 127 H     1.0000    0     1.008   29.697897  -23.638093   -7.295023
 128 H     1.0000    0     1.008   -6.750121    1.726151    1.692269
 129 H     1.0000    0     1.008   -3.248742    4.754173   -0.099003
 130 H     1.0000    0     1.008   26.319274  -35.781530   -1.037460
 131 H     1.0000    0     1.008   25.218414  -31.427695    1.109458

--------------------------------
INTERNAL COORDINATES (ANGSTROEM)
--------------------------------
 C      0   0   0     0.000000000000     0.00000000     0.00000000
 O      1   0   0     1.217517798474     0.00000000     0.00000000
 C      1   2   0     1.474113352426   126.49553574     0.00000000
 C      3   1   2     1.386437352101   111.68675144   179.73778079
 C      4   3   1     1.472051513705   108.78659285   359.91872182
 C      5   4   3     1.383350333249   123.15010646   180.69167116
 C      6   5   4     1.430940763344   120.83235583   357.61963501
 N      7   6   5     1.162140335287   179.10466192   327.52096674
 C      6   5   4     1.428743435365   124.47257505   177.89068056
 N      9   6   5     1.162539863489   179.05100201   180.78398068
 C      5   4   3     1.474327320984   107.18747558     0.56414753
 C     11   5   4     1.379205404608   124.74059279   177.05223632
 C     12  11   5     1.423253217246   133.38641305   181.48581482
 C     13  12  11     1.401361190771   133.10571088   357.91754757
 C     14  13  12     1.400095706836   111.78500708   177.83243121
 C     15  14  13     1.419711276070   114.56291630   359.93818867
 S     16  15  14     1.724141488423   110.97407253     0.67039584
 C     16  15  14     1.410093764861   112.62590381   182.65450195
 C     18  16  15     1.523394168231   136.94833032   171.66319758
 C     19  18  16     1.534716492548   113.17314334    74.59751832
 C     20  19  18     1.399138147111   121.71722553    11.91219198
 C     21  20  19     1.396518742731   120.77172781   180.00470888
 C     22  21  20     1.400750811030   121.24068326   359.63682181
 C     23  22  21     1.509717847348   120.77621059   181.95173156
 C     24  23  22     1.535229980980   112.39880243    84.76742752
 C     23  22  21     1.403070427776   117.78550007   359.95086102
 C     26  23  22     1.394022989014   121.14325448     0.28484189
 C     19  18  16     1.536176534972   106.66081659   310.60777560
 C     28  19  18     1.399640352269   121.55916897   276.48951697
 C     29  28  19     1.397172397881   120.64952865   171.35069407
 C     30  29  28     1.401580352709   121.28686086     0.16681481
 C     31  30  29     1.509737530599   121.90708715   184.57507602
 C     32  31  30     1.537194626845   111.67186914    98.82510155
 C     31  30  29     1.401702906789   117.72759354     0.67447725
 C     34  31  30     1.393070387131   121.23152218   358.95535477
 C     19  18  16     1.544629327768   100.31037270   191.09151873
 C     36  19  18     1.423551789504   110.84708057   356.50822510
 C     18  16  15     1.387064986798   111.61552882     0.44907421
 S     38  18  16     1.742501543586   114.34580206   358.90588318
 C     37  36  19     1.403373909762   121.78839921   180.12388544
 C     40  37  36     1.385611865567   117.93630780   358.40298688
 C     41  40  37     1.542364350794   128.43858881   183.11347369
 C     42  41  40     1.544508877054   114.45333196   283.64164329
 C     43  42  41     1.402684380394   120.43583225   158.19854381
 C     44  43  42     1.395046455356   120.84673351   167.93046439
 C     45  44  43     1.401483545747   121.33786720   359.07603152
 C     46  45  44     1.511953241274   120.67269221   183.48015094
 C     47  46  45     1.532290997167   114.06452229   301.08970437
 C     46  45  44     1.402089097347   117.50247025     2.04162450
 C     49  46  45     1.395574965489   121.40533728   358.37926258
 C     42  41  40     1.527549143268   110.63838046    52.81355491
 C     51  42  41     1.399699632385   121.50239133    98.81632124
 C     52  51  42     1.395927715141   120.71575690   180.00074534
 C     53  52  51     1.401118992984   121.34831738     0.22182424
 C     54  53  52     1.510425100460   120.55991829   177.99246404
 C     55  54  53     1.534739758461   112.32813976   279.00421016
 C     54  53  52     1.402611299648   117.75892181     0.23612647
 C     57  54  53     1.394891648444   121.06577235   359.53565906
 C     42  41  40     1.518571044239   100.02292984   173.59880116
 C     59  42  41     1.385535825520   111.54882451     4.82244048
 C     41  40  37     1.427234233929   120.40163814   359.71890670
 C     36  19  18     1.388068169147   128.81805445   174.91609508
 S     60  59  42     1.746596655957   113.67843943   171.74236202
 C     63  60  59     1.760349707473    89.87861827   359.48697433
 C     59  42  41     1.403962513745   135.64319129   172.86775334
 S     65  59  42     1.722495666235   134.84768199     9.78796561
 C     66  65  59     1.768132720414    90.87251077   183.16445856
 C     67  66  65     1.397311728499   111.90030447   357.35776270
 C     67  66  65     1.427044759494   121.21405314   180.22147100
 C     69  67  66     1.368988578002   129.48129919   338.47654962
 C     70  69  67     1.465469001685   133.11149208   344.23909400
 C     71  70  69     1.382079010260   128.45387924   328.00630001
 C     72  71  70     1.429186324487   120.98344572   180.58227492
 N     73  72  71     1.162485789160   178.66831279   261.11588666
 C     72  71  70     1.429508022398   123.76441638   356.42057209
 N     75  72  71     1.161768452360   176.47453498   231.51505086
 C     71  70  69     1.471958275937   106.43418076   158.73920711
 C     77  71  70     1.391621884457   109.01243394     9.53030188
 C     78  77  71     1.478895810191   111.36324064   357.29138112
 O     79  78  77     1.211546238655   129.42835412   178.40805873
 S      3   1   2     1.713006502556   135.34479590     0.40321643
 C     81   3   1     1.741573828553    90.25417137   179.30330637
 C     82  81   3     1.376038378607   113.43580673     0.00000000
 S     78  77  71     1.714914556385   112.50123788   177.36557698
 C     84  78  77     1.739985514825    90.50137383     0.18528734
 C     85  84  78     1.377080836698   113.39171017   359.50919815
 H     12  11   5     1.090933214225   114.67939985     0.22356995
 H     14  13  12     1.087462797295   121.33438205   358.95925458
 H     21  20  19     1.090972649245   119.70358081   359.35227394
 H     22  21  20     1.093567392253   119.39780203   178.47183939
 H     24  23  22     1.102933404563   109.10628517   323.26167682
 H     24  23  22     1.102795809114   109.70008250   206.90894218
 H     25  24  23     1.101598795978   110.77990942   302.75493317
 H     25  24  23     1.102013608174   111.26536910   182.43626059
 H     25  24  23     1.102176136831   111.03728685    62.06997152
 H     26  23  22     1.093652668446   119.34037033   179.08832390
 H     27  26  23     1.091460247283   119.43856410   177.78044237
 H     29  28  19     1.092027539854   119.67914025   352.38974536
 H     30  29  28     1.093451028762   119.34879069   180.78946503
 H     32  31  30     1.102777966637   109.69239012   336.47507231
 H     32  31  30     1.102794635868   109.52881167   220.09090096
 H     33  32  31     1.101735382476   110.79261775   300.46473120
 H     33  32  31     1.101888440678   111.64873836   179.58506741
 H     33  32  31     1.101726670368   110.90600177    59.29711488
 H     34  31  30     1.093640649665   119.50762457   179.80183453
 H     35  34  31     1.090655809043   119.26820821   181.04491933
 H     40  37  36     1.090781468719   120.72928793   180.55003935
 H     44  43  42     1.090536705939   119.93506078   349.31392021
 H     45  44  43     1.091987775939   119.19876213   180.86638122
 H     47  46  45     1.102215196774   109.19879313   177.67986955
 H     47  46  45     1.104073992901   108.38651924    62.81908629
 H     48  47  46     1.102101620042   111.13992641   298.86910514
 H     48  47  46     1.101239584695   110.82524015   178.60360093
 H     48  47  46     1.100628364617   111.29584402    59.25667919
 H     49  46  45     1.093448241939   119.29470829   180.13354483
 H     50  49  46     1.092399487596   119.44243283   182.50121457
 H     52  51  42     1.091303146014   119.77181693     0.62185976
 H     53  52  51     1.093371534018   119.33915471   181.06282678
 H     55  54  53     1.102421629958   109.72812874   156.72175712
 H     55  54  53     1.103195821647   109.16309797    40.43586496
 H     56  55  54     1.101664345161   111.03003712   297.10997525
 H     56  55  54     1.101514371127   111.30636155   176.63993494
 H     56  55  54     1.101555678529   110.75001791    56.37874469
 H     57  54  53     1.093733111595   119.45751036   180.54090498
 H     58  57  54     1.091495939708   119.51590914   182.43097984
 H     62  36  19     1.091134670148   121.24404480     0.17245379
 H     68  67  66     1.090005389757   122.42083424   180.65051776
 H     69  67  66     1.097492684121   116.07890389   151.39222368
 H     82  81   3     1.089688059263   119.65079839   180.27266438
 H     83  82  81     1.087226020384   123.23016559   179.43126193
 H     85  84  78     1.089578503184   119.64900039   179.46050754
 H     86  85  84     1.087852099690   123.57511938   180.55181303

---------------------------
INTERNAL COORDINATES (A.U.)
---------------------------
 C      0   0   0     0.000000000000     0.00000000     0.00000000
 O      1   0   0     2.300775202290     0.00000000     0.00000000
 C      1   2   0     2.785670526441   126.49553574     0.00000000
 C      3   1   2     2.619986897309   111.68675144   179.73778079
 C      4   3   1     2.781774215926   108.78659285   359.91872182
 C      5   4   3     2.614153277109   123.15010646   180.69167116
 C      6   5   4     2.704086156585   120.83235583   357.61963501
 N      7   6   5     2.196126962875   179.10466192   327.52096674
 C      6   5   4     2.699933808479   124.47257505   177.89068056
 N      9   6   5     2.196881961760   179.05100201   180.78398068
 C      5   4   3     2.786074868418   107.18747558     0.56414753
 C     11   5   4     2.606320497133   124.74059279   177.05223632
 C     12  11   5     2.689558799817   133.38641305   181.48581482
 C     13  12  11     2.648188865264   133.10571088   357.91754757
 C     14  13  12     2.645797447199   111.78500708   177.83243121
 C     15  14  13     2.682865501012   114.56291630   359.93818867
 S     16  15  14     3.258155229250   110.97407253     0.67039584
 C     16  15  14     2.664691038737   112.62590381   182.65450195
 C     18  16  15     2.878797771969   136.94833032   171.66319758
 C     19  18  16     2.900193864129   113.17314334    74.59751832
 C     20  19  18     2.643987921561   121.71722553    11.91219198
 C     21  20  19     2.639037964650   120.77172781   180.00470888
 C     22  21  20     2.647035414714   121.24068326   359.63682181
 C     23  22  21     2.852953270980   120.77621059   181.95173156
 C     24  23  22     2.901164216637   112.39880243    84.76742752
 C     23  22  21     2.651418855101   117.78550007   359.95086102
 C     26  23  22     2.634321673627   121.14325448     0.28484189
 C     19  18  16     2.902952944454   106.66081659   310.60777560
 C     28  19  18     2.644936951774   121.55916897   276.48951697
 C     29  28  19     2.640273193869   120.64952865   171.35069407
 C     30  29  28     2.648603021305   121.28686086     0.16681481
 C     31  30  29     2.852990466935   121.90708715   184.57507602
 C     32  31  30     2.904876859272   111.67186914    98.82510155
 C     31  30  29     2.648834614952   117.72759354     0.67447725
 C     34  31  30     2.632521516952   121.23152218   358.95535477
 C     19  18  16     2.918926407904   100.31037270   191.09151873
 C     36  19  18     2.690123019616   110.84708057   356.50822510
 C     18  16  15     2.621172954999   111.61552882     0.44907421
 S     38  18  16     3.292850705313   114.34580206   358.90588318
 C     37  36  19     2.651992352940   121.78839921   180.12388544
 C     40  37  36     2.618426953833   117.93630780   358.40298688
 C     41  40  37     2.914646221724   128.43858881   183.11347369
 C     42  41  40     2.918698789043   114.45333196   283.64164329
 C     43  42  41     2.650689331273   120.43583225   158.19854381
 C     44  43  42     2.636255744720   120.84673351   167.93046439
 C     45  44  43     2.648420082659   121.33786720   359.07603152
 C     46  45  44     2.857177553303   120.67269221   183.48015094
 C     47  46  45     2.895610342119   114.06452229   301.08970437
 C     46  45  44     2.649564409343   117.50247025     2.04162450
 C     49  46  45     2.637254484131   121.40533728   358.37926258
 C     42  41  40     2.886649536883   110.63838046    52.81355491
 C     51  42  41     2.645048974959   121.50239133    98.81632124
 C     52  51  42     2.637921084368   120.71575690   180.00074534
 C     53  52  51     2.647731177775   121.34831738     0.22182424
 C     54  53  52     2.854289785670   120.55991829   177.99246404
 C     55  54  53     2.900237830331   112.32813976   279.00421016
 C     54  53  52     2.650551228678   117.75892181     0.23612647
 C     57  54  53     2.635963202054   121.06577235   359.53565906
 C     42  41  40     2.869683388514   100.02292984   173.59880116
 C     59  42  41     2.618283258970   111.54882451     4.82244048
 C     41  40  37     2.697081831083   120.40163814   359.71890670
 C     36  19  18     2.623068694902   128.81805445   174.91609508
 S     60  59  42     3.300589346181   113.67843943   171.74236202
 C     63  60  59     3.326578847052    89.87861827   359.48697433
 C     59  42  41     2.653104653269   135.64319129   172.86775334
 S     65  59  42     3.255045076051   134.84768199     9.78796561
 C     66  65  59     3.341286610008    90.87251077   183.16445856
 C     67  66  65     2.640536490579   111.90030447   357.35776270
 C     67  66  65     2.696723776292   121.21405314   180.22147100
 C     69  67  66     2.587013492890   129.48129919   338.47654962
 C     70  69  67     2.769335070936   133.11149208   344.23909400
 C     71  70  69     2.611750824831   128.45387924   328.00630001
 C     72  71  70     2.700770747626   120.98344572   180.58227492
 N     73  72  71     2.196779776089   178.66831279   261.11588666
 C     72  71  70     2.701378668575   123.76441638   356.42057209
 N     75  72  71     2.195424205991   176.47453498   231.51505086
 C     71  70  69     2.781598022080   106.43418076   158.73920711
 C     77  71  70     2.629784243595   109.01243394     9.53030188
 C     78  77  71     2.794708061864   111.36324064   357.29138112
 O     79  78  77     2.289490589641   129.42835412   178.40805873
 S      3   1   2     3.237113155458   135.34479590     0.40321643
 C     81   3   1     3.291097577969    90.25417137   179.30330637
 C     82  81   3     2.600335685333   113.43580673     0.00000000
 S     78  77  71     3.240718854642   112.50123788   177.36557698
 C     84  78  77     3.288096100009    90.50137383     0.18528734
 C     85  84  78     2.602305645630   113.39171017   359.50919815
 H     12  11   5     2.061565005284   114.67939985     0.22356995
 H     14  13  12     2.055006867715   121.33438205   358.95925458
 H     21  20  19     2.061639526671   119.70358081   359.35227394
 H     22  21  20     2.066542880345   119.39780203   178.47183939
 H     24  23  22     2.084242078577   109.10628517   323.26167682
 H     24  23  22     2.083982060862   109.70008250   206.90894218
 H     25  24  23     2.081720033856   110.77990942   302.75493317
 H     25  24  23     2.082503915303   111.26536910   182.43626059
 H     25  24  23     2.082811049954   111.03728685    62.06997152
 H     26  23  22     2.066704028996   119.34037033   179.08832390
 H     27  26  23     2.062560953428   119.43856410   177.78044237
 H     29  28  19     2.063632981024   119.67914025   352.38974536
 H     30  29  28     2.066322985214   119.34879069   180.78946503
 H     32  31  30     2.083948343466   109.69239012   336.47507231
 H     32  31  30     2.083979843749   109.52881167   220.09090096
 H     33  32  31     2.081978144931   110.79261775   300.46473120
 H     33  32  31     2.082267383015   111.64873836   179.58506741
 H     33  32  31     2.081961681432   110.90600177    59.29711488
 H     34  31  30     2.066681316791   119.50762457   179.80183453
 H     35  34  31     2.061040785462   119.26820821   181.04491933
 H     40  37  36     2.061278247835   120.72928793   180.55003935
 H     44  43  42     2.060815713213   119.93506078   349.31392021
 H     45  44  43     2.063557838114   119.19876213   180.86638122
 H     47  46  45     2.082884862549   109.19879313   177.67986955
 H     47  46  45     2.086397478167   108.38651924    62.81908629
 H     48  47  46     2.082670233631   111.13992641   298.86910514
 H     48  47  46     2.081041222907   110.82524015   178.60360093
 H     48  47  46     2.079886184352   111.29584402    59.25667919
 H     49  46  45     2.066317718883   119.29470829   180.13354483
 H     50  49  46     2.064335860392   119.44243283   182.50121457
 H     52  51  42     2.062264075053   119.77181693     0.62185976
 H     53  52  51     2.066172761919   119.33915471   181.06282678
 H     55  54  53     2.083274964732   109.72812874   156.72175712
 H     55  54  53     2.084737975000   109.16309797    40.43586496
 H     56  55  54     2.081843903861   111.03003712   297.10997525
 H     56  55  54     2.081560494009   111.30636155   176.63993494
 H     56  55  54     2.081638553686   110.75001791    56.37874469
 H     57  54  53     2.066856044517   119.45751036   180.54090498
 H     58  57  54     2.062628402336   119.51590914   182.43097984
 H     62  36  19     2.061945701807   121.24404480     0.17245379
 H     68  67  66     2.059811671139   122.42083424   180.65051776
 H     69  67  66     2.073960606972   116.07890389   151.39222368
 H     82  81   3     2.059212003411   119.65079839   180.27266438
 H     83  82  81     2.054559424199   123.23016559   179.43126193
 H     85  84  78     2.059004972425   119.64900039   179.46050754
 H     86  85  84     2.055742542625   123.57511938   180.55181303

---------------------
BASIS SET INFORMATION
---------------------
There are 5 groups of distinct atoms

 Group   1 Type C   : 7s4p1d contracted to 3s2p1d pattern {511/31/1}
 Group   2 Type O   : 7s4p1d contracted to 3s2p1d pattern {511/31/1}
 Group   3 Type N   : 7s4p1d contracted to 3s2p1d pattern {511/31/1}
 Group   4 Type S   : 10s7p1d contracted to 4s3p1d pattern {5311/511/1}
 Group   5 Type H   : 4s1p contracted to 2s1p pattern {31/1}

Atom   0C    basis set group =>   1
Atom   1O    basis set group =>   2
Atom   2C    basis set group =>   1
Atom   3C    basis set group =>   1
Atom   4C    basis set group =>   1
Atom   5C    basis set group =>   1
Atom   6C    basis set group =>   1
Atom   7N    basis set group =>   3
Atom   8C    basis set group =>   1
Atom   9N    basis set group =>   3
Atom  10C    basis set group =>   1
Atom  11C    basis set group =>   1
Atom  12C    basis set group =>   1
Atom  13C    basis set group =>   1
Atom  14C    basis set group =>   1
Atom  15C    basis set group =>   1
Atom  16S    basis set group =>   4
Atom  17C    basis set group =>   1
Atom  18C    basis set group =>   1
Atom  19C    basis set group =>   1
Atom  20C    basis set group =>   1
Atom  21C    basis set group =>   1
Atom  22C    basis set group =>   1
Atom  23C    basis set group =>   1
Atom  24C    basis set group =>   1
Atom  25C    basis set group =>   1
Atom  26C    basis set group =>   1
Atom  27C    basis set group =>   1
Atom  28C    basis set group =>   1
Atom  29C    basis set group =>   1
Atom  30C    basis set group =>   1
Atom  31C    basis set group =>   1
Atom  32C    basis set group =>   1
Atom  33C    basis set group =>   1
Atom  34C    basis set group =>   1
Atom  35C    basis set group =>   1
Atom  36C    basis set group =>   1
Atom  37C    basis set group =>   1
Atom  38S    basis set group =>   4
Atom  39C    basis set group =>   1
Atom  40C    basis set group =>   1
Atom  41C    basis set group =>   1
Atom  42C    basis set group =>   1
Atom  43C    basis set group =>   1
Atom  44C    basis set group =>   1
Atom  45C    basis set group =>   1
Atom  46C    basis set group =>   1
Atom  47C    basis set group =>   1
Atom  48C    basis set group =>   1
Atom  49C    basis set group =>   1
Atom  50C    basis set group =>   1
Atom  51C    basis set group =>   1
Atom  52C    basis set group =>   1
Atom  53C    basis set group =>   1
Atom  54C    basis set group =>   1
Atom  55C    basis set group =>   1
Atom  56C    basis set group =>   1
Atom  57C    basis set group =>   1
Atom  58C    basis set group =>   1
Atom  59C    basis set group =>   1
Atom  60C    basis set group =>   1
Atom  61C    basis set group =>   1
Atom  62S    basis set group =>   4
Atom  63C    basis set group =>   1
Atom  64C    basis set group =>   1
Atom  65S    basis set group =>   4
Atom  66C    basis set group =>   1
Atom  67C    basis set group =>   1
Atom  68C    basis set group =>   1
Atom  69C    basis set group =>   1
Atom  70C    basis set group =>   1
Atom  71C    basis set group =>   1
Atom  72C    basis set group =>   1
Atom  73N    basis set group =>   3
Atom  74C    basis set group =>   1
Atom  75N    basis set group =>   3
Atom  76C    basis set group =>   1
Atom  77C    basis set group =>   1
Atom  78C    basis set group =>   1
Atom  79O    basis set group =>   2
Atom  80S    basis set group =>   4
Atom  81C    basis set group =>   1
Atom  82C    basis set group =>   1
Atom  83S    basis set group =>   4
Atom  84C    basis set group =>   1
Atom  85C    basis set group =>   1
Atom  86H    basis set group =>   5
Atom  87H    basis set group =>   5
Atom  88H    basis set group =>   5
Atom  89H    basis set group =>   5
Atom  90H    basis set group =>   5
Atom  91H    basis set group =>   5
Atom  92H    basis set group =>   5
Atom  93H    basis set group =>   5
Atom  94H    basis set group =>   5
Atom  95H    basis set group =>   5
Atom  96H    basis set group =>   5
Atom  97H    basis set group =>   5
Atom  98H    basis set group =>   5
Atom  99H    basis set group =>   5
Atom 100H    basis set group =>   5
Atom 101H    basis set group =>   5
Atom 102H    basis set group =>   5
Atom 103H    basis set group =>   5
Atom 104H    basis set group =>   5
Atom 105H    basis set group =>   5
Atom 106H    basis set group =>   5
Atom 107H    basis set group =>   5
Atom 108H    basis set group =>   5
Atom 109H    basis set group =>   5
Atom 110H    basis set group =>   5
Atom 111H    basis set group =>   5
Atom 112H    basis set group =>   5
Atom 113H    basis set group =>   5
Atom 114H    basis set group =>   5
Atom 115H    basis set group =>   5
Atom 116H    basis set group =>   5
Atom 117H    basis set group =>   5
Atom 118H    basis set group =>   5
Atom 119H    basis set group =>   5
Atom 120H    basis set group =>   5
Atom 121H    basis set group =>   5
Atom 122H    basis set group =>   5
Atom 123H    basis set group =>   5
Atom 124H    basis set group =>   5
Atom 125H    basis set group =>   5
Atom 126H    basis set group =>   5
Atom 127H    basis set group =>   5
Atom 128H    basis set group =>   5
Atom 129H    basis set group =>   5
Atom 130H    basis set group =>   5
Atom 131H    basis set group =>   5
------------------------------------------------------------------------------
                           ORCA GTO INTEGRAL CALCULATION
------------------------------------------------------------------------------

                         BASIS SET STATISTICS AND STARTUP INFO

 # of primitive gaussian shells          ... 1298
 # of primitive gaussian functions       ... 2458
 # of contracted shells                  ...  666
 # of contracted basis functions         ... 1458
 Highest angular momentum                ...    2
 Maximum contraction depth               ...    5
 Integral package used                   ... LIBINT
 Integral threshhold            Thresh   ...  2.500e-11
 Primitive cut-off              TCut     ...  2.500e-12


------------------------------ INTEGRAL EVALUATION ----------------------------


 * One electron integrals 
 Pre-screening matrix                    ... done
 Shell pair data                         ... done (   0.026 sec)

-------------------------------------------------------------------------------
                                 ORCA SCF
-------------------------------------------------------------------------------

------------
SCF SETTINGS
------------
Hamiltonian:
 Ab initio Hamiltonian  Method          .... Hartree-Fock(GTOs)


General Settings:
 Integral files         IntName         .... ITCC
 Hartree-Fock type      HFTyp           .... RHF
 Total Charge           Charge          ....    0
 Multiplicity           Mult            ....    1
 Number of Electrons    NEL             ....  630
 Basis Dimension        Dim             .... 1458
 Nuclear Repulsion      ENuc            ....  15117.9458988638 Eh

Convergence Acceleration:
 DIIS                   CNVDIIS         .... on
   Start iteration      DIISMaxIt       ....    12
   Startup error        DIISStart       ....  0.200000
   # of expansion vecs  DIISMaxEq       ....     5
   Bias factor          DIISBfac        ....   1.050
   Max. coefficient     DIISMaxC        ....  10.000
 Newton-Raphson         CNVNR           .... off
 SOSCF                  CNVSOSCF        .... on
   Start iteration      SOSCFMaxIt      ....   150
   Startup grad/error   SOSCFStart      ....  0.003300
 Level Shifting         CNVShift        .... on
   Level shift para.    LevelShift      ....    0.2500
   Turn off err/grad.   ShiftErr        ....    0.0010
 Zerner damping         CNVZerner       .... off
 Static damping         CNVDamp         .... on
   Fraction old density DampFac         ....    0.7000
   Max. Damping (<1)    DampMax         ....    0.9800
   Min. Damping (>=0)   DampMin         ....    0.0000
   Turn off err/grad.   DampErr         ....    0.1000
 Fernandez-Rico         CNVRico         .... off

SCF Procedure:
 Maximum # iterations   MaxIter         ....   125
 SCF integral mode      SCFMode         .... Direct
   Integral package                     .... LIBINT
 Reset frequency        DirectResetFreq ....    20
 Integral Threshold     Thresh          ....  2.500e-11 Eh
 Primitive CutOff       TCut            ....  2.500e-12 Eh

Convergence Tolerance:
 Convergence Check Mode ConvCheckMode   .... Total+1el-Energy
 Convergence forced     ConvForced      .... 1
 Energy Change          TolE            ....  1.000e-08 Eh
 1-El. energy change                    ....  1.000e-05 Eh
 Orbital Gradient       TolG            ....  1.000e-05
 Orbital Rotation angle TolX            ....  1.000e-05
 DIIS Error             TolErr          ....  5.000e-07


Diagonalization of the overlap matrix:
Smallest eigenvalue                        ... 2.102e-04
Time for diagonalization                   ...    0.773 sec
Threshold for overlap eigenvalues          ... 1.000e-08
Number of eigenvalues below threshold      ... 0
Time for construction of square roots      ...    0.250 sec
Total time needed                          ...    1.029 sec

-------------------
DFT GRID GENERATION
-------------------

General Integration Accuracy     IntAcc      ...  4.340
Radial Grid Type                 RadialGrid  ... Gauss-Chebyshev
Angular Grid (max. acc.)         AngularGrid ... Lebedev-110
Angular grid pruning method      GridPruning ... 3 (G Style)
Weight generation scheme         WeightScheme... Becke
Basis function cutoff            BFCut       ...    1.0000e-11
Integration weight cutoff        WCut        ...    1.0000e-14
Grids for H and He will be reduced by one unit

# of grid points (after initial pruning)     ... 180144 (   0.4 sec)
# of grid points (after weights+screening)   ... 155407 (  11.1 sec)
nearest neighbour list constructed           ...    0.0 sec
Grid point re-assignment to atoms done       ...    0.0 sec
Grid point division into batches done        ...    0.1 sec
Reduced shell lists constructed in    3.3 sec

Total number of grid points                  ...   155407
Total number of batches                      ...     2492
Average number of points per batch           ...       62
Average number of grid points per atom       ...     1177
Average number of shells per batch           ...   125.26 (18.81%)
Average number of basis functions per batch  ...   254.72 (17.47%)
Average number of large shells per batch     ...    70.28 (56.11%)
Average number of large basis fcns per batch ...   146.41 (57.48%)
Maximum spatial batch extension              ...  23.15, 20.85, 34.51 au
Average spatial batch extension              ...   3.19,  3.09,  3.33 au

Time for grid setup =   14.791 sec

------------------------------
INITIAL GUESS: MODEL POTENTIAL
------------------------------
Loading Hartree-Fock densities                     ... done
Calculating cut-offs                               ... done
Setting up the integral package                    ... done
Initializing the effective Hamiltonian             ... done
Starting the Coulomb interaction                   ... done (  16.4 sec)
Reading the grid                                   ... done
Mapping shells                                     ... done
Starting the XC term evaluation                    ... done (   3.0 sec)
Transforming the Hamiltonian                       ... done (   0.2 sec)
Diagonalizing the Hamiltonian                      ... done (   0.6 sec)
Back transforming the eigenvectors                 ... done (   0.1 sec)
Now organizing SCF variables                       ... done
                      ------------------
                      INITIAL GUESS DONE (  35.5 sec)
                      ------------------
--------------
SCF ITERATIONS
--------------
ITER       Energy         Delta-E        Max-DP      RMS-DP      [F,P]     Damp
               ***  Starting incremental Fock matrix formation  ***
  0  -5575.6427758934   0.000000000000 0.29348028  0.00124873  0.2379573 0.7000
  1  -5576.5904278696  -0.947651976145 0.22162286  0.00097314  0.1459080 0.7000
                               ***Turning on DIIS***
  2  -5577.1683850839  -0.577957214333 0.52493349  0.00227753  0.0832113 0.0000
  3  -5573.4531017670   3.715283316909 0.06205564  0.00047240  0.0548078 0.0000
  4  -5578.6713088454  -5.218207078407 0.02605135  0.00019678  0.0195031 0.0000
  5  -5578.6134286433   0.057880202068 0.01012741  0.00009247  0.0104175 0.0000
  6  -5578.3515050082   0.261923635109 0.00592123  0.00005465  0.0028001 0.0000
                      *** Initiating the SOSCF procedure ***
                           *** Shutting down DIIS ***
                      *** Re-Reading the Fockian *** 
                      *** Removing any level shift *** 
ITER      Energy       Delta-E        Grad      Rot      Max-DP    RMS-DP
  7  -5578.44024168  -0.0887366693  0.002752  0.002752  0.004280  0.000033
               *** Restarting incremental Fock matrix formation ***
  8  -5578.41370987   0.0265318045  0.001463  0.005256  0.003205  0.000021
  9  -5578.41393102  -0.0002211427  0.000680  0.005317  0.004579  0.000030
 10  -5578.41402876  -0.0000977480  0.000198  0.000606  0.000620  0.000007
 11  -5578.41403696  -0.0000081928  0.000120  0.000497  0.000336  0.000003
 12  -5578.41403946  -0.0000025072  0.000041  0.000216  0.000144  0.000001
 13  -5578.41403984  -0.0000003769  0.000034  0.000260  0.000108  0.000001
 14  -5578.41404002  -0.0000001839  0.000019  0.000212  0.000065  0.000001
 15  -5578.41404009  -0.0000000673  0.000008  0.000078  0.000031  0.000000
 16  -5578.41404005   0.0000000370  0.000004  0.000039  0.000014  0.000000
                  ***Gradient check signals convergence***
              ***Rediagonalizing the Fockian in SOSCF/NRSCF***

               *****************************************************
               *                     SUCCESS                       *
               *           SCF CONVERGED AFTER  17 CYCLES          *
               *****************************************************


----------------
TOTAL SCF ENERGY
----------------

Total Energy       :        -5578.41404000 Eh         -151796.36321 eV

Components:
Nuclear Repulsion  :        15117.94589886 Eh          411380.22207 eV
Electronic Energy  :       -20696.35993887 Eh         -563176.58528 eV
One Electron Energy:       -37775.74631932 Eh        -1027930.31632 eV
Two Electron Energy:        17079.38638045 Eh          464753.73104 eV

Virial components:
Potential Energy   :       -11139.96272796 Eh         -303133.79685 eV
Kinetic Energy     :         5561.54868796 Eh          151337.43365 eV
Virial Ratio       :            2.00303249


---------------
SCF CONVERGENCE
---------------

  Last Energy change         ...    5.3165e-08  Tolerance :   1.0000e-08
  Last MAX-Density change    ...    6.0360e-06  Tolerance :   1.0000e-07
  Last RMS-Density change    ...    5.6850e-08  Tolerance :   5.0000e-09
  Last Orbital Gradient      ...    1.2901e-06  Tolerance :   1.0000e-05
  Last Orbital Rotation      ...    4.7045e-06  Tolerance :   1.0000e-05

             **** THE GBW FILE WAS UPDATED (ITCC.gbw) ****
             **** DENSITY FILE WAS UPDATED (ITCC.scfp) ****
             **** ENERGY FILE WAS UPDATED (ITCC.en.tmp) ****
             **** THE GBW FILE WAS UPDATED (ITCC.gbw) ****
             **** DENSITY FILE WAS UPDATED (ITCC.scfp) ****
----------------
ORBITAL ENERGIES
----------------

  NO   OCC          E(Eh)            E(eV) 
   0   2.0000     -91.994439     -2503.2959 
   1   2.0000     -91.991790     -2503.2239 
   2   2.0000     -91.977247     -2502.8281 
   3   2.0000     -91.975258     -2502.7740 
   4   2.0000     -91.974486     -2502.7530 
   5   2.0000     -91.972464     -2502.6980 
   6   2.0000     -20.569135      -559.7146 
   7   2.0000     -20.566422      -559.6408 
   8   2.0000     -15.596706      -424.4079 
   9   2.0000     -15.594214      -424.3401 
  10   2.0000     -15.589214      -424.2041 
  11   2.0000     -15.586827      -424.1391 
  12   2.0000     -11.375140      -309.5333 
  13   2.0000     -11.373342      -309.4844 
  14   2.0000     -11.347130      -308.7711 
  15   2.0000     -11.346068      -308.7422 
  16   2.0000     -11.328475      -308.2635 
  17   2.0000     -11.323482      -308.1276 
  18   2.0000     -11.318493      -307.9919 
  19   2.0000     -11.318285      -307.9862 
  20   2.0000     -11.310691      -307.7796 
  21   2.0000     -11.309656      -307.7514 
  22   2.0000     -11.306581      -307.6677 
  23   2.0000     -11.306357      -307.6616 
  24   2.0000     -11.306175      -307.6567 
  25   2.0000     -11.304035      -307.5984 
  26   2.0000     -11.302227      -307.5492 
  27   2.0000     -11.301622      -307.5328 
  28   2.0000     -11.300302      -307.4969 
  29   2.0000     -11.300212      -307.4944 
  30   2.0000     -11.300137      -307.4924 
  31   2.0000     -11.299383      -307.4719 
  32   2.0000     -11.297875      -307.4308 
  33   2.0000     -11.297227      -307.4132 
  34   2.0000     -11.296950      -307.4056 
  35   2.0000     -11.295406      -307.3636 
  36   2.0000     -11.294011      -307.3257 
  37   2.0000     -11.293286      -307.3059 
  38   2.0000     -11.290054      -307.2180 
  39   2.0000     -11.288757      -307.1827 
  40   2.0000     -11.287023      -307.1355 
  41   2.0000     -11.285084      -307.0827 
  42   2.0000     -11.283277      -307.0336 
  43   2.0000     -11.281466      -306.9843 
  44   2.0000     -11.280093      -306.9469 
  45   2.0000     -11.279531      -306.9316 
  46   2.0000     -11.278450      -306.9022 
  47   2.0000     -11.275540      -306.8230 
  48   2.0000     -11.272281      -306.7344 
  49   2.0000     -11.271026      -306.7002 
  50   2.0000     -11.269781      -306.6663 
  51   2.0000     -11.269020      -306.6456 
  52   2.0000     -11.267602      -306.6070 
  53   2.0000     -11.267122      -306.5940 
  54   2.0000     -11.256938      -306.3168 
  55   2.0000     -11.255874      -306.2879 
  56   2.0000     -11.254931      -306.2622 
  57   2.0000     -11.250131      -306.1316 
  58   2.0000     -11.249676      -306.1193 
  59   2.0000     -11.248023      -306.0743 
  60   2.0000     -11.247746      -306.0667 
  61   2.0000     -11.246949      -306.0451 
  62   2.0000     -11.246154      -306.0234 
  63   2.0000     -11.245547      -306.0069 
  64   2.0000     -11.245350      -306.0015 
  65   2.0000     -11.245133      -305.9956 
  66   2.0000     -11.244418      -305.9762 
  67   2.0000     -11.244120      -305.9681 
  68   2.0000     -11.242984      -305.9371 
  69   2.0000     -11.242821      -305.9327 
  70   2.0000     -11.241458      -305.8956 
  71   2.0000     -11.241371      -305.8933 
  72   2.0000     -11.241000      -305.8832 
  73   2.0000     -11.239399      -305.8396 
  74   2.0000     -11.238310      -305.8100 
  75   2.0000     -11.237341      -305.7836 
  76   2.0000     -11.236932      -305.7725 
  77   2.0000     -11.236862      -305.7706 
  78   2.0000     -11.236181      -305.7520 
  79   2.0000     -11.232337      -305.6474 
  80   2.0000     -11.231757      -305.6317 
  81   2.0000     -11.229552      -305.5717 
  82   2.0000     -11.229429      -305.5683 
  83   2.0000     -11.227814      -305.5243 
  84   2.0000     -11.224349      -305.4301 
  85   2.0000     -11.216115      -305.2060 
  86   2.0000      -9.029405      -245.7026 
  87   2.0000      -9.026735      -245.6299 
  88   2.0000      -9.011443      -245.2138 
  89   2.0000      -9.009782      -245.1686 
  90   2.0000      -9.009081      -245.1496 
  91   2.0000      -9.006893      -245.0900 
  92   2.0000      -6.716702      -182.7707 
  93   2.0000      -6.715726      -182.7442 
  94   2.0000      -6.714052      -182.6986 
  95   2.0000      -6.714039      -182.6983 
  96   2.0000      -6.713072      -182.6720 
  97   2.0000      -6.711401      -182.6265 
  98   2.0000      -6.698984      -182.2886 
  99   2.0000      -6.698134      -182.2655 
 100   2.0000      -6.697300      -182.2428 
 101   2.0000      -6.696580      -182.2232 
 102   2.0000      -6.696431      -182.2192 
 103   2.0000      -6.695991      -182.2072 
 104   2.0000      -6.695547      -182.1951 
 105   2.0000      -6.694312      -182.1615 
 106   2.0000      -6.694309      -182.1614 
 107   2.0000      -6.693550      -182.1408 
 108   2.0000      -6.693277      -182.1333 
 109   2.0000      -6.691348      -182.0808 
 110   2.0000      -1.398217       -38.0474 
 111   2.0000      -1.396661       -38.0051 
 112   2.0000      -1.245340       -33.8874 
 113   2.0000      -1.242955       -33.8225 
 114   2.0000      -1.239742       -33.7351 
 115   2.0000      -1.233202       -33.5571 
 116   2.0000      -1.226499       -33.3747 
 117   2.0000      -1.224984       -33.3335 
 118   2.0000      -1.216890       -33.1133 
 119   2.0000      -1.214850       -33.0577 
 120   2.0000      -1.200928       -32.6789 
 121   2.0000      -1.186857       -32.2960 
 122   2.0000      -1.164031       -31.6749 
 123   2.0000      -1.161350       -31.6019 
 124   2.0000      -1.159062       -31.5397 
 125   2.0000      -1.152765       -31.3683 
 126   2.0000      -1.148716       -31.2581 
 127   2.0000      -1.143345       -31.1120 
 128   2.0000      -1.133405       -30.8415 
 129   2.0000      -1.111986       -30.2587 
 130   2.0000      -1.095671       -29.8147 
 131   2.0000      -1.092476       -29.7278 
 132   2.0000      -1.088889       -29.6302 
 133   2.0000      -1.074841       -29.2479 
 134   2.0000      -1.061303       -28.8795 
 135   2.0000      -1.056829       -28.7578 
 136   2.0000      -1.056415       -28.7465 
 137   2.0000      -1.050379       -28.5823 
 138   2.0000      -1.045145       -28.4398 
 139   2.0000      -1.040246       -28.3065 
 140   2.0000      -1.034221       -28.1426 
 141   2.0000      -1.026495       -27.9324 
 142   2.0000      -1.023518       -27.8513 
 143   2.0000      -1.016059       -27.6484 
 144   2.0000      -1.011262       -27.5178 
 145   2.0000      -1.009501       -27.4699 
 146   2.0000      -1.006755       -27.3952 
 147   2.0000      -1.000903       -27.2359 
 148   2.0000      -0.994993       -27.0751 
 149   2.0000      -0.991763       -26.9873 
 150   2.0000      -0.974890       -26.5281 
 151   2.0000      -0.974283       -26.5116 
 152   2.0000      -0.971708       -26.4415 
 153   2.0000      -0.966229       -26.2924 
 154   2.0000      -0.957375       -26.0515 
 155   2.0000      -0.930742       -25.3268 
 156   2.0000      -0.925212       -25.1763 
 157   2.0000      -0.918218       -24.9860 
 158   2.0000      -0.914703       -24.8903 
 159   2.0000      -0.909771       -24.7561 
 160   2.0000      -0.896261       -24.3885 
 161   2.0000      -0.864985       -23.5374 
 162   2.0000      -0.858919       -23.3724 
 163   2.0000      -0.858130       -23.3509 
 164   2.0000      -0.853189       -23.2165 
 165   2.0000      -0.840997       -22.8847 
 166   2.0000      -0.832902       -22.6644 
 167   2.0000      -0.830306       -22.5938 
 168   2.0000      -0.829209       -22.5639 
 169   2.0000      -0.825490       -22.4627 
 170   2.0000      -0.820815       -22.3355 
 171   2.0000      -0.818502       -22.2726 
 172   2.0000      -0.813872       -22.1466 
 173   2.0000      -0.808433       -21.9986 
 174   2.0000      -0.801021       -21.7969 
 175   2.0000      -0.793642       -21.5961 
 176   2.0000      -0.793052       -21.5800 
 177   2.0000      -0.786594       -21.4043 
 178   2.0000      -0.785768       -21.3818 
 179   2.0000      -0.779422       -21.2091 
 180   2.0000      -0.775733       -21.1088 
 181   2.0000      -0.773493       -21.0478 
 182   2.0000      -0.765857       -20.8400 
 183   2.0000      -0.757930       -20.6243 
 184   2.0000      -0.748839       -20.3769 
 185   2.0000      -0.739738       -20.1293 
 186   2.0000      -0.737991       -20.0817 
 187   2.0000      -0.727818       -19.8049 
 188   2.0000      -0.718015       -19.5382 
 189   2.0000      -0.716124       -19.4867 
 190   2.0000      -0.710718       -19.3396 
 191   2.0000      -0.698293       -19.0015 
 192   2.0000      -0.696381       -18.9495 
 193   2.0000      -0.692340       -18.8395 
 194   2.0000      -0.688557       -18.7366 
 195   2.0000      -0.686332       -18.6760 
 196   2.0000      -0.674914       -18.3653 
 197   2.0000      -0.673829       -18.3358 
 198   2.0000      -0.668317       -18.1858 
 199   2.0000      -0.661725       -18.0065 
 200   2.0000      -0.655157       -17.8277 
 201   2.0000      -0.652804       -17.7637 
 202   2.0000      -0.651827       -17.7371 
 203   2.0000      -0.648516       -17.6470 
 204   2.0000      -0.645773       -17.5724 
 205   2.0000      -0.642424       -17.4812 
 206   2.0000      -0.636888       -17.3306 
 207   2.0000      -0.633694       -17.2437 
 208   2.0000      -0.631523       -17.1846 
 209   2.0000      -0.630531       -17.1576 
 210   2.0000      -0.628311       -17.0972 
 211   2.0000      -0.626540       -17.0490 
 212   2.0000      -0.624333       -16.9890 
 213   2.0000      -0.621784       -16.9196 
 214   2.0000      -0.620259       -16.8781 
 215   2.0000      -0.618459       -16.8291 
 216   2.0000      -0.611466       -16.6388 
 217   2.0000      -0.610413       -16.6102 
 218   2.0000      -0.607982       -16.5440 
 219   2.0000      -0.604390       -16.4463 
 220   2.0000      -0.600076       -16.3289 
 221   2.0000      -0.598254       -16.2793 
 222   2.0000      -0.596190       -16.2232 
 223   2.0000      -0.593933       -16.1617 
 224   2.0000      -0.592335       -16.1182 
 225   2.0000      -0.591797       -16.1036 
 226   2.0000      -0.589564       -16.0428 
 227   2.0000      -0.588944       -16.0260 
 228   2.0000      -0.586816       -15.9681 
 229   2.0000      -0.584824       -15.9139 
 230   2.0000      -0.584652       -15.9092 
 231   2.0000      -0.580898       -15.8070 
 232   2.0000      -0.578754       -15.7487 
 233   2.0000      -0.578506       -15.7420 
 234   2.0000      -0.577277       -15.7085 
 235   2.0000      -0.575780       -15.6678 
 236   2.0000      -0.574559       -15.6345 
 237   2.0000      -0.571968       -15.5640 
 238   2.0000      -0.568684       -15.4747 
 239   2.0000      -0.568653       -15.4738 
 240   2.0000      -0.568298       -15.4642 
 241   2.0000      -0.566493       -15.4150 
 242   2.0000      -0.565961       -15.4006 
 243   2.0000      -0.564230       -15.3535 
 244   2.0000      -0.559394       -15.2219 
 245   2.0000      -0.556509       -15.1434 
 246   2.0000      -0.552495       -15.0342 
 247   2.0000      -0.548986       -14.9387 
 248   2.0000      -0.540951       -14.7200 
 249   2.0000      -0.540701       -14.7132 
 250   2.0000      -0.538419       -14.6511 
 251   2.0000      -0.536826       -14.6078 
 252   2.0000      -0.534201       -14.5364 
 253   2.0000      -0.532338       -14.4857 
 254   2.0000      -0.529054       -14.3963 
 255   2.0000      -0.527009       -14.3407 
 256   2.0000      -0.523496       -14.2450 
 257   2.0000      -0.519923       -14.1478 
 258   2.0000      -0.518123       -14.0988 
 259   2.0000      -0.516722       -14.0607 
 260   2.0000      -0.515341       -14.0232 
 261   2.0000      -0.513985       -13.9862 
 262   2.0000      -0.511285       -13.9128 
 263   2.0000      -0.509044       -13.8518 
 264   2.0000      -0.506465       -13.7816 
 265   2.0000      -0.500999       -13.6329 
 266   2.0000      -0.500834       -13.6284 
 267   2.0000      -0.500024       -13.6064 
 268   2.0000      -0.497963       -13.5503 
 269   2.0000      -0.494104       -13.4453 
 270   2.0000      -0.493201       -13.4207 
 271   2.0000      -0.492955       -13.4140 
 272   2.0000      -0.492340       -13.3972 
 273   2.0000      -0.490286       -13.3414 
 274   2.0000      -0.489274       -13.3138 
 275   2.0000      -0.486374       -13.2349 
 276   2.0000      -0.485143       -13.2014 
 277   2.0000      -0.484162       -13.1747 
 278   2.0000      -0.483513       -13.1570 
 279   2.0000      -0.481918       -13.1137 
 280   2.0000      -0.481190       -13.0938 
 281   2.0000      -0.478176       -13.0118 
 282   2.0000      -0.477306       -12.9881 
 283   2.0000      -0.475227       -12.9316 
 284   2.0000      -0.473917       -12.8959 
 285   2.0000      -0.472151       -12.8479 
 286   2.0000      -0.471214       -12.8224 
 287   2.0000      -0.470034       -12.7903 
 288   2.0000      -0.466526       -12.6948 
 289   2.0000      -0.464499       -12.6396 
 290   2.0000      -0.458391       -12.4735 
 291   2.0000      -0.449146       -12.2219 
 292   2.0000      -0.447974       -12.1900 
 293   2.0000      -0.417620       -11.3640 
 294   2.0000      -0.415922       -11.3178 
 295   2.0000      -0.413029       -11.2391 
 296   2.0000      -0.390122       -10.6158 
 297   2.0000      -0.378177       -10.2907 
 298   2.0000      -0.372916       -10.1476 
 299   2.0000      -0.367112        -9.9896 
 300   2.0000      -0.354200        -9.6383 
 301   2.0000      -0.348966        -9.4959 
 302   2.0000      -0.348191        -9.4748 
 303   2.0000      -0.347646        -9.4599 
 304   2.0000      -0.346023        -9.4158 
 305   2.0000      -0.344760        -9.3814 
 306   2.0000      -0.342471        -9.3191 
 307   2.0000      -0.336382        -9.1534 
 308   2.0000      -0.332371        -9.0443 
 309   2.0000      -0.328447        -8.9375 
 310   2.0000      -0.323090        -8.7917 
 311   2.0000      -0.319879        -8.7044 
 312   2.0000      -0.314182        -8.5493 
 313   2.0000      -0.299407        -8.1473 
 314   2.0000      -0.260357        -7.0847 
 315   0.0000      -0.019645        -0.5346 
 316   0.0000      -0.005938        -0.1616 
 317   0.0000       0.010819         0.2944 
 318   0.0000       0.016523         0.4496 
 319   0.0000       0.056722         1.5435 
 320   0.0000       0.089550         2.4368 
 321   0.0000       0.090604         2.4655 
 322   0.0000       0.108069         2.9407 
 323   0.0000       0.111358         3.0302 
 324   0.0000       0.115276         3.1368 
 325   0.0000       0.118725         3.2307 
 326   0.0000       0.123365         3.3569 
 327   0.0000       0.123931         3.3723 
 328   0.0000       0.130690         3.5562 
 329   0.0000       0.132866         3.6155 
 330   0.0000       0.136655         3.7186 
 331   0.0000       0.139947         3.8081 
 332   0.0000       0.143847         3.9143 
 333   0.0000       0.146298         3.9810 
 334   0.0000       0.155685         4.2364 
 335   0.0000       0.161372         4.3912 
 336   0.0000       0.162985         4.4350 
 337   0.0000       0.170319         4.6346 
 338   0.0000       0.171322         4.6619 
 339   0.0000       0.175107         4.7649 
 340   0.0000       0.175297         4.7701 
 341   0.0000       0.176825         4.8117 
 342   0.0000       0.178074         4.8456 
 343   0.0000       0.178860         4.8670 
 344   0.0000       0.180141         4.9019 
 345   0.0000       0.186806         5.0832 
 346   0.0000       0.191004         5.1975 
 347   0.0000       0.192680         5.2431 
 348   0.0000       0.196250         5.3402 
 349   0.0000       0.197741         5.3808 
 350   0.0000       0.198460         5.4004 
 351   0.0000       0.201071         5.4714 
 352   0.0000       0.203266         5.5311 
 353   0.0000       0.204146         5.5551 
 354   0.0000       0.204832         5.5738 
 355   0.0000       0.205929         5.6036 
 356   0.0000       0.207266         5.6400 
 357   0.0000       0.208232         5.6663 
 358   0.0000       0.211495         5.7551 
 359   0.0000       0.212697         5.7878 
 360   0.0000       0.215992         5.8774 
 361   0.0000       0.217575         5.9205 
 362   0.0000       0.219596         5.9755 
 363   0.0000       0.220451         5.9988 
 364   0.0000       0.223304         6.0764 
 365   0.0000       0.226163         6.1542 
 366   0.0000       0.227265         6.1842 
 367   0.0000       0.228609         6.2208 
 368   0.0000       0.230499         6.2722 
 369   0.0000       0.231124         6.2892 
 370   0.0000       0.234096         6.3701 
 371   0.0000       0.235152         6.3988 
 372   0.0000       0.237168         6.4537 
 373   0.0000       0.239750         6.5239 
 374   0.0000       0.242479         6.5982 
 375   0.0000       0.243449         6.6246 
 376   0.0000       0.247336         6.7303 
 377   0.0000       0.248785         6.7698 
 378   0.0000       0.250343         6.8122 
 379   0.0000       0.251246         6.8368 
 380   0.0000       0.254910         6.9364 
 381   0.0000       0.258312         7.0290 
 382   0.0000       0.259203         7.0533 
[...]
   Size of expansion space: 21
   Lowest Energy          :     0.105162496119
   Maximum Energy change  :     0.000006081453 (vector 2)
   Maximum residual norm  :     0.000000995700

                       ****Iteration   14****
   Time for densities:     1.970
   Using LibInt in JK Direct
   Time for J+K (Direct):  2231.949
   Time for Sigma-Completion:    17.954
   Size of expansion space: 24
   Lowest Energy          :     0.105162496078
   Maximum Energy change  :     0.000002482918 (vector 2)
   Maximum residual norm  :     0.000000314869

                       ****Iteration   15****
   Time for densities:     2.123
   Using LibInt in JK Direct
   Time for J+K (Direct):  2666.997
   Time for Sigma-Completion:    32.962
   Size of expansion space: 27
   Lowest Energy          :     0.105162496067
   Maximum Energy change  :     0.000001055264 (vector 2)
   Maximum residual norm  :     0.000000187109

      *** CONVERGENCE OF RESIDUAL NORM REACHED ***

Storing the converged CI vectors               ... ITCC.cis1

                 *** DAVIDSON DONE ***

Total time for solving the CIS problem: 45155.709sec

-----------------------------
CIS-EXCITED STATES (SINGLETS)
-----------------------------

the weight of the individual excitations are printed if larger than 1.0e-02

STATE  1:  E=   0.105162 au      2.862 eV    23080.5 cm**-1
   300a -> 319a  :     0.016068 (c= -0.12675878)
   313a -> 316a  :     0.149445 (c= -0.38658158)
   313a -> 318a  :     0.032105 (c= -0.17917959)
   314a -> 315a  :     0.629625 (c=  0.79348887)
   314a -> 317a  :     0.028471 (c= -0.16873217)
   314a -> 319a  :     0.022806 (c=  0.15101565)

STATE  2:  E=   0.123407 au      3.358 eV    27084.8 cm**-1
   300a -> 316a  :     0.023260 (c= -0.15251214)
   306a -> 316a  :     0.018314 (c=  0.13533077)
   310a -> 316a  :     0.017121 (c=  0.13084818)
   312a -> 315a  :     0.023244 (c= -0.15246054)
   312a -> 316a  :     0.011484 (c=  0.10716299)
   313a -> 315a  :     0.337099 (c=  0.58060270)
   314a -> 316a  :     0.362930 (c= -0.60243686)
   314a -> 318a  :     0.048888 (c= -0.22110692)

STATE  3:  E=   0.153477 au      4.176 eV    33684.3 cm**-1
   296a -> 316a  :     0.018713 (c= -0.13679651)
   300a -> 315a  :     0.038901 (c=  0.19723414)
   300a -> 316a  :     0.010919 (c=  0.10449386)
   300a -> 317a  :     0.062015 (c=  0.24902893)
   306a -> 315a  :     0.022598 (c= -0.15032790)
   309a -> 316a  :     0.016505 (c=  0.12847109)
   310a -> 315a  :     0.023355 (c= -0.15282421)
   312a -> 315a  :     0.014630 (c= -0.12095545)
   312a -> 316a  :     0.010237 (c=  0.10117628)
   313a -> 316a  :     0.123681 (c= -0.35168374)
   313a -> 317a  :     0.053764 (c= -0.23186973)
   313a -> 318a  :     0.049192 (c=  0.22179322)
   314a -> 316a  :     0.011252 (c=  0.10607688)
   314a -> 317a  :     0.277399 (c=  0.52668681)
   314a -> 319a  :     0.067744 (c= -0.26027730)


----------------------
CIS-EXCITATION SPECTRA
----------------------

Center of mass = ( 16.5675,-12.4001, -1.7676)
Calculating the Dipole integrals                  ... done
Transforming integrals                            ... done
Calculating the Linear Momentum integrals         ... done
Transforming integrals                            ... done
Calculating angular momentum integrals            ... done
Transforming integrals                            ... done

-----------------------------------------------------------------------------
         ABSORPTION SPECTRUM VIA TRANSITION ELECTRIC DIPOLE MOMENTS
-----------------------------------------------------------------------------
State   Energy    Wavelength  fosc         T2        TX        TY        TZ  
        (cm-1)      (nm)                 (au**2)    (au)      (au)      (au) 
-----------------------------------------------------------------------------
   1   23080.5    433.3   2.537399006  36.19255   3.80871  -4.65667   0.04158
   2   27084.8    369.2   0.297694024   3.61843  -1.62873   0.73134   0.65636
   3   33684.3    296.9   0.069907600   0.68324  -0.49152   0.32067   0.58208

-----------------------------------------------------------------------------
         ABSORPTION SPECTRUM VIA TRANSITION VELOCITY DIPOLE MOMENTS
-----------------------------------------------------------------------------
State   Energy    Wavelength   fosc        P2         PX        PY        PZ  
        (cm-1)      (nm)                 (au**2)     (au)      (au)      (au) 
-----------------------------------------------------------------------------
   1   23080.5    433.3   1.238248138   0.19533  -0.29332   0.33038   0.01156
   2   27084.8    369.2   0.217159515   0.04020   0.17911  -0.07979  -0.04184
   3   33684.3    296.9   0.007331327   0.00169  -0.03450  -0.00720   0.02110

-------------------------------------------------------------------
                             CD SPECTRUM
-------------------------------------------------------------------
State  Energy     Wavelength     R         MX        MY        MZ   
       (cm-1)       (nm)     (1e40*cgs)   (au)      (au)      (au)  
-------------------------------------------------------------------
   1   23080.5    433.3    -441.72227  -0.75431  -0.42545  -1.08643
   2   27084.8    369.2    403.98273  -0.97491  -0.74662  -0.28176
   3   33684.3    296.9     46.95753  -0.12783  -0.14260   0.14173

Total run time:    45312.310 sec

           *** ORCA-CIS/TD-DFT FINISHED WITHOUT ERROR ***

-----------------------
CIS/TD-DFT TOTAL ENERGY
-----------------------

    E(SCF)  =  -5578.414040002 Eh
    DE(CIS) =      0.105162496 Eh (Root  1)
    ----------------------------- ---------
    E(tot)  =  -5578.308877506 Eh


-------------------------   --------------------
FINAL SINGLE POINT ENERGY     -5578.308877505559
-------------------------   --------------------

------------------------------------------------------------------------------
                         ORCA SCF GRADIENT CALCULATION
------------------------------------------------------------------------------


------------
CIS GRADIENT
------------

Reference wavefunction             ... RHF
State of interest                  ... 1
Basis dimension                    ... 1458
DFT-XC contribution needed         ... NO
RI-approximation                   ... OFF
CIS-vectors being read from        ... ITCC.cis

 => Number of Vectors found: 3
 => Orbital Window: 110...314 -> 315...1457

Reading the CIS file                     ... done
Norm of the CI vector                    ... 1.000000000
Making the CIS (pseudo)densities         ... done
Making operators G(D) and Q(T)           ... done
Transforming the Fock operators          ... done
Making the frozen-core relaxed density   ... done
Constructing the G(H) operator           ... done
Transforming the G(H) operator           ... done
Calculating the CIS Lagrangian           ... done
Solving the Z-vector equations           ... done
Finalizing the relaxed density           ... done
Storing the relaxed density              ... done
Constructing the G(Z) operator           ... done
Transforming the G(Z) operator           ... done
Making the W-matrix                      ... done
Finalizing the W-matrix                  ... done
Transforming the W-matrix                ... done
Nuclear repulsion gradient               ... done
One-Electron gradient                    ... done
Prescreening matrices                    ... done
Two-Electron gradient (4-center)         ... done
                 ---------------------------
                 EXCITED STATE GRADIENT DONE
                 ---------------------------


------------------
CARTESIAN GRADIENT
------------------

   1   C   :   -0.011623299    0.036262209   -0.009390832
   2   O   :    0.011573993   -0.047020477    0.012660876
   3   C   :    0.005517359   -0.023025232    0.005915036
   4   C   :    0.006640489    0.031603990   -0.011392224
   5   C   :   -0.012727153   -0.014047956    0.007192948
   6   C   :    0.007074937    0.019036482   -0.007344431
   7   C   :    0.049576413   -0.056055902    0.010088714
   8   N   :   -0.048271965    0.051342072   -0.009127178
   9   C   :   -0.071066124   -0.019226887    0.019116399
  10   N   :    0.067017648    0.015600841   -0.017104252
  11   C   :   -0.000199514    0.003761159   -0.001272061
  12   C   :    0.000742146   -0.004244405    0.001464337
  13   C   :   -0.006491377    0.002208385    0.001057314
  14   C   :   -0.001580057    0.000314139    0.000247191
  15   C   :   -0.004854341   -0.007699439    0.004251894
  16   C   :    0.003013739    0.010887315   -0.003865699
  17   S   :    0.007087759    0.004431570   -0.004266372
  18   C   :    0.009892926    0.005683717   -0.003358304
  19   C   :   -0.001642396   -0.001277589    0.000432529
  20   C   :   -0.006270352   -0.005911051   -0.006177749
  21   C   :   -0.001962423    0.000132090    0.002405182
  22   C   :   -0.002281063   -0.001343794    0.002537506
  23   C   :    0.008002920    0.007052287    0.003814677
  24   C   :   -0.002757397   -0.007287899   -0.002274120
  25   C   :   -0.003363794    0.002864624   -0.002510082
  26   C   :    0.002076779    0.000679187   -0.000304269
  27   C   :   -0.000437440   -0.002138985   -0.003867636
  28   C   :    0.003644887   -0.002792539    0.008941917
  29   C   :   -0.000092900   -0.002788775    0.000264588
  30   C   :   -0.000711886   -0.002321914    0.000167856
  31   C   :   -0.002878539    0.004465181   -0.010131093
  32   C   :   -0.000807578   -0.001918501    0.007723373
  33   C   :    0.004604232   -0.000939028   -0.000650392
  34   C   :   -0.000782423    0.002080480   -0.000343899
  35   C   :    0.000260838    0.001334979    0.003938509
  36   C   :   -0.010593283    0.006529435    0.005186051
  37   C   :    0.009167246   -0.010341889   -0.001613090
  38   C   :   -0.006807090    0.002224951    0.005045535
  39   S   :   -0.002219064   -0.004593185    0.001094907
  40   C   :   -0.007866891    0.011838248    0.002584048
  41   C   :    0.010978160   -0.005740639   -0.003720111
  42   C   :   -0.000653095    0.000983980   -0.002206027
  43   C   :   -0.005093983    0.003161519   -0.007388106
  44   C   :   -0.001292741   -0.002485530   -0.002924001
  45   C   :    0.001172093   -0.002143580    0.000216087
  46   C   :    0.007486179   -0.004896465    0.006979787
  47   C   :   -0.008246855    0.000811483   -0.002355589
  48   C   :    0.002916502    0.002386298   -0.003835542
  49   C   :    0.000315345    0.001706827   -0.000275848
  50   C   :    0.000439600    0.002310158   -0.001157495
  51   C   :    0.007941617    0.006561188    0.004968536
  52   C   :    0.002133953   -0.000105132   -0.002616018
  53   C   :    0.001443216    0.001076632   -0.002552148
  54   C   :   -0.008153597   -0.007309523   -0.001930298
  55   C   :    0.002843535    0.007261014    0.001131707
  56   C   :    0.003503074   -0.002889500    0.002303211
  57   C   :   -0.002021222   -0.000719663    0.000843121
  58   C   :    0.001107229    0.002059780    0.003439262
  59   C   :   -0.011505927   -0.000248572    0.003856069
  60   C   :    0.008881482   -0.005152858   -0.005838089
  61   C   :   -0.009802817    0.012441649    0.004286442
  62   C   :    0.008645338   -0.012597538   -0.002658917
  63   S   :    0.000982146    0.002188047    0.000682119
  64   C   :   -0.002693793    0.010418903    0.000583803
  65   C   :    0.003282064   -0.009418018   -0.000509427
  66   S   :   -0.001577076   -0.003891779    0.006492421
  67   C   :    0.000710351    0.004690083   -0.001001837
  68   C   :    0.005724785   -0.008960034   -0.000483843
  69   C   :   -0.001536955   -0.007616538    0.006623716
  70   C   :    0.001228423    0.007866719    0.001906184
  71   C   :   -0.004565071   -0.015366509   -0.009896587
  72   C   :   -0.001579393    0.009769228    0.017293437
  73   C   :    0.030399259    0.031386856   -0.059755840
  74   N   :   -0.029781460   -0.028596136    0.056149324
  75   C   :   -0.025834256   -0.069306792   -0.013587208
  76   N   :    0.019481710    0.066620544    0.011482351
  77   C   :   -0.016018491    0.015756562    0.027458885
  78   C   :    0.012341764   -0.000104819   -0.021440796
  79   C   :   -0.017425115   -0.006009451    0.032207881
  80   O   :    0.025658731    0.001185835   -0.041665259
  81   S   :   -0.004645718   -0.010860302    0.004281057
  82   C   :   -0.011576514   -0.003845262    0.003480010
  83   C   :    0.016971763    0.004308706   -0.004390586
  84   S   :    0.004671689   -0.007268740   -0.008704326
  85   C   :    0.000594586   -0.012814199   -0.001653105
  86   C   :   -0.000018039    0.017681033    0.001361298
  87   H   :    0.003819045    0.009254778   -0.004307404
  88   H   :   -0.009291928   -0.000781010    0.003192452
  89   H   :   -0.007572036   -0.003436219    0.002459633
  90   H   :   -0.001263388    0.003347856    0.006965300
  91   H   :   -0.004153398    0.004492740    0.004395446
  92   H   :    0.004077898    0.004061253   -0.004995765
  93   H   :   -0.003936480   -0.004282942    0.004103849
  94   H   :    0.004537611    0.003854633    0.003871242
  95   H   :    0.003949366   -0.004545268   -0.004105846
  96   H   :    0.006462807    0.003023397   -0.003244914
  97   H   :    0.000351848   -0.002676238   -0.007516891
  98   H   :    0.001207397   -0.008225709    0.002940909
  99   H   :   -0.002266529   -0.004506115   -0.005809455
 100   H   :    0.001426399   -0.005295088   -0.005440109
 101   H   :    0.003807830    0.005625278   -0.002043401
 102   H   :   -0.003769029   -0.005291531    0.002924430
 103   H   :   -0.003235619    0.003106886   -0.005495619
 104   H   :   -0.000880598    0.004745795    0.005469726
 105   H   :   -0.000470882    0.007641221   -0.001719926
 106   H   :    0.002001184    0.004427585    0.006664476
 107   H   :   -0.005605364   -0.005205191    0.003714773
 108   H   :   -0.004748732   -0.004467931   -0.005741715
 109   H   :    0.001156608   -0.008407404    0.002363581
 110   H   :    0.004286398    0.005604251    0.002793157
 111   H   :    0.005678851   -0.005018316   -0.003896196
 112   H   :   -0.004742458    0.003999854    0.003003510
 113   H   :    0.003880211   -0.002846073    0.004728067
 114   H   :   -0.003641570   -0.005668236   -0.003410366
 115   H   :    0.004731025    0.004732600    0.004584203
 116   H   :   -0.000391064    0.007810811   -0.003485452
 117   H   :    0.007176278    0.002936677   -0.004099574
 118   H   :   -0.000300586   -0.003128558   -0.006877192
 119   H   :   -0.003218844   -0.003589223    0.005696284
 120   H   :    0.003049952   -0.005095865   -0.004589719
 121   H   :   -0.003038371    0.004724903    0.004135901
 122   H   :   -0.004831376   -0.003713255   -0.002967119
 123   H   :    0.003515462    0.003904283   -0.004813544
 124   H   :   -0.005956358   -0.002534006    0.004589014
 125   H   :    0.001265062    0.002914982    0.007250767
 126   H   :    0.005120933    0.004894285   -0.004137775
 127   H   :    0.006322166    0.001237590   -0.003838218
 128   H   :    0.004258359   -0.001248386   -0.007944942
 129   H   :   -0.007712976    0.001445891    0.001703555
 130   H   :   -0.000770648    0.008157578   -0.003073713
 131   H   :   -0.001833869   -0.007346896    0.002180387
 132   H   :   -0.003889023    0.001720973    0.007206781

Difference to translation invariance:
           :   -0.0000000003    0.0000000001   -0.0000000001

Norm of the cartesian gradient     ...    0.2531325798
RMS gradient                       ...    0.0127203907
MAX gradient                       ...    0.0710661237

-------
TIMINGS
-------

Total CIS gradient time            ...    38480.791 sec

Fock matrix formation       ....    2741.226 sec  (  7.1%)
  Coulomb formation         ....    2741.226 sec  (100.0% of F)
Z-vector equation           ....   32694.086 sec  ( 85.0%)
One electron gradient       ....      22.580 sec  (  0.1%)
Prescreening matrices       ....       1.388 sec  (  0.0%)
Two electron gradient       ....    3016.821 sec  (  7.8%)

                            ***************************************
                            *     ORCA property calculations      *
                            ***************************************

                                    ---------------------
                                    Active property flags
                                    ---------------------
   (+) Dipole Moment


------------------------------------------------------------------------------
                       ORCA ELECTRIC PROPERTIES CALCULATION
------------------------------------------------------------------------------

Dipole Moment Calculation                       ... on
Quadrupole Moment Calculation                   ... off
Polarizability Calculation                      ... off
GBWName                                         ... ITCC.gbw
Electron density file                           ... ITCC.scfp
The origin for moment calculation is the CENTER OF MASS  = (16.567485, -12.400072 -1.767605)

-------------
DIPOLE MOMENT
-------------
                                X             Y             Z
Electronic contribution:    -12.65056      -8.91661      -1.50394
Nuclear contribution   :     12.13554       6.67167       0.88416
                        -----------------------------------------
Total Dipole Moment    :     -0.51502      -2.24494      -0.61978
                        -----------------------------------------
Magnitude (a.u.)       :      2.38519
Magnitude (Debye)      :      6.06268



--------------------
Rotational spectrum 
--------------------
 
Rotational constants in cm-1:     0.001216     0.000251     0.000239 
Rotational constants in MHz :    36.457663     7.520584     7.151960 

 Dipole components along the rotational axes: 
x,y,z [a.u.] :     1.438582    -1.752968     0.739413 
x,y,z [Debye]:     3.656586    -4.455690     1.879439 

 

                        *** CIS RELAXED DENSITY ***

------------------------------------------------------------------------------
                       ORCA ELECTRIC PROPERTIES CALCULATION
------------------------------------------------------------------------------

Dipole Moment Calculation                       ... on
Quadrupole Moment Calculation                   ... off
Polarizability Calculation                      ... off
GBWName                                         ... ITCC.gbw
Electron density file                           ... ITCC.cisp
The origin for moment calculation is the CENTER OF MASS  = (16.567485, -12.400072 -1.767605)

-------------
DIPOLE MOMENT
-------------
                                X             Y             Z
Electronic contribution:    -12.73380      -8.45763      -1.60784
Nuclear contribution   :     12.13554       6.67167       0.88416
                        -----------------------------------------
Total Dipole Moment    :     -0.59826      -1.78596      -0.72368
                        -----------------------------------------
Magnitude (a.u.)       :      2.01774
Magnitude (Debye)      :      5.12870



--------------------
Rotational spectrum 
--------------------
 
Rotational constants in cm-1:     0.001216     0.000251     0.000239 
Rotational constants in MHz :    36.457663     7.520584     7.151960 

 Dipole components along the rotational axes: 
x,y,z [a.u.] :     1.032879    -1.519087     0.834763 
x,y,z [Debye]:     2.625370    -3.861212     2.121799 

 

Timings for individual modules:

Sum of individual times         ...    95023.222 sec (=1583.720 min)
GTO integral calculation        ...        5.068 sec (=   0.084 min)   0.0 %
SCF iterations                  ...    11224.942 sec (= 187.082 min)  11.8 %
CIS module                      ...    45312.384 sec (= 755.206 min)  47.7 %
SCF Gradient evaluation         ...    38480.828 sec (= 641.347 min)  40.5 %
                             ****ORCA TERMINATED NORMALLY****
TOTAL RUN TIME: 1 days 2 hours 23 minutes 44 seconds 240 msec
