
                                 *****************
                                 * O   R   C   A *
                                 *****************

           --- An Ab Initio, DFT and Semiempirical electronic structure package ---

                  #######################################################
                  #                        -***-                        #
                  #          Department of theory and spectroscopy      #
                  #               Directorship: Frank Neese             #
                  #        Max Planck Institute fuer Kohlenforschung    #
                  #                Kaiser Wilhelm Platz 1               #
                  #                 D-45470 Muelheim/Ruhr               #
                  #                      Germany                        #
                  #                                                     #
                  #                  All rights reserved                #
                  #                        -***-                        #
                  #######################################################


                         Program Version 4.2.0 -  RELEASE  -


 With contributions from (in alphabetic order):
   Daniel Aravena         : Magnetic Suceptibility
   Michael Atanasov       : Ab Initio Ligand Field Theory (pilot matlab implementation)
   Alexander A. Auer      : GIAO ZORA, VPT2
   Ute Becker             : Parallelization
   Giovanni Bistoni       : ED, misc. LED, open-shell LED, HFLED
   Martin Brehm           : Molecular dynamics
   Dmytro Bykov           : SCF Hessian
   Vijay G. Chilkuri      : MRCI spin determinant printing, contributions to CSF-ICE
   Dipayan Datta          : RHF DLPNO-CCSD density
   Achintya Kumar Dutta   : EOM-CC, STEOM-CC
   Dmitry Ganyushin       : Spin-Orbit,Spin-Spin,Magnetic field MRCI
   Miquel Garcia          : C-PCM Hessian, Gaussian charge scheme
   Yang Guo               : DLPNO-NEVPT2, CIM, IAO-localization
   Andreas Hansen         : Spin unrestricted coupled pair/coupled cluster methods
   Benjamin Helmich-Paris : CASSCF linear response (MC-RPA)
   Lee Huntington         : MR-EOM, pCC
   Robert Izsak           : Overlap fitted RIJCOSX, COSX-SCS-MP3, EOM
   Christian Kollmar      : KDIIS, OOCD, Brueckner-CCSD(T), CCSD density
   Simone Kossmann        : Meta GGA functionals, TD-DFT gradient, OOMP2, MP2 Hessian
   Martin Krupicka        : AUTO-CI
   Lucas Lang             : DCDCAS
   Dagmar Lenk            : GEPOL surface, SMD
   Dimitrios Liakos       : Extrapolation schemes; Compound Job, initial MDCI parallelization
   Dimitrios Manganas     : Further ROCIS development; embedding schemes
   Dimitrios Pantazis     : SARC Basis sets
   Taras Petrenko         : DFT Hessian,TD-DFT gradient, ASA, ECA, R-Raman, ABS, FL, XAS/XES, NRVS
   Peter Pinski           : DLPNO-MP2, DLPNO-MP2 Gradient
   Christoph Reimann      : Effective Core Potentials
   Marius Retegan         : Local ZFS, SOC
   Christoph Riplinger    : Optimizer, TS searches, QM/MM, DLPNO-CCSD(T), (RO)-DLPNO pert. Triples
   Tobias Risthaus        : Range-separated hybrids, TD-DFT gradient, RPA, STAB
   Michael Roemelt        : Original ROCIS implementation
   Masaaki Saitow         : Open-shell DLPNO-CCSD energy and density
   Barbara Sandhoefer     : DKH picture change effects
   Avijit Sen             : IP-ROCIS
   Kantharuban Sivalingam : CASSCF convergence, NEVPT2, FIC-MRCI
   Bernardo de Souza      : ESD, SOC TD-DFT
   Georgi Stoychev        : AutoAux, RI-MP2 NMR
   Willem Van den Heuvel  : Paramagnetic NMR
   Boris Wezisla          : Elementary symmetry handling
   Frank Wennmohs         : Technical directorship


 We gratefully acknowledge several colleagues who have allowed us to
 interface, adapt or use parts of their codes:
   Stefan Grimme, W. Hujo, H. Kruse,             : VdW corrections, initial TS optimization,
                  C. Bannwarth                     DFT functionals, gCP, sTDA/sTD-DF
   Ed Valeev, F. Pavosevic, A. Kumar             : LibInt (2-el integral package), F12 methods
   Garnet Chan, S. Sharma, J. Yang, R. Olivares  : DMRG
   Ulf Ekstrom                                   : XCFun DFT Library
   Mihaly Kallay                                 : mrcc  (arbitrary order and MRCC methods)
   Andreas Klamt, Michael Diedenhofen            : otool_cosmo (COSMO solvation model)
   Jiri Pittner, Ondrej Demel                    : Mk-CCSD
   Frank Weinhold                                : gennbo (NPA and NBO analysis)
   Christopher J. Cramer and Donald G. Truhlar   : smd solvation model
   Lars Goerigk                                  : TD-DFT with DH, B97 family of functionals
   V. Asgeirsson, H. Jonsson                     : NEB implementation
   FAccTs GmbH                                   : IRC, NEB, NEB-TS, Multilevel, MM, QM/MM, CI optimization
   S Lehtola, MJT Oliveira, MAL Marques          : LibXC Library


 Your calculation uses the libint2 library for the computation of 2-el integrals
 For citations please refer to: http://libint.valeyev.net

 Your ORCA version has been built with support for libXC version: 4.2.3
 For citations please refer to: https://tddft.org/programs/libxc/

 This ORCA versions uses:
   CBLAS   interface :  Fast vector & matrix operations
   LAPACKE interface :  Fast linear algebra routines
   SCALAPACK package :  Parallel linear algebra routines


----- Orbital basis set information -----
Your calculation utilizes the basis: def2-SVP
   F. Weigend and R. Ahlrichs, Phys. Chem. Chem. Phys. 7, 3297 (2005).

================================================================================
                                        WARNINGS
                       Please study these warnings very carefully!
================================================================================

INFO   : Checking CIS options ...

WARNING: CIS/ROCIS methods need fully converged wavefunctions
  ===> : Setting SCFConvForced true
         You can overwrite this default with %scf ConvForced false 


INFO   : the flag for use of LIBINT has been found!

================================================================================
                                       INPUT FILE
================================================================================
NAME = ITIC-Th.inp
|  1> # ORCA input file
|  2> # ITIC-Th.out
|  3> ! Engrad Keepdens
|  4> %maxcore 1000
|  5> %tddft
|  6>   nroots 3 
|  7>   # nroots is the number of states to be computed
|  8>   Iroot 1
|  9>   end
| 10> * xyz 0 1
| 11>    C       -3.67565         0.65567        -0.64580
| 12>    O       -4.66294         1.30151        -0.37999
| 13>    C       -2.27540         1.12117        -0.73002
| 14>    C       -1.75666         2.37248        -0.45884
| 15>    C       -0.38724         2.55774        -0.58877
| 16>    C        0.43452         1.50811        -0.97508
| 17>    C       -0.08172         0.25045        -1.25767
| 18>    C       -1.44813         0.05789        -1.13851
| 19>    C       -2.28420        -1.10939        -1.40754
| 20>    C       -1.95011        -2.14610        -2.23760
| 21>    C       -2.88442        -3.08323        -2.73013
| 22>    N       -3.62370        -3.82235        -3.20416
| 23>    C       -0.66036        -2.35882        -2.76211
| 24>    N        0.37278        -2.60588        -3.19810
| 25>    C       -3.60788        -0.81026        -0.89760
| 26>    C       -4.64862        -1.61333        -0.54922
| 27>    C       -4.63227        -3.01341        -0.33983
| 28>    C       -5.71236        -3.87271        -0.41094
| 29>    C       -5.33929        -5.19912        -0.21374
| 30>    C       -3.96916        -5.36825         0.05782
| 31>    S       -3.14986        -3.85852         0.09142
| 32>    C       -3.61248        -6.70482         0.18922
| 33>    C       -2.34465        -7.51074         0.37016
| 34>    C       -1.44232        -7.23013        -0.80333
| 35>    C       -0.84706        -6.05544        -1.14358
| 36>    C       -0.14092        -6.12352        -2.36478
| 37>    C       -0.21614        -7.33986        -2.96383
| 38>    C        0.41991        -7.79157        -4.23274
| 39>    C        1.59965        -8.72709        -3.96095
| 40>    S       -1.16254        -8.44155        -2.01306
| 41>    C       -1.71999        -7.23212         1.70870
| 42>    C       -1.99691        -7.87168         2.87739
| 43>    C       -1.30281        -7.33307         3.98342
| 44>    C       -0.51210        -6.27693         3.66077
| 45>    C        0.38642        -5.48046         4.54302
| 46>    C        1.85426        -5.85125         4.32174
| 47>    S       -0.60359        -5.93134         1.96314
| 48>    C       -2.89965        -8.92341         0.31513
| 49>    C       -4.29645        -8.91389         0.09976
| 50>    C       -4.70093        -7.54416         0.02298
| 51>    S       -6.18689        -6.71587        -0.28429
| 52>    C       -5.02630       -10.09278        -0.02377
| 53>    C       -4.32447       -11.27122         0.06228
| 54>    C       -4.86072       -12.68562        -0.08787
| 55>    C       -5.87113       -13.03445         0.96801
| 56>    C       -5.73856       -13.86517         2.03502
| 57>    C       -6.92503       -13.97880         2.79540
| 58>    C       -7.95399       -13.23785         2.31009
| 59>    C       -9.32765       -13.07866         2.86374
| 60>    C       -9.46668       -11.76055         3.62850
| 61>    S       -7.47070       -12.36597         0.88894
| 62>    C       -5.43326       -12.93116        -1.45624
| 63>    C       -6.16921       -14.00316        -1.85261
| 64>    C       -6.50450       -13.95759        -3.22388
| 65>    C       -6.01250       -12.86507        -3.86476
| 66>    C       -6.19624       -12.46030        -5.28680
| 67>    C       -7.16000       -11.27800        -5.40555
| 68>    S       -5.11686       -11.85364        -2.77375
| 69>    C       -3.59773       -13.48390         0.08193
| 70>    C       -2.51362       -12.65219         0.30058
| 71>    C       -2.92725       -11.28233         0.28475
| 72>    C       -2.20078       -10.10323         0.42198
| 73>    S       -1.02339       -13.49843         0.53559
| 74>    C       -1.86556       -15.01104         0.34934
| 75>    C       -3.23633       -14.82415         0.09538
| 76>    S       -4.06099       -16.32131        -0.06986
| 77>    C       -2.57276       -17.20117         0.27376
| 78>    C       -1.49316       -16.34926         0.42622
| 79>    C       -2.53198       -18.61408         0.31689
| 80>    C       -3.56003       -19.48591         0.50026
| 81>    C       -4.92059       -19.30040         0.96139
| 82>    C       -5.34059       -18.39905         1.90325
| 83>    C       -6.66562       -18.30130         2.37225
| 84>    N       -7.73161       -18.15634         2.77281
| 85>    C       -4.47098       -17.51329         2.57449
| 86>    N       -3.79440       -16.81503         3.18507
| 87>    C       -5.69516       -20.44146         0.47864
| 88>    C       -7.05819       -20.68720         0.47787
| 89>    C       -7.50903       -21.90370        -0.01750
| 90>    C       -6.62690       -22.86243        -0.49588
| 91>    C       -5.25962       -22.62337        -0.50405
| 92>    C       -4.80558       -21.41157        -0.02083
| 93>    C       -3.42111       -20.90004         0.05505
| 94>    O       -2.39541       -21.47435        -0.22849
| 95>    H       -2.41060         3.17605        -0.15700
| 96>    H        0.04447         3.52621        -0.38579
| 97>    H        1.49864         1.67022        -1.05984
| 98>    H        0.57472        -0.55379        -1.54961
| 99>    H       -5.58938        -1.10925        -0.35078
|100>    H       -6.70664        -3.54573        -0.65431
|101>    H       -0.89637        -5.16197        -0.54796
|102>    H        0.39185        -5.28758        -2.78228
|103>    H        0.76460        -6.91184        -4.77979
|104>    H       -0.31702        -8.31294        -4.84873
|105>    H        2.35203        -8.22033        -3.36089
|106>    H        2.05464        -9.04276        -4.89646
|107>    H        1.26299        -9.60977        -3.42137
|108>    H       -2.67328        -8.70490         2.95028
|109>    H       -1.39555        -7.71883         4.98316
|110>    H        0.11220        -5.66818         5.58333
|111>    H        0.25162        -4.41536         4.33931
|112>    H        2.01299        -6.90661         4.53126
|113>    H        2.49413        -5.26573         4.97709
|114>    H        2.13965        -5.65673         3.29037
|115>    H       -6.09208       -10.07439        -0.19263
|116>    H       -4.83423       -14.38988         2.28679
|117>    H       -7.00570       -14.60580         3.66533
|118>    H       -9.53243       -13.91639         3.53335
|119>    H      -10.05761       -13.10087         2.05125
|120>    H       -8.75534       -11.72427         4.45050
|121>    H      -10.47122       -11.66314         4.03237
|122>    H       -9.27354       -10.91891         2.96683
|123>    H       -6.46874       -14.79428        -1.18751
|124>    H       -7.09123       -14.71468        -3.71315
|125>    H       -6.58780       -13.31310        -5.84546
|126>    H       -5.23203       -12.18073        -5.71850
|127>    H       -8.12960       -11.53766        -4.98670
|128>    H       -7.29295       -11.00271        -6.44872
|129>    H       -6.76879       -10.41889        -4.86539
|130>    H       -1.13548       -10.12129         0.59178
|131>    H       -0.49767       -16.69834         0.63093
|132>    H       -1.56730       -19.06589         0.10653
|133>    H       -7.76085       -19.95306         0.83888
|134>    H       -8.56968       -22.10547        -0.02855
|135>    H       -7.00927       -23.80136        -0.86696
|136>    H       -4.55881       -23.35545        -0.87476
|137> *
|138> 
|139>                          ****END OF INPUT****
================================================================================

                     *******************************
                     * Energy+Gradient Calculation *
                     *******************************

---------------------------------
CARTESIAN COORDINATES (ANGSTROEM)
---------------------------------
  C     -3.675650    0.655670   -0.645800
  O     -4.662940    1.301510   -0.379990
  C     -2.275400    1.121170   -0.730020
  C     -1.756660    2.372480   -0.458840
  C     -0.387240    2.557740   -0.588770
  C      0.434520    1.508110   -0.975080
  C     -0.081720    0.250450   -1.257670
  C     -1.448130    0.057890   -1.138510
  C     -2.284200   -1.109390   -1.407540
  C     -1.950110   -2.146100   -2.237600
  C     -2.884420   -3.083230   -2.730130
  N     -3.623700   -3.822350   -3.204160
  C     -0.660360   -2.358820   -2.762110
  N      0.372780   -2.605880   -3.198100
  C     -3.607880   -0.810260   -0.897600
  C     -4.648620   -1.613330   -0.549220
  C     -4.632270   -3.013410   -0.339830
  C     -5.712360   -3.872710   -0.410940
  C     -5.339290   -5.199120   -0.213740
  C     -3.969160   -5.368250    0.057820
  S     -3.149860   -3.858520    0.091420
  C     -3.612480   -6.704820    0.189220
  C     -2.344650   -7.510740    0.370160
  C     -1.442320   -7.230130   -0.803330
  C     -0.847060   -6.055440   -1.143580
  C     -0.140920   -6.123520   -2.364780
  C     -0.216140   -7.339860   -2.963830
  C      0.419910   -7.791570   -4.232740
  C      1.599650   -8.727090   -3.960950
  S     -1.162540   -8.441550   -2.013060
  C     -1.719990   -7.232120    1.708700
  C     -1.996910   -7.871680    2.877390
  C     -1.302810   -7.333070    3.983420
  C     -0.512100   -6.276930    3.660770
  C      0.386420   -5.480460    4.543020
  C      1.854260   -5.851250    4.321740
  S     -0.603590   -5.931340    1.963140
  C     -2.899650   -8.923410    0.315130
  C     -4.296450   -8.913890    0.099760
  C     -4.700930   -7.544160    0.022980
  S     -6.186890   -6.715870   -0.284290
  C     -5.026300  -10.092780   -0.023770
  C     -4.324470  -11.271220    0.062280
  C     -4.860720  -12.685620   -0.087870
  C     -5.871130  -13.034450    0.968010
  C     -5.738560  -13.865170    2.035020
  C     -6.925030  -13.978800    2.795400
  C     -7.953990  -13.237850    2.310090
  C     -9.327650  -13.078660    2.863740
  C     -9.466680  -11.760550    3.628500
  S     -7.470700  -12.365970    0.888940
  C     -5.433260  -12.931160   -1.456240
  C     -6.169210  -14.003160   -1.852610
  C     -6.504500  -13.957590   -3.223880
  C     -6.012500  -12.865070   -3.864760
  C     -6.196240  -12.460300   -5.286800
  C     -7.160000  -11.278000   -5.405550
  S     -5.116860  -11.853640   -2.773750
  C     -3.597730  -13.483900    0.081930
  C     -2.513620  -12.652190    0.300580
  C     -2.927250  -11.282330    0.284750
  C     -2.200780  -10.103230    0.421980
  S     -1.023390  -13.498430    0.535590
  C     -1.865560  -15.011040    0.349340
  C     -3.236330  -14.824150    0.095380
  S     -4.060990  -16.321310   -0.069860
  C     -2.572760  -17.201170    0.273760
  C     -1.493160  -16.349260    0.426220
  C     -2.531980  -18.614080    0.316890
  C     -3.560030  -19.485910    0.500260
  C     -4.920590  -19.300400    0.961390
  C     -5.340590  -18.399050    1.903250
  C     -6.665620  -18.301300    2.372250
  N     -7.731610  -18.156340    2.772810
  C     -4.470980  -17.513290    2.574490
  N     -3.794400  -16.815030    3.185070
  C     -5.695160  -20.441460    0.478640
  C     -7.058190  -20.687200    0.477870
  C     -7.509030  -21.903700   -0.017500
  C     -6.626900  -22.862430   -0.495880
  C     -5.259620  -22.623370   -0.504050
  C     -4.805580  -21.411570   -0.020830
  C     -3.421110  -20.900040    0.055050
  O     -2.395410  -21.474350   -0.228490
  H     -2.410600    3.176050   -0.157000
  H      0.044470    3.526210   -0.385790
  H      1.498640    1.670220   -1.059840
  H      0.574720   -0.553790   -1.549610
  H     -5.589380   -1.109250   -0.350780
  H     -6.706640   -3.545730   -0.654310
  H     -0.896370   -5.161970   -0.547960
  H      0.391850   -5.287580   -2.782280
  H      0.764600   -6.911840   -4.779790
  H     -0.317020   -8.312940   -4.848730
  H      2.352030   -8.220330   -3.360890
  H      2.054640   -9.042760   -4.896460
  H      1.262990   -9.609770   -3.421370
  H     -2.673280   -8.704900    2.950280
  H     -1.395550   -7.718830    4.983160
  H      0.112200   -5.668180    5.583330
  H      0.251620   -4.415360    4.339310
  H      2.012990   -6.906610    4.531260
  H      2.494130   -5.265730    4.977090
  H      2.139650   -5.656730    3.290370
  H     -6.092080  -10.074390   -0.192630
  H     -4.834230  -14.389880    2.286790
  H     -7.005700  -14.605800    3.665330
  H     -9.532430  -13.916390    3.533350
  H    -10.057610  -13.100870    2.051250
  H     -8.755340  -11.724270    4.450500
  H    -10.471220  -11.663140    4.032370
  H     -9.273540  -10.918910    2.966830
  H     -6.468740  -14.794280   -1.187510
  H     -7.091230  -14.714680   -3.713150
  H     -6.587800  -13.313100   -5.845460
  H     -5.232030  -12.180730   -5.718500
  H     -8.129600  -11.537660   -4.986700
  H     -7.292950  -11.002710   -6.448720
  H     -6.768790  -10.418890   -4.865390
  H     -1.135480  -10.121290    0.591780
  H     -0.497670  -16.698340    0.630930
  H     -1.567300  -19.065890    0.106530
  H     -7.760850  -19.953060    0.838880
  H     -8.569680  -22.105470   -0.028550
  H     -7.009270  -23.801360   -0.866960
  H     -4.558810  -23.355450   -0.874760

----------------------------
CARTESIAN COORDINATES (A.U.)
----------------------------
  NO LB      ZA    FRAG     MASS         X           Y           Z
   0 C     6.0000    0    12.011   -6.945972    1.239037   -1.220385
   1 O     8.0000    0    15.999   -8.811680    2.459497   -0.718077
   2 C     6.0000    0    12.011   -4.299883    2.118704   -1.379538
   3 C     6.0000    0    12.011   -3.319606    4.483337   -0.867082
   4 C     6.0000    0    12.011   -0.731778    4.833428   -1.112614
   5 C     6.0000    0    12.011    0.821124    2.849915   -1.842634
   6 C     6.0000    0    12.011   -0.154428    0.473282   -2.376652
   7 C     6.0000    0    12.011   -2.736569    0.109396   -2.151472
   8 C     6.0000    0    12.011   -4.316512   -2.096443   -2.659865
   9 C     6.0000    0    12.011   -3.685174   -4.055541   -4.228451
  10 C     6.0000    0    12.011   -5.450764   -5.826460   -5.159198
  11 N     7.0000    0    14.007   -6.847801   -7.223195   -6.054985
  12 C     6.0000    0    12.011   -1.247900   -4.457524   -5.219631
  13 N     7.0000    0    14.007    0.704452   -4.924400   -6.043533
  14 C     6.0000    0    12.011   -6.817905   -1.531169   -1.696218
  15 C     6.0000    0    12.011   -8.784619   -3.048752   -1.037875
  16 C     6.0000    0    12.011   -8.753722   -5.694520   -0.642186
  17 C     6.0000    0    12.011  -10.794796   -7.318361   -0.776564
  18 C     6.0000    0    12.011  -10.089796   -9.824913   -0.403910
  19 C     6.0000    0    12.011   -7.500625  -10.144522    0.109264
  20 S    16.0000    0    32.060   -5.952373   -7.291546    0.172759
  21 C     6.0000    0    12.011   -6.826598  -12.670274    0.357574
  22 C     6.0000    0    12.011   -4.430746  -14.193242    0.699501
  23 C     6.0000    0    12.011   -2.725590  -13.662966   -1.518074
  24 C     6.0000    0    12.011   -1.600711  -11.443123   -2.161053
  25 C     6.0000    0    12.011   -0.266300  -11.571776   -4.468787
  26 C     6.0000    0    12.011   -0.408445  -13.870325   -5.600827
  27 C     6.0000    0    12.011    0.793515  -14.723933   -7.998719
  28 C     6.0000    0    12.011    3.022900  -16.491810   -7.485111
  29 S    16.0000    0    32.060   -2.196882  -15.952218   -3.804132
  30 C     6.0000    0    12.011   -3.250310  -13.666726    3.228975
  31 C     6.0000    0    12.011   -3.773613  -14.875319    5.437479
  32 C     6.0000    0    12.011   -2.461954  -13.857494    7.527573
  33 C     6.0000    0    12.011   -0.967729  -11.861679    6.917853
  34 C     6.0000    0    12.011    0.730228  -10.356568    8.585064
  35 C     6.0000    0    12.011    3.504044  -11.057260    8.166905
  36 S    16.0000    0    32.060   -1.140620  -11.208608    3.709797
  37 C     6.0000    0    12.011   -5.479544  -16.862801    0.595509
  38 C     6.0000    0    12.011   -8.119114  -16.844811    0.188519
  39 C     6.0000    0    12.011   -8.883470  -14.256396    0.043426
  40 S    16.0000    0    32.060  -11.691528  -12.691155   -0.537230
  41 C     6.0000    0    12.011   -9.498330  -19.072590   -0.044919
  42 C     6.0000    0    12.011   -8.172064  -21.299519    0.117692
  43 C     6.0000    0    12.011   -9.185430  -23.972348   -0.166050
  44 C     6.0000    0    12.011  -11.094828  -24.631541    1.829274
  45 C     6.0000    0    12.011  -10.844307  -26.201374    3.845630
  46 C     6.0000    0    12.011  -13.086410  -26.416104    5.282540
  47 C     6.0000    0    12.011  -15.030863  -25.015911    4.365437
  48 C     6.0000    0    12.011  -17.626704  -24.715086    5.411684
  49 C     6.0000    0    12.011  -17.889433  -22.224219    6.856871
  50 S    16.0000    0    32.060  -14.117577  -23.368297    1.679853
  51 C     6.0000    0    12.011  -10.267373  -24.436351   -2.751895
  52 C     6.0000    0    12.011  -11.658117  -26.462137   -3.500926
  53 C     6.0000    0    12.011  -12.291724  -26.376023   -6.092250
  54 C     6.0000    0    12.011  -11.361978  -24.311459   -7.303338
  55 C     6.0000    0    12.011  -11.709197  -23.546555   -9.990604
  56 C     6.0000    0    12.011  -13.530439  -21.312331  -10.215009
  57 S    16.0000    0    32.060   -9.669464  -22.400133   -5.241628
  58 C     6.0000    0    12.011   -6.798724  -25.480878    0.154825
  59 C     6.0000    0    12.011   -4.750053  -23.909174    0.568014
  60 C     6.0000    0    12.011   -5.531701  -21.320514    0.538100
  61 C     6.0000    0    12.011   -4.158871  -19.092338    0.797427
  62 S    16.0000    0    32.060   -1.933927  -25.508336    1.012118
  63 C     6.0000    0    12.011   -3.525397  -28.366755    0.660157
  64 C     6.0000    0    12.011   -6.115777  -28.013584    0.180242
  65 S    16.0000    0    32.060   -7.674159  -30.842806   -0.132016
  66 C     6.0000    0    12.011   -4.861812  -32.505500    0.517331
  67 C     6.0000    0    12.011   -2.821663  -30.895624    0.805439
  68 C     6.0000    0    12.011   -4.784749  -35.175513    0.598835
  69 C     6.0000    0    12.011   -6.727482  -36.823033    0.945354
  70 C     6.0000    0    12.011   -9.298568  -36.472470    1.816764
  71 C     6.0000    0    12.011  -10.092252  -34.769166    3.596621
  72 C     6.0000    0    12.011  -12.596196  -34.584445    4.482903
  73 N     7.0000    0    14.007  -14.610625  -34.310510    5.239852
  74 C     6.0000    0    12.011   -8.448928  -33.095322    4.865081
  75 N     7.0000    0    14.007   -7.170377  -31.775802    6.018910
  76 C     6.0000    0    12.011  -10.762293  -38.628761    0.904499
  77 C     6.0000    0    12.011  -13.338046  -39.093142    0.903043
  78 C     6.0000    0    12.011  -14.190010  -41.391994   -0.033070
  79 C     6.0000    0    12.011  -12.523026  -43.203731   -0.937077
  80 C     6.0000    0    12.011   -9.939241  -42.751974   -0.952516
  81 C     6.0000    0    12.011   -9.081230  -40.462003   -0.039363
  82 C     6.0000    0    12.011   -6.464961  -39.495352    0.104029
  83 O     8.0000    0    15.999   -4.526669  -40.580640   -0.431784
  84 H     1.0000    0     1.008   -4.555374    6.001865   -0.296687
  85 H     1.0000    0     1.008    0.084036    6.663571   -0.729037
  86 H     1.0000    0     1.008    2.832019    3.156258   -2.002807
  87 H     1.0000    0     1.008    1.086063   -1.046511   -2.928339
  88 H     1.0000    0     1.008  -10.562397   -2.096179   -0.662878
  89 H     1.0000    0     1.008  -12.673713   -6.700459   -1.236467
  90 H     1.0000    0     1.008   -1.693894   -9.754710   -1.035494
  91 H     1.0000    0     1.008    0.740489   -9.992078   -5.257747
  92 H     1.0000    0     1.008    1.444885  -13.061485   -9.032494
  93 H     1.0000    0     1.008   -0.599081  -15.709180   -9.162772
  94 H     1.0000    0     1.008    4.444693  -15.534172   -6.351162
  95 H     1.0000    0     1.008    3.882707  -17.088340   -9.252968
  96 H     1.0000    0     1.008    2.386705  -18.159834   -6.465452
  97 H     1.0000    0     1.008   -5.051767  -16.449877    5.575221
  98 H     1.0000    0     1.008   -2.637207  -14.586475    9.416808
  99 H     1.0000    0     1.008    0.212027  -10.711308   10.550965
 100 H     1.0000    0     1.008    0.475493   -8.343821    8.200108
 101 H     1.0000    0     1.008    3.804000  -13.051601    8.562840
 102 H     1.0000    0     1.008    4.713223   -9.950788    9.405337
 103 H     1.0000    0     1.008    4.043353  -10.689671    6.217898
 104 H     1.0000    0     1.008  -11.512363  -19.037838   -0.364018
 105 H     1.0000    0     1.008   -9.135371  -27.192932    4.321407
 106 H     1.0000    0     1.008  -13.238854  -27.600962    6.926470
 107 H     1.0000    0     1.008  -18.013682  -26.298166    6.677064
 108 H     1.0000    0     1.008  -19.006128  -24.757056    3.876301
 109 H     1.0000    0     1.008  -16.545195  -22.155659    8.410226
 110 H     1.0000    0     1.008  -19.787738  -22.040140    7.620075
 111 H     1.0000    0     1.008  -17.524451  -20.633750    5.606496
 112 H     1.0000    0     1.008  -12.224147  -27.957138   -2.244069
 113 H     1.0000    0     1.008  -13.400483  -27.806715   -7.016837
 114 H     1.0000    0     1.008  -12.449138  -25.158113  -11.046319
 115 H     1.0000    0     1.008   -9.887104  -23.018244  -10.806399
 116 H     1.0000    0     1.008  -15.362718  -21.803018   -9.423497
 117 H     1.0000    0     1.008  -13.781678  -20.792109  -12.186315
 118 H     1.0000    0     1.008  -12.791159  -19.688849   -9.194255
 119 H     1.0000    0     1.008   -2.145746  -19.126466    1.118302
 120 H     1.0000    0     1.008   -0.940460  -31.555289    1.192285
 121 H     1.0000    0     1.008   -2.961768  -36.029311    0.201313
 122 H     1.0000    0     1.008  -14.665881  -37.705819    1.585253
 123 H     1.0000    0     1.008  -16.194348  -41.773284   -0.053952
 124 H     1.0000    0     1.008  -13.245601  -44.978052   -1.638317
 125 H     1.0000    0     1.008   -8.614902  -44.135404   -1.653057

--------------------------------
INTERNAL COORDINATES (ANGSTROEM)
--------------------------------
 C      0   0   0     0.000000000000     0.00000000     0.00000000
 O      1   0   0     1.209341062645     0.00000000     0.00000000
 C      1   2   0     1.477999770264   128.15327186     0.00000000
 C      3   1   2     1.381450866336   129.03884056     3.82385499
 C      4   3   1     1.387989268294   118.22946658   178.74543283
 C      5   4   3     1.387893385891   120.61609031   359.69960204
 C      6   5   4     1.388549430629   121.43314652     0.74432531
 C      7   6   5     1.385046839388   118.37202041   359.64918265
 C      8   7   6     1.460798680243   131.29109056   177.41285759
 C      9   8   7     1.369446368355   125.23417409   337.81341711
 C     10   9   8     1.411996322198   123.53423006   195.96821645
 N     11  10   9     1.147840465265   176.02223856   120.73791378
 C     10   9   8     1.408479890165   124.29446365    12.06762385
 N     13  10   9     1.148261374122   176.18968169   156.44698866
 C      9   8   7     1.449705591801   107.03304069   170.74776048
 C     15   9   8     1.359937423891   131.83753741   200.48690166
 C     16  15   9     1.415745563652   127.80933827    13.86032370
 C     17  16  15     1.382044691824   126.74428036   202.39889764
 C     18  17  16     1.391916862819   112.07019401   177.11679233
 C     19  18  17     1.406984721808   113.75959947     2.07601391
 S     20  19  18     1.718041362395   111.25572386     0.92074189
 C     20  19  18     1.389570418259   112.57135719   182.78600146
 C     22  20  19     1.513155391525   137.61822278   174.43431925
 C     23  22  20     1.506658614650   108.02698082   300.74293499
 C     24  23  22     1.360147464873   128.15518706    65.13620960
 C     25  24  23     1.412302384760   113.17205353   184.32541036
 C     26  25  24     1.357940332452   113.38676236     1.01215456
 C     27  26  25     1.489541578708   128.59286655   181.53913328
 C     28  27  26     1.529984948325   111.30646045   105.93867544
 S     24  23  22     1.734722438230   120.64267360   251.02964803
 C     23  22  20     1.503169501952   110.85151919    66.58330885
 C     31  23  22     1.360719661098   126.37873315    87.82171573
 C     32  31  23     1.412507664758   113.15964839   183.46254074
 C     33  32  31     1.358218327884   113.36398264     0.72928697
 C     34  33  32     1.489989165665   128.76067863   181.67451959
 C     35  34  33     1.530034093770   111.30593317   104.09639906
 S     31  23  22     1.732950455726   122.51956951   272.45896751
 C     23  22  20     1.518779058915   100.65450388   183.96162200
 C     38  23  22     1.413338284807   111.12508050     1.20836270
 C     22  20  19     1.384503801259   111.71350596   359.83571073
 S     40  22  20     1.728744139137   113.99349706   359.50472051
 C     39  38  23     1.392020946502   121.73509224   178.25308987
 C     42  39  38     1.374296469107   116.92891158   359.47950255
 C     43  42  39     1.520077775971   127.70020311   182.43390504
 C     44  43  42     1.502495694303   112.57231537   297.29887784
 C     45  44  43     1.358742383015   128.91713412   252.52345066
 C     46  45  44     1.413789440546   112.93043326   181.77608489
 C     47  46  45     1.357678673398   113.57255384   359.95131786
 C     48  47  46     1.489567579602   128.63610318   181.94551861
 C     49  48  47     1.530229123563   111.19837030   100.64572356
 S     45  44  43     1.735437051639   119.89358892    74.04442124
 C     44  43  42     1.503505370825   112.09830099    62.23825762
 C     52  44  43     1.359380586664   126.89299026   190.86602211
 C     53  52  44     1.412401296339   112.71616930   182.66685554
 C     54  53  52     1.358819754346   113.44676036     0.69061542
 C     55  54  53     1.489898285824   128.60470717   182.15735740
 C     56  55  54     1.529956924263   111.20517740   106.27360192
 S     52  44  43     1.731181940323   121.42604681    14.74382325
 C     44  43  42     1.503737589641   100.74890518   178.73169915
 C     59  44  43     1.383778825788   110.90278880     0.23464318
 C     43  42  39     1.414863972755   121.39218523     0.84946092
 C     38  23  22     1.375431362082   127.54341017   179.84569567
 S     60  59  44     1.729779549711   113.72658137   178.92794899
 C     63  60  59     1.741243344137    89.64300751   359.60637905
 C     59  44  43     1.388186199686   137.07837103   179.14183713
 S     65  59  44     1.717223467927   135.70781935   359.55549271
 C     66  65  59     1.762684559670    90.62896998   184.86699005
 C     67  66  65     1.383665732646   111.89532310   356.60476796
 C     67  66  65     1.414156240802   121.93869996   179.24969259
 C     69  67  66     1.360367196128   128.50860562   339.31609859
 C     70  69  67     1.448509009499   132.11840172   345.88386821
 C     71  70  69     1.369646699737   126.24421222   325.63878312
 C     72  71  70     1.408978553208   124.25895725   183.47872469
 N     73  72  71     1.147953132885   176.54480329   202.87311555
 C     72  71  70     1.411153948831   123.44966306   359.48730362
 N     75  72  71     1.148100805853   176.26034400   229.67723526
 C     71  70  69     1.461172190743   107.02121874   158.56847111
 C     77  71  70     1.385005242373   131.33287095   189.49664065
 C     78  77  71     1.388711774451   118.36714890   182.17553350
 C     79  78  77     1.387863096346   121.44901657     0.38167247
 C     80  79  78     1.388045759656   120.60714580   359.35852751
 C     81  80  79     1.381344681823   118.21662690     0.19684841
 C     82  81  80     1.477896442989   129.01429497   181.43950621
 O     83  82  81     1.209250758817   128.18254611   355.67107871
 H      4   3   1     1.079105951286   120.12333863   358.61716724
 H      5   4   3     1.079587210650   119.77993219   179.82863594
 H      6   5   4     1.079729264260   119.46128290   180.66513177
 H      7   6   5     1.078399005378   120.28202414   180.42879357
 H     16  15   9     1.085589451681   115.83712970   189.85526755
 H     18  17  16     1.074587174547   123.06376222     0.81106121
 H     25  24  23     1.074934091654   123.99809775     4.74408940
 H     26  25  24     1.075614153170   123.08068950   180.23608324
 H     28  27  26     1.091787420472   108.49976617   345.05074407
 H     28  27  26     1.092856889945   109.68792964   226.86245400
 H     29  28  27     1.087636596295   110.27410557   300.36705591
 H     29  28  27     1.087125755881   110.32828400   180.28378325
 H     29  28  27     1.087938653785   110.21785723    60.22305780
 H     32  31  23     1.075660214659   123.38392465     3.65796128
 H     33  32  31     1.075588933004   123.27650992   180.44733482
 H     35  34  33     1.092099035299   108.70749033   343.16830555
 H     35  34  33     1.092751945365   109.64849862   224.93421690
 H     36  35  34     1.087602212622   110.32275956   300.45437926
 H     36  35  34     1.087083671941   110.30207696   180.35159986
 H     36  35  34     1.087662428973   110.21359934    60.29842931
 H     42  39  38     1.079230698275   121.14655331   180.28400340
 H     46  45  44     1.075416880052   124.34666177     1.64359288
 H     47  46  45     1.075367311108   123.01787723   179.00804800
 H     49  48  47     1.091835131052   108.59725177   339.82922646
 H     49  48  47     1.092462761745   109.72962256   221.53640232
 H     50  49  48     1.087660256698   110.30466406   300.52590475
 H     50  49  48     1.087060392343   110.29306988   180.44159031
 H     50  49  48     1.087873217843   110.26187434    60.37626414
 H     53  52  44     1.076079497667   123.38357878     3.16496732
 H     54  53  52     1.075556829693   123.26007346   180.62576246
 H     56  55  54     1.092102590968   108.68207738   345.35861126
 H     56  55  54     1.092806112263   109.73902368   227.09506109
 H     57  56  55     1.087650126695   110.31491474   300.82861435
 H     57  56  55     1.087043667706   110.31780177   180.69251065
 H     57  56  55     1.087606584110   110.19912058    60.66281827
 H     62  38  23     1.078898648437   121.89000770     1.83108491
 H     68  67  66     1.074599167411   122.94213392   180.59668247
 H     69  67  66     1.085813569679   115.81375933   154.52943326
 H     78  77  71     1.078434437182   121.34885575     2.97372020
 H     79  78  77     1.079727585042   119.09494605   180.32487872
 H     80  79  78     1.079581737619   119.61401763   179.50730228
 H     81  80  79     1.079120793331   121.66104834   180.18528177

---------------------------
INTERNAL COORDINATES (A.U.)
---------------------------
 C      0   0   0     0.000000000000     0.00000000     0.00000000
 O      1   0   0     2.285323410905     0.00000000     0.00000000
 C      1   2   0     2.793014791797   128.15327186     0.00000000
 C      3   1   2     2.610563804843   129.03884056     3.82385499
 C      4   3   1     2.622919593898   118.22946658   178.74543283
 C      5   4   3     2.622738402415   120.61609031   359.69960204
 C      6   5   4     2.623978147301   121.43314652     0.74432531
 C      7   6   5     2.617359209097   118.37202041   359.64918265
 C      8   7   6     2.760509442453   131.29109056   177.41285759
 C      9   8   7     2.587878591284   125.23417409   337.81341711
 C     10   9   8     2.668286351058   123.53423006   195.96821645
 N     11  10   9     2.169104124784   176.02223856   120.73791378
 C     10   9   8     2.661641257548   124.29446365    12.06762385
 N     13  10   9     2.169899527250   176.18968169   156.44698866
 C      9   8   7     2.739546543319   107.03304069   170.74776048
 C     15   9   8     2.569909290425   131.83753741   200.48690166
 C     16  15   9     2.675371390616   127.80933827    13.86032370
 C     17  16  15     2.611685972388   126.74428036   202.39889764
 C     18  17  16     2.630341671915   112.07019401   177.11679233
 C     19  18  17     2.658815798828   113.75959947     2.07601391
 S     20  19  18     3.246627661675   111.25572386     0.92074189
 C     20  19  18     2.625907534308   112.57135719   182.78600146
 C     22  20  19     2.859449288048   137.61822278   174.43431925
 C     23  22  20     2.847172159002   108.02698082   300.74293499
 C     24  23  22     2.570306210357   128.15518706    65.13620960
 C     25  24  23     2.668864725481   113.17205353   184.32541036
 C     26  25  24     2.566135334540   113.38676236     1.01215456
 C     27  26  25     2.814825648847   128.59286655   181.53913328
 C     28  27  26     2.891252541355   111.30646045   105.93867544
 S     24  23  22     3.278150326624   120.64267360   251.02964803
 C     23  22  20     2.840578691553   110.85151919    66.58330885
 C     31  23  22     2.571387504518   126.37873315    87.82171573
 C     32  31  23     2.669252648457   113.15964839   183.46254074
 C     33  32  31     2.566660669773   113.36398264     0.72928697
 C     34  33  32     2.815671465617   128.76067863   181.67451959
 C     35  34  33     2.891345412789   111.30593317   104.09639906
 S     31  23  22     3.274801764976   122.51956951   272.45896751
 C     23  22  20     2.870076479285   100.65450388   183.96162200
 C     38  23  22     2.670822292870   111.12508050     1.20836270
 C     22  20  19     2.616333015752   111.71350596   359.83571073
 S     40  22  20     3.266852978590   113.99349706   359.50472051
 C     39  38  23     2.630538361570   121.73509224   178.25308987
 C     42  39  38     2.597043953427   116.92891158   359.47950255
 C     43  42  39     2.872530698845   127.70020311   182.43390504
 C     44  43  42     2.839305379629   112.57231537   297.29887784
 C     45  44  43     2.567650990449   128.91713412   252.52345066
 C     46  45  44     2.671674853662   112.93043326   181.77608489
 C     47  46  45     2.565640870588   113.57255384   359.95131786
 C     48  47  46     2.814874783415   128.63610318   181.94551861
 C     49  48  47     2.891713965684   111.19837030   100.64572356
 S     45  44  43     3.279500750257   119.89358892    74.04442124
 C     44  43  42     2.841213391739   112.09830099    62.23825762
 C     52  44  43     2.568857020565   126.89299026   190.86602211
 C     53  52  44     2.669051641276   112.71616930   182.66685554
 C     54  53  52     2.567797201075   113.44676036     0.69061542
 C     55  54  53     2.815499727605   128.60470717   182.15735740
 C     56  55  54     2.891199583553   111.20517740   106.27360192
 S     52  44  43     3.271459755201   121.42604681    14.74382325
 C     44  43  42     2.841652221705   100.74890518   178.73169915
 C     59  44  43     2.614963010659   110.90278880     0.23464318
 C     43  42  39     2.673705425259   121.39218523     0.84946092
 C     38  23  22     2.599188590342   127.54341017   179.84569567
 S     60  59  44     3.268809621012   113.72658137   178.92794899
 C     63  60  59     3.290473052931    89.64300751   359.60637905
 C     59  44  43     2.623291740296   137.07837103   179.14183713
 S     65  59  44     3.245082065125   135.70781935   359.55549271
 C     66  65  59     3.330991078268    90.62896998   184.86699005
 C     67  66  65     2.614749295593   111.89532310   356.60476796
 C     67  66  65     2.672368005692   121.93869996   179.24969259
 C     69  67  66     2.570721442251   128.50860562   339.31609859
 C     70  69  67     2.737285330471   132.11840172   345.88386821
 C     71  70  69     2.588257162732   126.24421222   325.63878312
 C     72  71  70     2.662583594132   124.25895725   183.47872469
 N     73  72  71     2.169317035729   176.54480329   202.87311555
 C     72  71  70     2.666694496091   123.44966306   359.48730362
 N     75  72  71     2.169596097196   176.26034400   229.67723526
 C     71  70  69     2.761215275006   107.02121874   158.56847111
 C     77  71  70     2.617280602130   131.33287095   189.49664065
 C     78  77  71     2.624284932665   118.36714890   182.17553350
 C     79  78  77     2.622681163471   121.44901657     0.38167247
 C     80  79  78     2.623026347101   120.60714580   359.35852751
 C     81  80  79     2.610363145194   118.21662690     0.19684841
 C     82  81  80     2.792819531546   129.01429497   181.43950621
 O     83  82  81     2.285152761401   128.18254611   355.67107871
 H      4   3   1     2.039214717414   120.12333863   358.61716724
 H      5   4   3     2.040124165813   119.77993219   179.82863594
 H      6   5   4     2.040392608232   119.46128290   180.66513177
 H      7   6   5     2.037878783257   120.28202414   180.42879357
 H     16  15   9     2.051466757550   115.83712970   189.85526755
 H     18  17  16     2.030675466917   123.06376222     0.81106121
 H     25  24  23     2.031331045241   123.99809775     4.74408940
 H     26  25  24     2.032616175261   123.08068950   180.23608324
 H     28  27  26     2.063179221152   108.49976617   345.05074407
 H     28  27  26     2.065200225565   109.68792964   226.86245400
 H     29  28  27     2.055335300228   110.27410557   300.36705591
 H     29  28  27     2.054369951747   110.32828400   180.28378325
 H     29  28  27     2.055906106161   110.21785723    60.22305780
 H     32  31  23     2.032703218860   123.38392465     3.65796128
 H     33  32  31     2.032568516054   123.27650992   180.44733482
 H     35  34  33     2.063768087834   108.70749033   343.16830555
 H     35  34  33     2.065001909050   109.64849862   224.93421690
 H     36  35  34     2.055270324502   110.32275956   300.45437926
 H     36  35  34     2.054290424625   110.30207696   180.35159986
 H     36  35  34     2.055384116915   110.21359934    60.29842931
 H     42  39  38     2.039450455061   121.14655331   180.28400340
 H     46  45  44     2.032243383094   124.34666177     1.64359288
 H     47  46  45     2.032149711366   123.01787723   179.00804800
 H     49  48  47     2.063269381083   108.59725177   339.82922646
 H     49  48  47     2.064455431206   109.72962256   221.53640232
 H     50  49  48     2.055380011909   110.30466406   300.52590475
 H     50  49  48     2.054246432560   110.29306988   180.44159031
 H     50  49  48     2.055782450151   110.26187434    60.37626414
 H     53  52  44     2.033495548919   123.38357878     3.16496732
 H     54  53  52     2.032507849589   123.26007346   180.62576246
 H     56  55  54     2.063774807076   108.68207738   345.35861126
 H     56  55  54     2.065104269653   109.73902368   227.09506109
 H     57  56  55     2.055360868979   110.31491474   300.82861435
 H     57  56  55     2.054214827578   110.31780177   180.69251065
 H     57  56  55     2.055278585418   110.19912058    60.66281827
 H     62  38  23     2.038822971804   121.89000770     1.83108491
 H     68  67  66     2.030698130146   122.94213392   180.59668247
 H     69  67  66     2.051890279190   115.81375933   154.52943326
 H     78  77  71     2.037945739663   121.34885575     2.97372020
 H     79  78  77     2.040389434969   119.09494605   180.32487872
 H     80  79  78     2.040113823282   119.61401763   179.50730228
 H     81  80  79     2.039242764816   121.66104834   180.18528177

---------------------
BASIS SET INFORMATION
---------------------
There are 5 groups of distinct atoms

 Group   1 Type C   : 7s4p1d contracted to 3s2p1d pattern {511/31/1}
 Group   2 Type O   : 7s4p1d contracted to 3s2p1d pattern {511/31/1}
 Group   3 Type N   : 7s4p1d contracted to 3s2p1d pattern {511/31/1}
 Group   4 Type S   : 10s7p1d contracted to 4s3p1d pattern {5311/511/1}
 Group   5 Type H   : 4s1p contracted to 2s1p pattern {31/1}

Atom   0C    basis set group =>   1
Atom   1O    basis set group =>   2
Atom   2C    basis set group =>   1
Atom   3C    basis set group =>   1
Atom   4C    basis set group =>   1
Atom   5C    basis set group =>   1
Atom   6C    basis set group =>   1
Atom   7C    basis set group =>   1
Atom   8C    basis set group =>   1
Atom   9C    basis set group =>   1
Atom  10C    basis set group =>   1
Atom  11N    basis set group =>   3
Atom  12C    basis set group =>   1
Atom  13N    basis set group =>   3
Atom  14C    basis set group =>   1
Atom  15C    basis set group =>   1
Atom  16C    basis set group =>   1
Atom  17C    basis set group =>   1
Atom  18C    basis set group =>   1
Atom  19C    basis set group =>   1
Atom  20S    basis set group =>   4
Atom  21C    basis set group =>   1
Atom  22C    basis set group =>   1
Atom  23C    basis set group =>   1
Atom  24C    basis set group =>   1
Atom  25C    basis set group =>   1
Atom  26C    basis set group =>   1
Atom  27C    basis set group =>   1
Atom  28C    basis set group =>   1
Atom  29S    basis set group =>   4
Atom  30C    basis set group =>   1
Atom  31C    basis set group =>   1
Atom  32C    basis set group =>   1
Atom  33C    basis set group =>   1
Atom  34C    basis set group =>   1
Atom  35C    basis set group =>   1
Atom  36S    basis set group =>   4
Atom  37C    basis set group =>   1
Atom  38C    basis set group =>   1
Atom  39C    basis set group =>   1
Atom  40S    basis set group =>   4
Atom  41C    basis set group =>   1
Atom  42C    basis set group =>   1
Atom  43C    basis set group =>   1
Atom  44C    basis set group =>   1
Atom  45C    basis set group =>   1
Atom  46C    basis set group =>   1
Atom  47C    basis set group =>   1
Atom  48C    basis set group =>   1
Atom  49C    basis set group =>   1
Atom  50S    basis set group =>   4
Atom  51C    basis set group =>   1
Atom  52C    basis set group =>   1
Atom  53C    basis set group =>   1
Atom  54C    basis set group =>   1
Atom  55C    basis set group =>   1
Atom  56C    basis set group =>   1
Atom  57S    basis set group =>   4
Atom  58C    basis set group =>   1
Atom  59C    basis set group =>   1
Atom  60C    basis set group =>   1
Atom  61C    basis set group =>   1
Atom  62S    basis set group =>   4
Atom  63C    basis set group =>   1
Atom  64C    basis set group =>   1
Atom  65S    basis set group =>   4
Atom  66C    basis set group =>   1
Atom  67C    basis set group =>   1
Atom  68C    basis set group =>   1
Atom  69C    basis set group =>   1
Atom  70C    basis set group =>   1
Atom  71C    basis set group =>   1
Atom  72C    basis set group =>   1
Atom  73N    basis set group =>   3
Atom  74C    basis set group =>   1
Atom  75N    basis set group =>   3
Atom  76C    basis set group =>   1
Atom  77C    basis set group =>   1
Atom  78C    basis set group =>   1
Atom  79C    basis set group =>   1
Atom  80C    basis set group =>   1
Atom  81C    basis set group =>   1
Atom  82C    basis set group =>   1
Atom  83O    basis set group =>   2
Atom  84H    basis set group =>   5
Atom  85H    basis set group =>   5
Atom  86H    basis set group =>   5
Atom  87H    basis set group =>   5
Atom  88H    basis set group =>   5
Atom  89H    basis set group =>   5
Atom  90H    basis set group =>   5
Atom  91H    basis set group =>   5
Atom  92H    basis set group =>   5
Atom  93H    basis set group =>   5
Atom  94H    basis set group =>   5
Atom  95H    basis set group =>   5
Atom  96H    basis set group =>   5
Atom  97H    basis set group =>   5
Atom  98H    basis set group =>   5
Atom  99H    basis set group =>   5
Atom 100H    basis set group =>   5
Atom 101H    basis set group =>   5
Atom 102H    basis set group =>   5
Atom 103H    basis set group =>   5
Atom 104H    basis set group =>   5
Atom 105H    basis set group =>   5
Atom 106H    basis set group =>   5
Atom 107H    basis set group =>   5
Atom 108H    basis set group =>   5
Atom 109H    basis set group =>   5
Atom 110H    basis set group =>   5
Atom 111H    basis set group =>   5
Atom 112H    basis set group =>   5
Atom 113H    basis set group =>   5
Atom 114H    basis set group =>   5
Atom 115H    basis set group =>   5
Atom 116H    basis set group =>   5
Atom 117H    basis set group =>   5
Atom 118H    basis set group =>   5
Atom 119H    basis set group =>   5
Atom 120H    basis set group =>   5
Atom 121H    basis set group =>   5
Atom 122H    basis set group =>   5
Atom 123H    basis set group =>   5
Atom 124H    basis set group =>   5
Atom 125H    basis set group =>   5
------------------------------------------------------------------------------
                           ORCA GTO INTEGRAL CALCULATION
------------------------------------------------------------------------------

                         BASIS SET STATISTICS AND STARTUP INFO

 # of primitive gaussian shells          ... 1266
 # of primitive gaussian functions       ... 2406
 # of contracted shells                  ...  646
 # of contracted basis functions         ... 1418
 Highest angular momentum                ...    2
 Maximum contraction depth               ...    5
 Integral package used                   ... LIBINT
 Integral threshhold            Thresh   ...  2.500e-11
 Primitive cut-off              TCut     ...  2.500e-12


------------------------------ INTEGRAL EVALUATION ----------------------------


 * One electron integrals 
 Pre-screening matrix                    ... done
 Shell pair data                         ... done (   0.026 sec)

-------------------------------------------------------------------------------
                                 ORCA SCF
-------------------------------------------------------------------------------

------------
SCF SETTINGS
------------
Hamiltonian:
 Ab initio Hamiltonian  Method          .... Hartree-Fock(GTOs)


General Settings:
 Integral files         IntName         .... ITIC-Th
 Hartree-Fock type      HFTyp           .... RHF
 Total Charge           Charge          ....    0
 Multiplicity           Mult            ....    1
 Number of Electrons    NEL             ....  634
 Basis Dimension        Dim             .... 1418
 Nuclear Repulsion      ENuc            ....  16071.6652526036 Eh

Convergence Acceleration:
 DIIS                   CNVDIIS         .... on
   Start iteration      DIISMaxIt       ....    12
   Startup error        DIISStart       ....  0.200000
   # of expansion vecs  DIISMaxEq       ....     5
   Bias factor          DIISBfac        ....   1.050
   Max. coefficient     DIISMaxC        ....  10.000
 Newton-Raphson         CNVNR           .... off
 SOSCF                  CNVSOSCF        .... on
   Start iteration      SOSCFMaxIt      ....   150
   Startup grad/error   SOSCFStart      ....  0.003300
 Level Shifting         CNVShift        .... on
   Level shift para.    LevelShift      ....    0.2500
   Turn off err/grad.   ShiftErr        ....    0.0010
 Zerner damping         CNVZerner       .... off
 Static damping         CNVDamp         .... on
   Fraction old density DampFac         ....    0.7000
   Max. Damping (<1)    DampMax         ....    0.9800
   Min. Damping (>=0)   DampMin         ....    0.0000
   Turn off err/grad.   DampErr         ....    0.1000
 Fernandez-Rico         CNVRico         .... off

SCF Procedure:
 Maximum # iterations   MaxIter         ....   125
 SCF integral mode      SCFMode         .... Direct
   Integral package                     .... LIBINT
 Reset frequency        DirectResetFreq ....    20
 Integral Threshold     Thresh          ....  2.500e-11 Eh
 Primitive CutOff       TCut            ....  2.500e-12 Eh

Convergence Tolerance:
 Convergence Check Mode ConvCheckMode   .... Total+1el-Energy
 Convergence forced     ConvForced      .... 1
 Energy Change          TolE            ....  1.000e-08 Eh
 1-El. energy change                    ....  1.000e-05 Eh
 Orbital Gradient       TolG            ....  1.000e-05
 Orbital Rotation angle TolX            ....  1.000e-05
 DIIS Error             TolErr          ....  5.000e-07


Diagonalization of the overlap matrix:
Smallest eigenvalue                        ... 1.813e-04
Time for diagonalization                   ...    0.804 sec
Threshold for overlap eigenvalues          ... 1.000e-08
Number of eigenvalues below threshold      ... 0
Time for construction of square roots      ...    0.274 sec
Total time needed                          ...    1.089 sec

-------------------
DFT GRID GENERATION
-------------------

General Integration Accuracy     IntAcc      ...  4.340
Radial Grid Type                 RadialGrid  ... Gauss-Chebyshev
Angular Grid (max. acc.)         AngularGrid ... Lebedev-110
Angular grid pruning method      GridPruning ... 3 (G Style)
Weight generation scheme         WeightScheme... Becke
Basis function cutoff            BFCut       ...    1.0000e-11
Integration weight cutoff        WCut        ...    1.0000e-14
Grids for H and He will be reduced by one unit

# of grid points (after initial pruning)     ... 173956 (   0.4 sec)
# of grid points (after weights+screening)   ... 150363 (  10.6 sec)
nearest neighbour list constructed           ...    0.0 sec
Grid point re-assignment to atoms done       ...    0.0 sec
Grid point division into batches done        ...    0.1 sec
Reduced shell lists constructed in    3.2 sec

Total number of grid points                  ...   150363
Total number of batches                      ...     2404
Average number of points per batch           ...       62
Average number of grid points per atom       ...     1193
Average number of shells per batch           ...   124.88 (19.33%)
Average number of basis functions per batch  ...   256.38 (18.08%)
Average number of large shells per batch     ...    68.92 (55.19%)
Average number of large basis fcns per batch ...   145.39 (56.71%)
Maximum spatial batch extension              ...  25.02, 20.40, 23.79 au
Average spatial batch extension              ...   3.14,  3.08,  3.41 au

Time for grid setup =   14.151 sec

------------------------------
INITIAL GUESS: MODEL POTENTIAL
------------------------------
Loading Hartree-Fock densities                     ... done
Calculating cut-offs                               ... done
Setting up the integral package                    ... done
Initializing the effective Hamiltonian             ... done
Starting the Coulomb interaction                   ... done (  15.3 sec)
Reading the grid                                   ... done
Mapping shells                                     ... done
Starting the XC term evaluation                    ... done (   3.0 sec)
Transforming the Hamiltonian                       ... done (   0.3 sec)
Diagonalizing the Hamiltonian                      ... done (   0.7 sec)
Back transforming the eigenvectors                 ... done (   0.1 sec)
Now organizing SCF variables                       ... done
                      ------------------
                      INITIAL GUESS DONE (  33.8 sec)
                      ------------------
--------------
SCF ITERATIONS
--------------
ITER       Energy         Delta-E        Max-DP      RMS-DP      [F,P]     Damp
               ***  Starting incremental Fock matrix formation  ***
  0  -6216.6039865201   0.000000000000 0.31188529  0.00133282  0.2414400 0.7000
  1  -6217.6096808157  -1.005694295665 0.23661920  0.00103161  0.1485124 0.7000
                               ***Turning on DIIS***
  2  -6218.2081451227  -0.598464306946 0.57362343  0.00239678  0.0856193 0.0000
  3  -6214.8789973175   3.329147805227 0.05259643  0.00054927  0.0480136 0.0000
  4  -6219.6628655884  -4.783868270923 0.02561616  0.00021115  0.0142757 0.0000
  5  -6219.7656950962  -0.102829507792 0.00957803  0.00010486  0.0080197 0.0000
  6  -6219.4004140595   0.365281036644 0.00496174  0.00006395  0.0027169 0.0000
  7  -6219.4938962430  -0.093482183500 0.00302712  0.00003755  0.0016729 0.0000
                      *** Initiating the SOSCF procedure ***
                           *** Shutting down DIIS ***
                      *** Re-Reading the Fockian *** 
                      *** Removing any level shift *** 
ITER      Energy       Delta-E        Grad      Rot      Max-DP    RMS-DP
  8  -6219.47439874   0.0194974997  0.003234  0.003234  0.002396  0.000028
               *** Restarting incremental Fock matrix formation ***
  9  -6219.48840984  -0.0140110957  0.001644  0.006656  0.001229  0.000015
 10  -6219.48849586  -0.0000860222  0.000644  0.007466  0.001955  0.000022
 11  -6219.48853209  -0.0000362244  0.000261  0.000827  0.000514  0.000005
 12  -6219.48853829  -0.0000062062  0.000102  0.000548  0.000150  0.000002
 13  -6219.48853947  -0.0000011818  0.000041  0.000226  0.000124  0.000001
 14  -6219.48853977  -0.0000002957  0.000030  0.000226  0.000101  0.000001
 15  -6219.48853990  -0.0000001278  0.000020  0.000117  0.000056  0.000000
 16  -6219.48853992  -0.0000000207  0.000004  0.000020  0.000025  0.000000
                  ***Gradient check signals convergence***
              ***Rediagonalizing the Fockian in SOSCF/NRSCF***

               *****************************************************
               *                     SUCCESS                       *
               *           SCF CONVERGED AFTER  17 CYCLES          *
               *****************************************************


----------------
TOTAL SCF ENERGY
----------------

Total Energy       :        -6219.48853991 Eh         -169240.88721 eV

Components:
Nuclear Repulsion  :        16071.66525260 Eh          437332.24507 eV
Electronic Energy  :       -22291.15379251 Eh         -606573.13228 eV
One Electron Energy:       -40578.35332929 Eh        -1104193.13018 eV
Two Electron Energy:        18287.19953678 Eh          497619.99791 eV

Virial components:
Potential Energy   :       -12427.13460905 Eh         -338159.52441 eV
Kinetic Energy     :         6207.64606914 Eh          168918.63720 eV
Virial Ratio       :            2.00190772


---------------
SCF CONVERGENCE
---------------

  Last Energy change         ...    1.1572e-08  Tolerance :   1.0000e-08
  Last MAX-Density change    ...    5.5809e-06  Tolerance :   1.0000e-07
  Last RMS-Density change    ...    6.9822e-08  Tolerance :   5.0000e-09
  Last Orbital Gradient      ...    1.6674e-06  Tolerance :   1.0000e-05
  Last Orbital Rotation      ...    7.6608e-06  Tolerance :   1.0000e-05

             **** THE GBW FILE WAS UPDATED (ITIC-Th.gbw) ****
             **** DENSITY FILE WAS UPDATED (ITIC-Th.scfp) ****
             **** ENERGY FILE WAS UPDATED (ITIC-Th.en.tmp) ****
             **** THE GBW FILE WAS UPDATED (ITIC-Th.gbw) ****
             **** DENSITY FILE WAS UPDATED (ITIC-Th.scfp) ****
----------------
ORBITAL ENERGIES
----------------

  NO   OCC          E(Eh)            E(eV) 
   0   2.0000     -91.976201     -2502.7997 
   1   2.0000     -91.971795     -2502.6798 
   2   2.0000     -91.971498     -2502.6717 
   3   2.0000     -91.968244     -2502.5831 
   4   2.0000     -91.945891     -2501.9749 
   5   2.0000     -91.943869     -2501.9199 
   6   2.0000     -91.939896     -2501.8118 
   7   2.0000     -91.938957     -2501.7862 
   8   2.0000     -20.557274      -559.3919 
   9   2.0000     -20.556634      -559.3744 
  10   2.0000     -15.586804      -424.1385 
  11   2.0000     -15.585508      -424.1032 
  12   2.0000     -15.581849      -424.0037 
  13   2.0000     -15.576440      -423.8565 
  14   2.0000     -11.355077      -308.9874 
  15   2.0000     -11.354318      -308.9667 
  16   2.0000     -11.333760      -308.4073 
  17   2.0000     -11.332054      -308.3609 
  18   2.0000     -11.315689      -307.9156 
  19   2.0000     -11.314439      -307.8815 
  20   2.0000     -11.311578      -307.8037 
  21   2.0000     -11.310262      -307.7679 
  22   2.0000     -11.299111      -307.4644 
  23   2.0000     -11.298305      -307.4425 
  24   2.0000     -11.296093      -307.3823 
  25   2.0000     -11.295625      -307.3696 
  26   2.0000     -11.295469      -307.3653 
  27   2.0000     -11.293776      -307.3193 
  28   2.0000     -11.292871      -307.2946 
  29   2.0000     -11.292119      -307.2742 
  30   2.0000     -11.291232      -307.2500 
  31   2.0000     -11.290888      -307.2407 
  32   2.0000     -11.290143      -307.2204 
  33   2.0000     -11.290026      -307.2172 
  34   2.0000     -11.287426      -307.1465 
  35   2.0000     -11.286813      -307.1298 
  36   2.0000     -11.286659      -307.1256 
  37   2.0000     -11.286127      -307.1111 
  38   2.0000     -11.285478      -307.0935 
  39   2.0000     -11.283622      -307.0430 
  40   2.0000     -11.274575      -306.7968 
  41   2.0000     -11.274246      -306.7878 
  42   2.0000     -11.274015      -306.7815 
  43   2.0000     -11.273719      -306.7735 
  44   2.0000     -11.273180      -306.7588 
  45   2.0000     -11.272706      -306.7459 
  46   2.0000     -11.271956      -306.7255 
  47   2.0000     -11.271360      -306.7093 
  48   2.0000     -11.271358      -306.7093 
  49   2.0000     -11.271083      -306.7018 
  50   2.0000     -11.271006      -306.6997 
  51   2.0000     -11.270595      -306.6885 
  52   2.0000     -11.269881      -306.6690 
  53   2.0000     -11.268577      -306.6336 
  54   2.0000     -11.268050      -306.6192 
  55   2.0000     -11.267685      -306.6093 
  56   2.0000     -11.267090      -306.5931 
  57   2.0000     -11.266886      -306.5876 
  58   2.0000     -11.266038      -306.5645 
  59   2.0000     -11.265667      -306.5544 
  60   2.0000     -11.265509      -306.5501 
  61   2.0000     -11.264863      -306.5325 
  62   2.0000     -11.264431      -306.5208 
  63   2.0000     -11.262581      -306.4704 
  64   2.0000     -11.262060      -306.4562 
  65   2.0000     -11.261053      -306.4288 
  66   2.0000     -11.261041      -306.4285 
  67   2.0000     -11.254054      -306.2384 
  68   2.0000     -11.243704      -305.9567 
  69   2.0000     -11.240755      -305.8765 
  70   2.0000     -11.238166      -305.8060 
  71   2.0000     -11.237376      -305.7845 
  72   2.0000     -11.236424      -305.7587 
  73   2.0000     -11.234190      -305.6979 
  74   2.0000     -11.233825      -305.6879 
  75   2.0000     -11.232904      -305.6629 
  76   2.0000     -11.232152      -305.6424 
  77   2.0000     -11.231519      -305.6252 
  78   2.0000     -11.226399      -305.4859 
  79   2.0000     -11.225925      -305.4730 
  80   2.0000     -11.223450      -305.4056 
  81   2.0000     -11.222625      -305.3831 
  82   2.0000     -11.222224      -305.3723 
  83   2.0000     -11.219157      -305.2888 
  84   2.0000      -9.011173      -245.2065 
  85   2.0000      -9.006876      -245.0896 
  86   2.0000      -9.006671      -245.0840 
  87   2.0000      -9.003483      -244.9972 
  88   2.0000      -8.982171      -244.4173 
  89   2.0000      -8.979899      -244.3555 
  90   2.0000      -8.976293      -244.2573 
  91   2.0000      -8.974840      -244.2178 
  92   2.0000      -6.698718      -182.2814 
  93   2.0000      -6.697882      -182.2586 
  94   2.0000      -6.695747      -182.2005 
  95   2.0000      -6.694434      -182.1648 
  96   2.0000      -6.694200      -182.1584 
  97   2.0000      -6.693596      -182.1420 
  98   2.0000      -6.693154      -182.1300 
  99   2.0000      -6.691449      -182.0836 
 100   2.0000      -6.691155      -182.0756 
 101   2.0000      -6.691027      -182.0721 
 102   2.0000      -6.689981      -182.0436 
 103   2.0000      -6.687959      -181.9886 
 104   2.0000      -6.669712      -181.4921 
 105   2.0000      -6.668649      -181.4632 
 106   2.0000      -6.667412      -181.4295 
 107   2.0000      -6.666821      -181.4134 
 108   2.0000      -6.666332      -181.4001 
 109   2.0000      -6.664541      -181.3514 
 110   2.0000      -6.663901      -181.3340 
 111   2.0000      -6.662842      -181.3051 
 112   2.0000      -6.662349      -181.2917 
 113   2.0000      -6.661262      -181.2622 
 114   2.0000      -6.661002      -181.2551 
 115   2.0000      -6.659467      -181.2133 
 116   2.0000      -1.389510       -37.8105 
 117   2.0000      -1.388716       -37.7889 
 118   2.0000      -1.250511       -34.0281 
 119   2.0000      -1.246098       -33.9080 
 120   2.0000      -1.244197       -33.8563 
 121   2.0000      -1.240331       -33.7511 
 122   2.0000      -1.221186       -33.2302 
 123   2.0000      -1.220424       -33.2094 
 124   2.0000      -1.218091       -33.1460 
 125   2.0000      -1.214508       -33.0484 
 126   2.0000      -1.209756       -32.9191 
 127   2.0000      -1.199896       -32.6508 
 128   2.0000      -1.179185       -32.0873 
 129   2.0000      -1.173031       -31.9198 
 130   2.0000      -1.169910       -31.8349 
 131   2.0000      -1.168002       -31.7830 
 132   2.0000      -1.159947       -31.5638 
 133   2.0000      -1.154692       -31.4208 
 134   2.0000      -1.138164       -30.9710 
 135   2.0000      -1.119288       -30.4574 
 136   2.0000      -1.098368       -29.8881 
 137   2.0000      -1.096043       -29.8248 
 138   2.0000      -1.093845       -29.7650 
 139   2.0000      -1.080901       -29.4128 
 140   2.0000      -1.070295       -29.1242 
 141   2.0000      -1.057015       -28.7629 
 142   2.0000      -1.055162       -28.7124 
 143   2.0000      -1.053684       -28.6722 
 144   2.0000      -1.049886       -28.5689 
 145   2.0000      -1.049032       -28.5456 
 146   2.0000      -1.048747       -28.5379 
 147   2.0000      -1.047777       -28.5115 
 148   2.0000      -1.041718       -28.3466 
 149   2.0000      -1.027037       -27.9471 
 150   2.0000      -1.003739       -27.3131 
 151   2.0000      -1.002617       -27.2826 
 152   2.0000      -0.983387       -26.7593 
 153   2.0000      -0.981754       -26.7149 
 154   2.0000      -0.979608       -26.6565 
 155   2.0000      -0.977039       -26.5866 
 156   2.0000      -0.974995       -26.5310 
 157   2.0000      -0.967444       -26.3255 
 158   2.0000      -0.963625       -26.2216 
 159   2.0000      -0.955603       -26.0033 
 160   2.0000      -0.954751       -25.9801 
 161   2.0000      -0.948901       -25.8209 
 162   2.0000      -0.930724       -25.3263 
 163   2.0000      -0.925843       -25.1935 
 164   2.0000      -0.919584       -25.0232 
 165   2.0000      -0.911314       -24.7981 
 166   2.0000      -0.903412       -24.5831 
 167   2.0000      -0.881801       -23.9950 
 168   2.0000      -0.854463       -23.2511 
 169   2.0000      -0.854159       -23.2429 
 170   2.0000      -0.852608       -23.2006 
 171   2.0000      -0.850803       -23.1515 
 172   2.0000      -0.845968       -23.0199 
 173   2.0000      -0.839228       -22.8365 
 174   2.0000      -0.836496       -22.7622 
 175   2.0000      -0.828557       -22.5462 
 176   2.0000      -0.812189       -22.1008 
 177   2.0000      -0.810556       -22.0564 
 178   2.0000      -0.805741       -21.9253 
 179   2.0000      -0.787183       -21.4203 
 180   2.0000      -0.784789       -21.3552 
 181   2.0000      -0.777360       -21.1530 
 182   2.0000      -0.775550       -21.1038 
 183   2.0000      -0.766148       -20.8479 
 184   2.0000      -0.758077       -20.6283 
 185   2.0000      -0.756202       -20.5773 
 186   2.0000      -0.750544       -20.4233 
 187   2.0000      -0.748368       -20.3641 
 188   2.0000      -0.744168       -20.2499 
 189   2.0000      -0.735666       -20.0185 
 190   2.0000      -0.734355       -19.9828 
 191   2.0000      -0.730820       -19.8866 
 192   2.0000      -0.728087       -19.8123 
 193   2.0000      -0.726254       -19.7624 
 194   2.0000      -0.719615       -19.5817 
 195   2.0000      -0.717974       -19.5371 
 196   2.0000      -0.715987       -19.4830 
 197   2.0000      -0.702604       -19.1188 
 198   2.0000      -0.694719       -18.9043 
 199   2.0000      -0.692160       -18.8346 
 200   2.0000      -0.685701       -18.6589 
 201   2.0000      -0.684508       -18.6264 
 202   2.0000      -0.683154       -18.5896 
 203   2.0000      -0.677000       -18.4221 
 204   2.0000      -0.675340       -18.3769 
 205   2.0000      -0.667586       -18.1659 
 206   2.0000      -0.667304       -18.1583 
 207   2.0000      -0.659442       -17.9443 
 208   2.0000      -0.652285       -17.7496 
 209   2.0000      -0.645111       -17.5544 
 210   2.0000      -0.641985       -17.4693 
 211   2.0000      -0.639855       -17.4113 
 212   2.0000      -0.637227       -17.3398 
 213   2.0000      -0.636873       -17.3302 
 214   2.0000      -0.636322       -17.3152 
 215   2.0000      -0.633231       -17.2311 
 216   2.0000      -0.627258       -17.0685 
 217   2.0000      -0.623403       -16.9637 
 218   2.0000      -0.622907       -16.9502 
 219   2.0000      -0.617826       -16.8119 
 220   2.0000      -0.615115       -16.7381 
 221   2.0000      -0.611245       -16.6328 
 222   2.0000      -0.610564       -16.6143 
 223   2.0000      -0.608309       -16.5529 
 224   2.0000      -0.605486       -16.4761 
 225   2.0000      -0.604179       -16.4406 
 226   2.0000      -0.603468       -16.4212 
 227   2.0000      -0.603032       -16.4093 
 228   2.0000      -0.597991       -16.2722 
 229   2.0000      -0.593088       -16.1388 
 230   2.0000      -0.589707       -16.0467 
 231   2.0000      -0.586977       -15.9725 
 232   2.0000      -0.585352       -15.9282 
 233   2.0000      -0.581097       -15.8125 
 234   2.0000      -0.578486       -15.7414 
 235   2.0000      -0.576716       -15.6932 
 236   2.0000      -0.574149       -15.6234 
 237   2.0000      -0.572340       -15.5742 
 238   2.0000      -0.570595       -15.5267 
 239   2.0000      -0.568722       -15.4757 
 240   2.0000      -0.567212       -15.4346 
 241   2.0000      -0.565027       -15.3752 
 242   2.0000      -0.562472       -15.3056 
 243   2.0000      -0.560388       -15.2489 
 244   2.0000      -0.558079       -15.1861 
 245   2.0000      -0.555501       -15.1160 
 246   2.0000      -0.553276       -15.0554 
 247   2.0000      -0.547790       -14.9061 
 248   2.0000      -0.547377       -14.8949 
 249   2.0000      -0.545747       -14.8505 
 250   2.0000      -0.544243       -14.8096 
 251   2.0000      -0.540071       -14.6961 
 252   2.0000      -0.538962       -14.6659 
 253   2.0000      -0.538336       -14.6489 
 254   2.0000      -0.536929       -14.6106 
 255   2.0000      -0.534641       -14.5483 
 256   2.0000      -0.533104       -14.5065 
 257   2.0000      -0.531801       -14.4710 
 258   2.0000      -0.529674       -14.4132 
 259   2.0000      -0.527973       -14.3669 
 260   2.0000      -0.527047       -14.3417 
 261   2.0000      -0.526474       -14.3261 
 262   2.0000      -0.520431       -14.1617 
 263   2.0000      -0.519536       -14.1373 
 264   2.0000      -0.517415       -14.0796 
 265   2.0000      -0.514424       -13.9982 
 266   2.0000      -0.507960       -13.8223 
 267   2.0000      -0.503966       -13.7136 
 268   2.0000      -0.503409       -13.6985 
 269   2.0000      -0.500833       -13.6283 
 270   2.0000      -0.499512       -13.5924 
 271   2.0000      -0.498959       -13.5774 
 272   2.0000      -0.496694       -13.5157 
 273   2.0000      -0.494885       -13.4665 
 274   2.0000      -0.494789       -13.4639 
 275   2.0000      -0.491712       -13.3802 
 276   2.0000      -0.491286       -13.3686 
 277   2.0000      -0.490028       -13.3343 
 278   2.0000      -0.488247       -13.2859 
 279   2.0000      -0.487760       -13.2726 
 280   2.0000      -0.485192       -13.2027 
 281   2.0000      -0.483962       -13.1693 
 282   2.0000      -0.482854       -13.1391 
 283   2.0000      -0.479726       -13.0540 
 284   2.0000      -0.478971       -13.0334 
 285   2.0000      -0.471132       -12.8202 
 286   2.0000      -0.468019       -12.7354 
 287   2.0000      -0.467168       -12.7123 
 288   2.0000      -0.465204       -12.6588 
 289   2.0000      -0.463214       -12.6047 
 290   2.0000      -0.459795       -12.5117 
 291   2.0000      -0.458517       -12.4769 
 292   2.0000      -0.450323       -12.2539 
 293   2.0000      -0.440125       -11.9764 
 294   2.0000      -0.437143       -11.8953 
 295   2.0000      -0.418007       -11.3745 
 296   2.0000      -0.413453       -11.2506 
 297   2.0000      -0.409165       -11.1340 
 298   2.0000      -0.385219       -10.4824 
 299   2.0000      -0.374711       -10.1964 
 300   2.0000      -0.373603       -10.1663 
 301   2.0000      -0.364775        -9.9260 
 302   2.0000      -0.358719        -9.7612 
 303   2.0000      -0.353231        -9.6119 
 304   2.0000      -0.352654        -9.5962 
 305   2.0000      -0.349064        -9.4985 
 306   2.0000      -0.347123        -9.4457 
 307   2.0000      -0.344988        -9.3876 
 308   2.0000      -0.339026        -9.2254 
 309   2.0000      -0.335257        -9.1228 
 310   2.0000      -0.333232        -9.0677 
 311   2.0000      -0.319324        -8.6893 
 312   2.0000      -0.315616        -8.5883 
 313   2.0000      -0.306271        -8.3340 
 314   2.0000      -0.304778        -8.2934 
 315   2.0000      -0.296640        -8.0720 
 316   2.0000      -0.256519        -6.9802 
 317   0.0000      -0.022057        -0.6002 
 318   0.0000      -0.008968        -0.2440 
 319   0.0000       0.023880         0.6498 
 320   0.0000       0.030678         0.8348 
 321   0.0000       0.054624         1.4864 
 322   0.0000       0.083924         2.2837 
 323   0.0000       0.095707         2.6043 
 324   0.0000       0.106773         2.9054 
 325   0.0000       0.112218         3.0536 
 326   0.0000       0.117570         3.1992 
 327   0.0000       0.124959         3.4003 
 328   0.0000       0.127878         3.4797 
 329   0.0000       0.131583         3.5805 
 330   0.0000       0.143482         3.9043 
 331   0.0000       0.152286         4.1439 
 332   0.0000       0.154599         4.2068 
 333   0.0000       0.157438         4.2841 
 334   0.0000       0.163902         4.4600 
 335   0.0000       0.165856         4.5132 
 336   0.0000       0.167054         4.5458 
 337   0.0000       0.169034         4.5996 
 338   0.0000       0.170095         4.6285 
 339   0.0000       0.174837         4.7576 
 340   0.0000       0.175185         4.7670 
 341   0.0000       0.176095         4.7918 
 342   0.0000       0.178371         4.8537 
 343   0.0000       0.178603         4.8600 
 344   0.0000       0.180808         4.9200 
 345   0.0000       0.184868         5.0305 
 346   0.0000       0.191386         5.2079 
 347   0.0000       0.192103         5.2274 
 348   0.0000       0.195234         5.3126 
 349   0.0000       0.197259         5.3677 
 350   0.0000       0.199390         5.4257 
 351   0.0000       0.202103         5.4995 
 352   0.0000       0.206145         5.6095 
 353   0.0000       0.208974         5.6865 
 354   0.0000       0.211206         5.7472 
 355   0.0000       0.212179         5.7737 
 356   0.0000       0.214106         5.8261 
 357   0.0000       0.215096         5.8531 
 358   0.0000       0.216251         5.8845 
 359   0.0000       0.217074         5.9069 
 360   0.0000       0.219377         5.9696 
 361   0.0000       0.220491         5.9999 
 362   0.0000       0.221425         6.0253 
 363   0.0000       0.223568         6.0836 
 364   0.0000       0.225146         6.1265 
 365   0.0000       0.226105         6.1526 
 366   0.0000       0.228105         6.2071 
 367   0.0000       0.231452         6.2981 
 368   0.0000       0.232153         6.3172 
 369   0.0000       0.234749         6.3878 
 370   0.0000       0.238331         6.4853 
 371   0.0000       0.239211         6.5093 
 372   0.0000       0.239608         6.5201 
 373   0.0000       0.242513         6.5991 
 374   0.0000       0.243764         6.6332 
 375   0.0000       0.246116         6.6972 
 376   0.0000       0.247481         6.7343 
 377   0.0000       0.248590         6.7645 
 378   0.0000       0.251436         6.8419 
 379   0.0000       0.253864         6.9080 
 380   0.0000       0.255496         6.9524 
 381   0.0000       0.257400         7.0042 
 382   0.0000       0.259641         7.0652 
 383   0.0000       0.260610         7.0916 
 384   0.0000       0.261856         7.1255 
 385   0.0000       0.264055         7.1853 
 386   0.0000       0.267604         7.2819 
 387   0.0000       0.268529         7.3071 
 388   0.0000       0.271120         7.3775 
 389   0.0000       0.272429         7.4132 
 390   0.0000       0.276341         7.5196 
 391   0.0000       0.277504         7.5513 
 392   0.0000       0.278053         7.5662 
 393   0.0000       0.280057         7.6207 
 394   0.0000       0.281315         7.6550 
 395   0.0000       0.284304         7.7363 
 396   0.0000       0.285358         7.7650 
 397   0.0000       0.288939         7.8624 
 398   0.0000       0.290231         7.8976 
 399   0.0000       0.295999         8.0545 
 400   0.0000       0.298030         8.1098 
 401   0.0000       0.301728         8.2104 
 402   0.0000       0.312006         8.4901 
 403   0.0000       0.315699         8.5906 
 404   0.0000       0.319371         8.6905 
 405   0.0000       0.327415         8.9094 
 406   0.0000       0.328057         8.9269 
 407   0.0000       0.336527         9.1574 
 408   0.0000       0.339002         9.2247 
 409   0.0000       0.339286         9.2324 
 410   0.0000       0.341189         9.2842 
 411   0.0000       0.345852         9.4111 
 412   0.0000       0.348530         9.4840 
 413   0.0000       0.350271         9.5314 
 414   0.0000       0.354817         9.6551 
 415   0.0000       0.357384         9.7249 
 416   0.0000       0.359658         9.7868 
 417   0.0000       0.360845         9.8191 
 418   0.0000       0.361473         9.8362 
 419   0.0000       0.364430         9.9166 
 420   0.0000       0.365716         9.9516 
 421   0.0000       0.365958         9.9582 
 422   0.0000       0.370498        10.0818 
 423   0.0000       0.371451        10.1077 
 424   0.0000       0.377254        10.2656 
 425   0.0000       0.380834        10.3630 
 426   0.0000       0.381929        10.3928 
 427   0.0000       0.384248        10.4559 
[...]
   Time for J+K (Direct):  2863.811
   Time for Sigma-Completion:    31.661
   Size of expansion space: 12
   Lowest Energy          :     0.100433379550
   Maximum Energy change  :     0.000007652964 (vector 2)
   Maximum residual norm  :     0.000001233707

                       ****Iteration   11****
   Time for densities:     2.041
   Using LibInt in JK Direct
   Time for J+K (Direct):  2871.348
   Time for Sigma-Completion:    30.933
   Size of expansion space: 15
   Lowest Energy          :     0.100433377377
   Maximum Energy change  :     0.000002800828 (vector 2)
   Maximum residual norm  :     0.000000327010

                       ****Iteration   12****
   Time for densities:     1.998
   Using LibInt in JK Direct
   Time for J+K (Direct):  2809.028
   Time for Sigma-Completion:    30.451
   Size of expansion space: 18
   Lowest Energy          :     0.100433377021
   Maximum Energy change  :     0.000001311626 (vector 2)
   Maximum residual norm  :     0.000000220714

      *** CONVERGENCE OF RESIDUAL NORM REACHED ***

Storing the converged CI vectors               ... ITIC-Th.cis1

                 *** DAVIDSON DONE ***

Total time for solving the CIS problem: 48300.418sec

-----------------------------
CIS-EXCITED STATES (SINGLETS)
-----------------------------

the weight of the individual excitations are printed if larger than 1.0e-02

STATE  1:  E=   0.100433 au      2.733 eV    22042.6 cm**-1
   302a -> 321a  :     0.010035 (c= -0.10017486)
   313a -> 318a  :     0.018753 (c=  0.13694106)
   315a -> 318a  :     0.166305 (c=  0.40780536)
   315a -> 320a  :     0.010815 (c= -0.10399582)
   316a -> 317a  :     0.623350 (c= -0.78952533)
   316a -> 319a  :     0.026852 (c=  0.16386564)
   316a -> 321a  :     0.019215 (c= -0.13861842)

STATE  2:  E=   0.116099 au      3.159 eV    25480.7 cm**-1
   302a -> 318a  :     0.021859 (c=  0.14784864)
   308a -> 318a  :     0.019810 (c=  0.14074740)
   310a -> 318a  :     0.010021 (c= -0.10010374)
   313a -> 317a  :     0.031642 (c=  0.17788110)
   313a -> 318a  :     0.012627 (c= -0.11237077)
   314a -> 317a  :     0.012784 (c=  0.11306620)
   315a -> 317a  :     0.319663 (c=  0.56538746)
   316a -> 318a  :     0.397940 (c= -0.63082471)
   316a -> 320a  :     0.015130 (c=  0.12300525)
   316a -> 322a  :     0.013943 (c= -0.11808081)

STATE  3:  E=   0.151994 au      4.136 eV    33358.8 cm**-1
   298a -> 318a  :     0.015822 (c= -0.12578576)
   302a -> 317a  :     0.030970 (c= -0.17598377)
   308a -> 317a  :     0.043933 (c= -0.20960139)
   309a -> 317a  :     0.048786 (c=  0.22087578)
   309a -> 318a  :     0.020229 (c=  0.14222828)
   310a -> 317a  :     0.048938 (c=  0.22121864)
   310a -> 318a  :     0.034523 (c= -0.18580422)
   311a -> 318a  :     0.011435 (c=  0.10693560)
   312a -> 317a  :     0.019768 (c= -0.14059939)
   313a -> 317a  :     0.021154 (c=  0.14544458)
   313a -> 318a  :     0.033879 (c= -0.18406117)
   315a -> 318a  :     0.091355 (c= -0.30224998)
   316a -> 317a  :     0.022805 (c= -0.15101412)
   316a -> 319a  :     0.169463 (c=  0.41165859)
   316a -> 321a  :     0.155039 (c= -0.39374930)
   316a -> 323a  :     0.010040 (c= -0.10019896)
   316a -> 324a  :     0.014639 (c= -0.12099039)


----------------------
CIS-EXCITATION SPECTRA
----------------------

Center of mass = ( -6.8006,-19.0033, -0.2362)
Calculating the Dipole integrals                  ... done
Transforming integrals                            ... done
Calculating the Linear Momentum integrals         ... done
Transforming integrals                            ... done
Calculating angular momentum integrals            ... done
Transforming integrals                            ... done

-----------------------------------------------------------------------------
         ABSORPTION SPECTRUM VIA TRANSITION ELECTRIC DIPOLE MOMENTS
-----------------------------------------------------------------------------
State   Energy    Wavelength  fosc         T2        TX        TY        TZ  
        (cm-1)      (nm)                 (au**2)    (au)      (au)      (au) 
-----------------------------------------------------------------------------
   1   22042.6    453.7   2.008990658  30.00483   1.11888   5.29685  -0.83447
   2   25480.7    392.5   0.006585630   0.08509   0.03508   0.21963   0.18873
   3   33358.8    299.8   0.708838572   6.99540  -0.69819   2.29243   1.11924

-----------------------------------------------------------------------------
         ABSORPTION SPECTRUM VIA TRANSITION VELOCITY DIPOLE MOMENTS
-----------------------------------------------------------------------------
State   Energy    Wavelength   fosc        P2         PX        PY        PZ  
        (cm-1)      (nm)                 (au**2)     (au)      (au)      (au) 
-----------------------------------------------------------------------------
   1   22042.6    453.7   0.847614912   0.12769  -0.08729  -0.34494   0.03299
   2   25480.7    392.5   0.004390344   0.00076  -0.00510  -0.02657   0.00570
   3   33358.8    299.8   0.100738258   0.02297  -0.08616  -0.12415   0.01141

-------------------------------------------------------------------
                             CD SPECTRUM
-------------------------------------------------------------------
State  Energy     Wavelength     R         MX        MY        MZ   
       (cm-1)       (nm)     (1e40*cgs)   (au)      (au)      (au)  
-------------------------------------------------------------------
   1   22042.6    453.7    -235.33643  -0.25904  -0.04220  -0.01698
   2   25480.7    392.5    226.10374   0.65295   0.29397   2.07766
   3   33358.8    299.8    138.17636  -0.16279   0.10489  -0.05452

Total run time:    48594.312 sec

           *** ORCA-CIS/TD-DFT FINISHED WITHOUT ERROR ***

-----------------------
CIS/TD-DFT TOTAL ENERGY
-----------------------

    E(SCF)  =  -6219.488539906 Eh
    DE(CIS) =      0.100433377 Eh (Root  1)
    ----------------------------- ---------
    E(tot)  =  -6219.388106529 Eh


-------------------------   --------------------
FINAL SINGLE POINT ENERGY     -6219.388106529276
-------------------------   --------------------

------------------------------------------------------------------------------
                         ORCA SCF GRADIENT CALCULATION
------------------------------------------------------------------------------


------------
CIS GRADIENT
------------

Reference wavefunction             ... RHF
State of interest                  ... 1
Basis dimension                    ... 1418
DFT-XC contribution needed         ... NO
RI-approximation                   ... OFF
CIS-vectors being read from        ... ITIC-Th.cis

 => Number of Vectors found: 3
 => Orbital Window: 116...316 -> 317...1417

Reading the CIS file                     ... done
Norm of the CI vector                    ... 1.000000000
Making the CIS (pseudo)densities         ... done
Making operators G(D) and Q(T)           ... done
Transforming the Fock operators          ... done
Making the frozen-core relaxed density   ... done
Constructing the G(H) operator           ... done
Transforming the G(H) operator           ... done
Calculating the CIS Lagrangian           ... done
Solving the Z-vector equations           ... done
Finalizing the relaxed density           ... done
Storing the relaxed density              ... done
Constructing the G(Z) operator           ... done
Transforming the G(Z) operator           ... done
Making the W-matrix                      ... done
Finalizing the W-matrix                  ... done
Transforming the W-matrix                ... done
Nuclear repulsion gradient               ... done
One-Electron gradient                    ... done
Prescreening matrices                    ... done
Two-Electron gradient (4-center)         ... done
                 ---------------------------
                 EXCITED STATE GRADIENT DONE
                 ---------------------------


------------------
CARTESIAN GRADIENT
------------------

   1   C   :    0.033580237   -0.015435227   -0.010716439
   2   O   :   -0.032680719    0.019680502    0.008643562
   3   C   :   -0.013134386   -0.001287207    0.002699052
   4   C   :    0.004667992    0.002337186    0.001017060
   5   C   :   -0.001619819   -0.001544296   -0.000358486
   6   C   :   -0.001141931   -0.001529123   -0.000485271
   7   C   :   -0.000617372    0.003528395   -0.000096301
   8   C   :   -0.001762046   -0.020154526   -0.006759818
   9   C   :    0.007442963    0.011697827    0.014477262
  10   C   :    0.005761986   -0.013157678   -0.014259853
  11   C   :    0.038986750    0.031928741    0.028787813
  12   N   :   -0.022515645   -0.021794580   -0.011642104
  13   C   :   -0.052850162    0.009273054    0.019503582
  14   N   :    0.028670415   -0.008538501   -0.012251844
  15   C   :    0.000001527   -0.004505877   -0.003634877
  16   C   :    0.008550732    0.003604704   -0.000323193
  17   C   :   -0.006921404   -0.002024861   -0.005081337
  18   C   :    0.002891919    0.006870019   -0.000947273
  19   C   :   -0.002248818   -0.003848718   -0.001369828
  20   C   :    0.003102502    0.000113796    0.000460602
  21   S   :    0.005275133    0.000409815   -0.009977378
  22   C   :    0.011755341    0.003880308    0.002275871
  23   C   :    0.001595302   -0.004908647   -0.000174325
  24   C   :   -0.008272166   -0.004593591    0.009833041
  25   C   :    0.007264977    0.012724070   -0.011453264
  26   C   :   -0.005073077    0.009490907    0.015087256
  27   C   :    0.005611895   -0.006977379   -0.007064530
  28   C   :   -0.006354812    0.004315882    0.001679948
  29   C   :    0.002273063   -0.002193051    0.003899356
  30   S   :   -0.005477915   -0.010630318    0.004816267
  31   C   :   -0.001710893    0.005296370   -0.014312111
  32   C   :    0.000757011   -0.002379612    0.018457277
  33   C   :   -0.010841923   -0.014000132   -0.006592709
  34   C   :    0.011496375    0.004447420    0.001010813
  35   C   :   -0.008235734    0.000237846   -0.001235548
  36   C   :    0.002517777   -0.002987831   -0.002814336
  37   S   :   -0.000452750    0.005959859   -0.010738081
  38   C   :   -0.004044730    0.011403427   -0.002101671
  39   C   :    0.000939815   -0.012385817    0.000089822
  40   C   :   -0.004830502    0.000528234   -0.001258802
  41   S   :    0.005672351    0.002324381    0.000639167
  42   C   :   -0.000805946    0.011864678   -0.000959420
  43   C   :    0.005202344   -0.010873860   -0.001178859
  44   C   :    0.000907668    0.004817018   -0.001070262
  45   C   :    0.003121412    0.005360301   -0.011530573
  46   C   :   -0.008819544   -0.010437280    0.014557858
  47   C   :    0.019374784   -0.004762897   -0.002688046
  48   C   :   -0.009953954    0.005331583    0.000210039
  49   C   :    0.003299225   -0.005356643   -0.004961575
  50   C   :    0.002585545    0.003831658    0.001143380
  51   S   :    0.001743865    0.006904104   -0.005737803
  52   C   :    0.006054697    0.006748669    0.010659918
  53   C   :   -0.008834404   -0.011682151   -0.012036303
  54   C   :   -0.002803925   -0.007503621    0.015664735
  55   C   :   -0.002807995    0.007557087   -0.006867807
  56   C   :    0.004730820   -0.005442790    0.003562162
  57   C   :   -0.002494337    0.002921886    0.003169645
  58   S   :    0.005663339    0.009220380    0.004632797
  59   C   :   -0.011527956   -0.002877900   -0.003077113
  60   C   :    0.005481157   -0.000040911    0.000640686
  61   C   :   -0.001502357    0.011293528    0.000326600
  62   C   :    0.001506171   -0.012528736   -0.002387138
  63   S   :   -0.005348516   -0.002282335   -0.000706339
  64   C   :    0.002971142    0.003076289    0.001506352
  65   C   :   -0.002936129   -0.000542250   -0.000586933
  66   S   :   -0.004051782   -0.003143235    0.009161854
  67   C   :    0.006656442    0.001698572    0.004878702
  68   C   :   -0.002529295   -0.006467352   -0.000368883
  69   C   :   -0.008526471   -0.003691949   -0.000437983
  70   C   :   -0.000856590    0.004264859    0.004132141
  71   C   :   -0.006232079   -0.010033344   -0.016042691
  72   C   :   -0.006917661    0.011119736    0.015704226
  73   C   :    0.054363478   -0.005491935   -0.017049722
  74   N   :   -0.029635511    0.005246913    0.011092540
  75   C   :   -0.035162565   -0.028956630   -0.034663152
  76   N   :    0.020399527    0.020605562    0.015115930
  77   C   :    0.000623000    0.018946610    0.009487870
  78   C   :    0.000804781   -0.003551128   -0.000509844
  79   C   :    0.001060428    0.001491612    0.000730052
  80   C   :    0.001550401    0.001437203    0.000613404
  81   C   :   -0.004530492   -0.002348401   -0.001634744
  82   C   :    0.013157776    0.002071957   -0.001490326
  83   C   :   -0.034587791    0.012719566    0.009971891
  84   O   :    0.033804286   -0.017294688   -0.008810057
  85   H   :    0.000932415   -0.001273363   -0.000407069
  86   H   :   -0.000853728   -0.001394846   -0.000557016
  87   H   :   -0.001553272   -0.000286732    0.000102325
  88   H   :   -0.000904366   -0.001853600    0.000040499
  89   H   :   -0.000603702   -0.000395584    0.001678567
  90   H   :    0.003759561   -0.002075266    0.000830364
  91   H   :   -0.000896916   -0.000779963    0.001604883
  92   H   :   -0.002162220   -0.002053504    0.002302688
  93   H   :    0.002158407    0.001088272    0.000887673
  94   H   :   -0.000476123   -0.002617422    0.001884263
  95   H   :   -0.002155356    0.000256787   -0.001302650
  96   H   :   -0.002369417    0.002131919    0.002033891
  97   H   :   -0.001701293    0.002471986   -0.000718814
  98   H   :    0.001566054    0.002057244   -0.000254174
  99   H   :   -0.000488208    0.000956392   -0.004470173
 100   H   :    0.000928335   -0.002117779    0.001046133
 101   H   :    0.001273035    0.000114567   -0.003089333
 102   H   :   -0.001602429    0.001911400    0.000077240
 103   H   :   -0.003324563   -0.001214052   -0.001172081
 104   H   :   -0.002749035    0.000319481    0.001275508
 105   H   :   -0.000297635   -0.000271786    0.000299983
 106   H   :   -0.001973083    0.000708693   -0.000115198
 107   H   :    0.001468456    0.002546166   -0.003357721
 108   H   :    0.001084715    0.000182931    0.002388869
 109   H   :    0.000847860    0.002853211   -0.001435369
 110   H   :   -0.000929684   -0.001355873   -0.001776931
 111   H   :    0.002792626   -0.001929874   -0.001680529
 112   H   :    0.000149195   -0.002939671   -0.000491872
 113   H   :    0.002271552    0.001141026   -0.002026381
 114   H   :    0.002406099    0.002518443    0.003061175
 115   H   :   -0.002441589   -0.000418642    0.000233792
 116   H   :    0.000573571    0.002702489    0.001712326
 117   H   :    0.002303292   -0.000765697   -0.000611667
 118   H   :    0.001222688   -0.002319476    0.002671383
 119   H   :    0.001183338   -0.002879397   -0.000010770
 120   H   :   -0.000900565   -0.000778679   -0.000286757
 121   H   :   -0.003816526    0.002205691   -0.000422140
 122   H   :    0.000923048    0.000535553   -0.001434505
 123   H   :    0.000796603    0.001769051    0.000320746
 124   H   :    0.001541902    0.000322486    0.000057656
 125   H   :    0.000777842    0.001340751    0.000751698
 126   H   :   -0.000987126    0.001191156    0.000463912

Difference to translation invariance:
           :   -0.0000000001    0.0000000006   -0.0000000000

Norm of the cartesian gradient     ...    0.1844729891
RMS gradient                       ...    0.0094882667
MAX gradient                       ...    0.0543634776

-------
TIMINGS
-------

Total CIS gradient time            ...    32605.198 sec

Fock matrix formation       ....    2577.017 sec  (  7.9%)
  Coulomb formation         ....    2577.017 sec  (100.0% of F)
Z-vector equation           ....   27084.359 sec  ( 83.1%)
One electron gradient       ....      21.099 sec  (  0.1%)
Prescreening matrices       ....       1.392 sec  (  0.0%)
Two electron gradient       ....    2916.716 sec  (  8.9%)

                            ***************************************
                            *     ORCA property calculations      *
                            ***************************************

                                    ---------------------
                                    Active property flags
                                    ---------------------
   (+) Dipole Moment


------------------------------------------------------------------------------
                       ORCA ELECTRIC PROPERTIES CALCULATION
------------------------------------------------------------------------------

Dipole Moment Calculation                       ... on
Quadrupole Moment Calculation                   ... off
Polarizability Calculation                      ... off
GBWName                                         ... ITIC-Th.gbw
Electron density file                           ... ITIC-Th.scfp
The origin for moment calculation is the CENTER OF MASS  = (-6.800611, -19.003264 -0.236239)

-------------
DIPOLE MOMENT
-------------
                                X             Y             Z
Electronic contribution:     -2.22505      -4.81599       2.37027
Nuclear contribution   :      2.26984       4.80966      -2.29683
                        -----------------------------------------
Total Dipole Moment    :      0.04480      -0.00633       0.07344
                        -----------------------------------------
Magnitude (a.u.)       :      0.08626
Magnitude (Debye)      :      0.21925



--------------------
Rotational spectrum 
--------------------
 
Rotational constants in cm-1:     0.001496     0.000286     0.000280 
Rotational constants in MHz :    44.839730     8.577916     8.400107 

 Dipole components along the rotational axes: 
x,y,z [a.u.] :     0.002341     0.046001    -0.072931 
x,y,z [Debye]:     0.005952     0.116926    -0.185377 

 

                        *** CIS RELAXED DENSITY ***

------------------------------------------------------------------------------
                       ORCA ELECTRIC PROPERTIES CALCULATION
------------------------------------------------------------------------------

Dipole Moment Calculation                       ... on
Quadrupole Moment Calculation                   ... off
Polarizability Calculation                      ... off
GBWName                                         ... ITIC-Th.gbw
Electron density file                           ... ITIC-Th.cisp
The origin for moment calculation is the CENTER OF MASS  = (-6.800611, -19.003264 -0.236239)

-------------
DIPOLE MOMENT
-------------
                                X             Y             Z
Electronic contribution:     -2.22873      -4.72011       2.45120
Nuclear contribution   :      2.26984       4.80966      -2.29683
                        -----------------------------------------
Total Dipole Moment    :      0.04111       0.08955       0.15437
                        -----------------------------------------
Magnitude (a.u.)       :      0.18314
Magnitude (Debye)      :      0.46550



--------------------
Rotational spectrum 
--------------------
 
Rotational constants in cm-1:     0.001496     0.000286     0.000280 
Rotational constants in MHz :    44.839730     8.577916     8.400107 

 Dipole components along the rotational axes: 
x,y,z [a.u.] :    -0.085325     0.024577    -0.160173 
x,y,z [Debye]:    -0.216878     0.062471    -0.407128 

 

Timings for individual modules:

Sum of individual times         ...    93121.056 sec (=1552.018 min)
GTO integral calculation        ...        2.721 sec (=   0.045 min)   0.0 %
SCF iterations                  ...    11918.694 sec (= 198.645 min)  12.8 %
CIS module                      ...    48594.402 sec (= 809.907 min)  52.2 %
SCF Gradient evaluation         ...    32605.239 sec (= 543.421 min)  35.0 %
                             ****ORCA TERMINATED NORMALLY****
TOTAL RUN TIME: 1 days 1 hours 52 minutes 2 seconds 180 msec
