
                                 *****************
                                 * O   R   C   A *
                                 *****************

           --- An Ab Initio, DFT and Semiempirical electronic structure package ---

                  #######################################################
                  #                        -***-                        #
                  #          Department of theory and spectroscopy      #
                  #               Directorship: Frank Neese             #
                  #        Max Planck Institute fuer Kohlenforschung    #
                  #                Kaiser Wilhelm Platz 1               #
                  #                 D-45470 Muelheim/Ruhr               #
                  #                      Germany                        #
                  #                                                     #
                  #                  All rights reserved                #
                  #                        -***-                        #
                  #######################################################


                         Program Version 4.2.0 -  RELEASE  -


 With contributions from (in alphabetic order):
   Daniel Aravena         : Magnetic Suceptibility
   Michael Atanasov       : Ab Initio Ligand Field Theory (pilot matlab implementation)
   Alexander A. Auer      : GIAO ZORA, VPT2
   Ute Becker             : Parallelization
   Giovanni Bistoni       : ED, misc. LED, open-shell LED, HFLED
   Martin Brehm           : Molecular dynamics
   Dmytro Bykov           : SCF Hessian
   Vijay G. Chilkuri      : MRCI spin determinant printing, contributions to CSF-ICE
   Dipayan Datta          : RHF DLPNO-CCSD density
   Achintya Kumar Dutta   : EOM-CC, STEOM-CC
   Dmitry Ganyushin       : Spin-Orbit,Spin-Spin,Magnetic field MRCI
   Miquel Garcia          : C-PCM Hessian, Gaussian charge scheme
   Yang Guo               : DLPNO-NEVPT2, CIM, IAO-localization
   Andreas Hansen         : Spin unrestricted coupled pair/coupled cluster methods
   Benjamin Helmich-Paris : CASSCF linear response (MC-RPA)
   Lee Huntington         : MR-EOM, pCC
   Robert Izsak           : Overlap fitted RIJCOSX, COSX-SCS-MP3, EOM
   Christian Kollmar      : KDIIS, OOCD, Brueckner-CCSD(T), CCSD density
   Simone Kossmann        : Meta GGA functionals, TD-DFT gradient, OOMP2, MP2 Hessian
   Martin Krupicka        : AUTO-CI
   Lucas Lang             : DCDCAS
   Dagmar Lenk            : GEPOL surface, SMD
   Dimitrios Liakos       : Extrapolation schemes; Compound Job, initial MDCI parallelization
   Dimitrios Manganas     : Further ROCIS development; embedding schemes
   Dimitrios Pantazis     : SARC Basis sets
   Taras Petrenko         : DFT Hessian,TD-DFT gradient, ASA, ECA, R-Raman, ABS, FL, XAS/XES, NRVS
   Peter Pinski           : DLPNO-MP2, DLPNO-MP2 Gradient
   Christoph Reimann      : Effective Core Potentials
   Marius Retegan         : Local ZFS, SOC
   Christoph Riplinger    : Optimizer, TS searches, QM/MM, DLPNO-CCSD(T), (RO)-DLPNO pert. Triples
   Tobias Risthaus        : Range-separated hybrids, TD-DFT gradient, RPA, STAB
   Michael Roemelt        : Original ROCIS implementation
   Masaaki Saitow         : Open-shell DLPNO-CCSD energy and density
   Barbara Sandhoefer     : DKH picture change effects
   Avijit Sen             : IP-ROCIS
   Kantharuban Sivalingam : CASSCF convergence, NEVPT2, FIC-MRCI
   Bernardo de Souza      : ESD, SOC TD-DFT
   Georgi Stoychev        : AutoAux, RI-MP2 NMR
   Willem Van den Heuvel  : Paramagnetic NMR
   Boris Wezisla          : Elementary symmetry handling
   Frank Wennmohs         : Technical directorship


 We gratefully acknowledge several colleagues who have allowed us to
 interface, adapt or use parts of their codes:
   Stefan Grimme, W. Hujo, H. Kruse,             : VdW corrections, initial TS optimization,
                  C. Bannwarth                     DFT functionals, gCP, sTDA/sTD-DF
   Ed Valeev, F. Pavosevic, A. Kumar             : LibInt (2-el integral package), F12 methods
   Garnet Chan, S. Sharma, J. Yang, R. Olivares  : DMRG
   Ulf Ekstrom                                   : XCFun DFT Library
   Mihaly Kallay                                 : mrcc  (arbitrary order and MRCC methods)
   Andreas Klamt, Michael Diedenhofen            : otool_cosmo (COSMO solvation model)
   Jiri Pittner, Ondrej Demel                    : Mk-CCSD
   Frank Weinhold                                : gennbo (NPA and NBO analysis)
   Christopher J. Cramer and Donald G. Truhlar   : smd solvation model
   Lars Goerigk                                  : TD-DFT with DH, B97 family of functionals
   V. Asgeirsson, H. Jonsson                     : NEB implementation
   FAccTs GmbH                                   : IRC, NEB, NEB-TS, Multilevel, MM, QM/MM, CI optimization
   S Lehtola, MJT Oliveira, MAL Marques          : LibXC Library


 Your calculation uses the libint2 library for the computation of 2-el integrals
 For citations please refer to: http://libint.valeyev.net

 Your ORCA version has been built with support for libXC version: 4.2.3
 For citations please refer to: https://tddft.org/programs/libxc/

 This ORCA versions uses:
   CBLAS   interface :  Fast vector & matrix operations
   LAPACKE interface :  Fast linear algebra routines
   SCALAPACK package :  Parallel linear algebra routines


----- Orbital basis set information -----
Your calculation utilizes the basis: def2-SVP
   F. Weigend and R. Ahlrichs, Phys. Chem. Chem. Phys. 7, 3297 (2005).

================================================================================
                                        WARNINGS
                       Please study these warnings very carefully!
================================================================================

INFO   : Checking CIS options ...

WARNING: CIS/ROCIS methods need fully converged wavefunctions
  ===> : Setting SCFConvForced true
         You can overwrite this default with %scf ConvForced false 


INFO   : the flag for use of LIBINT has been found!

================================================================================
                                       INPUT FILE
================================================================================
NAME = ITIC.inp
|  1> # ORCA input file
|  2> # ITIC.out: Geometry 45
|  3> ! Engrad Keepdens
|  4> %maxcore 1000
|  5> %tddft
|  6>   nroots 3 
|  7>   # nroots is the number of states to be computed
|  8>   Iroot 1
|  9>   end
| 10> * xyz 0 1
| 11>    C       -2.43342         0.51405         1.19871
| 12>    O       -2.96620         0.98486         2.18211
| 13>    C       -1.27233         1.06481         0.44706
| 14>    C       -0.51399         2.19310         0.73849
| 15>    C        0.56259         2.49875        -0.10135
| 16>    C        0.85608         1.67989        -1.20192
| 17>    C        0.08178         0.55214        -1.50405
| 18>    C       -0.99592         0.24025        -0.66651
| 19>    C       -2.01972        -0.83340        -0.72923
| 20>    C       -2.36070        -1.54400        -1.86658
| 21>    C       -3.56607        -2.30682        -1.97335
| 22>    N       -4.56151        -2.88872        -2.11708
| 23>    C       -1.60156        -1.49160        -3.07605
| 24>    N       -1.00053        -1.49487        -4.07139
| 25>    C       -2.76300        -0.78845         0.52705
| 26>    C       -3.55451        -1.69272         1.18974
| 27>    C       -3.65822        -3.10397         1.03016
| 28>    C       -4.72326        -3.91077         1.44351
| 29>    C       -4.52509        -5.25843         1.09769
| 30>    C       -3.28533        -5.50043         0.45985
| 31>    S       -2.36584        -4.05105         0.28410
| 32>    C       -3.10275        -6.84681         0.10293
| 33>    C       -2.09082        -7.64728        -0.70029
| 34>    C       -0.71729        -7.75335        -0.03511
| 35>    C       -0.50116        -7.35913         1.28953
| 36>    C        0.75407        -7.51322         1.88403
| 37>    C        1.82781        -8.07457         1.18285
| 38>    C        3.16053        -8.30637         1.85437
| 39>    C        3.23134        -9.67744         2.54328
| 40>    C        1.60621        -8.46553        -0.14738
| 41>    C        0.36061        -8.29855        -0.74913
| 42>    C       -2.02790        -6.96942        -2.08153
| 43>    C       -2.92786        -7.30060        -3.10365
| 44>    C       -2.98342        -6.54403        -4.27470
| 45>    C       -2.15255        -5.42797        -4.46471
| 46>    C       -2.24648        -4.58183        -5.71646
| 47>    C       -3.64730        -4.00251        -5.96113
| 48>    C       -1.24109        -5.11476        -3.44625
| 49>    C       -1.17554        -5.87369        -2.27596
| 50>    C       -2.77840        -9.02816        -0.70693
| 51>    C       -4.02573        -8.98206        -0.01972
| 52>    C       -4.20162        -7.62156         0.44509
| 53>    S       -5.47617        -6.73173         1.23558
| 54>    C       -4.84045       -10.11942         0.09985
| 55>    C       -4.38829       -11.30616        -0.45725
| 56>    C       -5.08443       -12.68296        -0.48348
| 57>    C       -5.27261       -13.32589         0.90068
| 58>    C       -6.16068       -14.40202         1.04428
| 59>    C       -6.27538       -15.08271         2.25524
| 60>    C       -5.51237       -14.71189         3.37346
| 61>    C       -5.62601       -15.45136         4.69036
| 62>    C       -7.04560       -15.88241         5.06719
| 63>    C       -4.62541       -13.63496         3.22135
| 64>    C       -4.49986       -12.95576         2.00690
| 65>    C       -6.41314       -12.56416        -1.23932
| 66>    C       -6.55713       -12.97890        -2.56715
| 67>    C       -7.77588       -12.82393        -3.23400
| 68>    C       -8.88204       -12.24232        -2.60334
| 69>    C      -10.17289       -12.00826        -3.35141
| 70>    C      -10.18225       -10.65236        -4.07295
| 71>    C       -8.73130       -11.82815        -1.27031
| 72>    C       -7.52328       -11.99434        -0.59742
| 73>    C       -4.03961       -13.50034        -1.22484
| 74>    C       -2.94166       -12.72279        -1.56501
| 75>    C       -3.13379       -11.35530        -1.12967
| 76>    C       -2.32358       -10.21589        -1.25843
| 77>    S       -1.64687       -13.61373        -2.31786
| 78>    C       -2.58575       -15.09222        -2.16710
| 79>    C       -3.83880       -14.85145        -1.55477
| 80>    S       -4.74319       -16.31014        -1.36724
| 81>    C       -3.42432       -17.25567        -2.06958
| 82>    C       -2.36447       -16.44366        -2.48276
| 83>    C       -3.49482       -18.67539        -2.17377
| 84>    C       -4.25186       -19.56674        -1.45589
| 85>    C       -4.97189       -19.47112        -0.18896
| 86>    C       -4.62548       -18.68364         0.89493
| 87>    C       -5.37518       -18.66096         2.10991
| 88>    N       -5.97797       -18.60706         3.10255
| 89>    C       -3.42496       -17.90695         0.92584
| 90>    N       -2.42504       -17.31892         0.98839
| 91>    C       -5.96089       -20.57742        -0.16461
| 92>    C       -7.00108       -20.88033         0.72255
| 93>    C       -7.73340       -22.05638         0.51437
| 94>    C       -7.43466       -22.92977        -0.54214
| 95>    C       -6.39723       -22.63192        -1.43262
| 96>    C       -5.68025       -21.45715        -1.23433
| 97>    C       -4.55664       -20.91316        -2.04669
| 98>    O       -4.03261       -21.42254        -3.01547
| 99>    H       -0.76909         2.81076         1.60209
|100>    H        1.18247         3.37510         0.10068
|101>    H        1.70493         1.92730        -1.84348
|102>    H        0.33368        -0.06243        -2.36661
|103>    H       -4.12264        -1.26113         2.02397
|104>    H       -5.60995        -3.50370         1.92996
|105>    H       -1.31749        -6.92612         1.86928
|106>    H        0.90022        -7.18507         2.91678
|107>    H        3.34201        -7.51291         2.59777
|108>    H        3.96747        -8.22218         1.10704
|109>    H        2.45907        -9.76826         3.32334
|110>    H        4.21210        -9.84099         3.01830
|111>    H        3.05968       -10.48881         1.81854
|112>    H        2.42716        -8.90112        -0.72394
|113>    H        0.22539        -8.57775        -1.79595
|114>    H       -3.60200        -8.14941        -2.97770
|115>    H       -3.69595        -6.82364        -5.05505
|116>    H       -1.94349        -5.19234        -6.58695
|117>    H       -1.52031        -3.75788        -5.64353
|118>    H       -4.38496        -4.79504        -6.16291
|119>    H       -3.64670        -3.32252        -6.82765
|120>    H       -3.99956        -3.43900        -5.08309
|121>    H       -0.58216        -4.25221        -3.56801
|122>    H       -0.45959        -5.60093        -1.49763
|123>    H       -5.79666       -10.06618         0.62007
|124>    H       -6.78109       -14.70884         0.19976
|125>    H       -6.96961       -15.92128         2.32858
|126>    H       -5.19699       -14.81832         5.48465
|127>    H       -4.98968       -16.35298         4.64374
|128>    H       -7.73545       -15.02328         5.08170
|129>    H       -7.05652       -16.35149         6.06397
|130>    H       -7.43432       -16.63083         4.36210
|131>    H       -4.01747       -13.31682         4.07286
|132>    H       -3.79476       -12.12673         1.92359
|133>    H       -5.71379       -13.43101        -3.09110
|134>    H       -7.86693       -13.16957        -4.26733
|135>    H      -11.01986       -12.06204        -2.64681
|136>    H      -10.32714       -12.81555        -4.08623
|137>    H      -10.03687        -9.82769        -3.35736
|138>    H      -11.13234       -10.48325        -4.60489
|139>    H       -9.36590       -10.59283        -4.81024
|140>    H       -9.57910       -11.37436        -0.74925
|141>    H       -7.44506       -11.69654         0.44978
|142>    H       -1.36499       -10.27039        -1.77413
|143>    H       -1.46235       -16.84846        -2.94200
|144>    H       -2.92433       -19.12889        -2.99466
|145>    H       -7.25345       -20.22441         1.55401
|146>    H       -8.55185       -22.29927         1.19602
|147>    H       -8.01847       -23.84407        -0.66849
|148>    H       -6.13867       -23.29233        -2.26308
|149> *
|150> 
|151>                          ****END OF INPUT****
================================================================================

                     *******************************
                     * Energy+Gradient Calculation *
                     *******************************

---------------------------------
CARTESIAN COORDINATES (ANGSTROEM)
---------------------------------
  C     -2.433420    0.514050    1.198710
  O     -2.966200    0.984860    2.182110
  C     -1.272330    1.064810    0.447060
  C     -0.513990    2.193100    0.738490
  C      0.562590    2.498750   -0.101350
  C      0.856080    1.679890   -1.201920
  C      0.081780    0.552140   -1.504050
  C     -0.995920    0.240250   -0.666510
  C     -2.019720   -0.833400   -0.729230
  C     -2.360700   -1.544000   -1.866580
  C     -3.566070   -2.306820   -1.973350
  N     -4.561510   -2.888720   -2.117080
  C     -1.601560   -1.491600   -3.076050
  N     -1.000530   -1.494870   -4.071390
  C     -2.763000   -0.788450    0.527050
  C     -3.554510   -1.692720    1.189740
  C     -3.658220   -3.103970    1.030160
  C     -4.723260   -3.910770    1.443510
  C     -4.525090   -5.258430    1.097690
  C     -3.285330   -5.500430    0.459850
  S     -2.365840   -4.051050    0.284100
  C     -3.102750   -6.846810    0.102930
  C     -2.090820   -7.647280   -0.700290
  C     -0.717290   -7.753350   -0.035110
  C     -0.501160   -7.359130    1.289530
  C      0.754070   -7.513220    1.884030
  C      1.827810   -8.074570    1.182850
  C      3.160530   -8.306370    1.854370
  C      3.231340   -9.677440    2.543280
  C      1.606210   -8.465530   -0.147380
  C      0.360610   -8.298550   -0.749130
  C     -2.027900   -6.969420   -2.081530
  C     -2.927860   -7.300600   -3.103650
  C     -2.983420   -6.544030   -4.274700
  C     -2.152550   -5.427970   -4.464710
  C     -2.246480   -4.581830   -5.716460
  C     -3.647300   -4.002510   -5.961130
  C     -1.241090   -5.114760   -3.446250
  C     -1.175540   -5.873690   -2.275960
  C     -2.778400   -9.028160   -0.706930
  C     -4.025730   -8.982060   -0.019720
  C     -4.201620   -7.621560    0.445090
  S     -5.476170   -6.731730    1.235580
  C     -4.840450  -10.119420    0.099850
  C     -4.388290  -11.306160   -0.457250
  C     -5.084430  -12.682960   -0.483480
  C     -5.272610  -13.325890    0.900680
  C     -6.160680  -14.402020    1.044280
  C     -6.275380  -15.082710    2.255240
  C     -5.512370  -14.711890    3.373460
  C     -5.626010  -15.451360    4.690360
  C     -7.045600  -15.882410    5.067190
  C     -4.625410  -13.634960    3.221350
  C     -4.499860  -12.955760    2.006900
  C     -6.413140  -12.564160   -1.239320
  C     -6.557130  -12.978900   -2.567150
  C     -7.775880  -12.823930   -3.234000
  C     -8.882040  -12.242320   -2.603340
  C    -10.172890  -12.008260   -3.351410
  C    -10.182250  -10.652360   -4.072950
  C     -8.731300  -11.828150   -1.270310
  C     -7.523280  -11.994340   -0.597420
  C     -4.039610  -13.500340   -1.224840
  C     -2.941660  -12.722790   -1.565010
  C     -3.133790  -11.355300   -1.129670
  C     -2.323580  -10.215890   -1.258430
  S     -1.646870  -13.613730   -2.317860
  C     -2.585750  -15.092220   -2.167100
  C     -3.838800  -14.851450   -1.554770
  S     -4.743190  -16.310140   -1.367240
  C     -3.424320  -17.255670   -2.069580
  C     -2.364470  -16.443660   -2.482760
  C     -3.494820  -18.675390   -2.173770
  C     -4.251860  -19.566740   -1.455890
  C     -4.971890  -19.471120   -0.188960
  C     -4.625480  -18.683640    0.894930
  C     -5.375180  -18.660960    2.109910
  N     -5.977970  -18.607060    3.102550
  C     -3.424960  -17.906950    0.925840
  N     -2.425040  -17.318920    0.988390
  C     -5.960890  -20.577420   -0.164610
  C     -7.001080  -20.880330    0.722550
  C     -7.733400  -22.056380    0.514370
  C     -7.434660  -22.929770   -0.542140
  C     -6.397230  -22.631920   -1.432620
  C     -5.680250  -21.457150   -1.234330
  C     -4.556640  -20.913160   -2.046690
  O     -4.032610  -21.422540   -3.015470
  H     -0.769090    2.810760    1.602090
  H      1.182470    3.375100    0.100680
  H      1.704930    1.927300   -1.843480
  H      0.333680   -0.062430   -2.366610
  H     -4.122640   -1.261130    2.023970
  H     -5.609950   -3.503700    1.929960
  H     -1.317490   -6.926120    1.869280
  H      0.900220   -7.185070    2.916780
  H      3.342010   -7.512910    2.597770
  H      3.967470   -8.222180    1.107040
  H      2.459070   -9.768260    3.323340
  H      4.212100   -9.840990    3.018300
  H      3.059680  -10.488810    1.818540
  H      2.427160   -8.901120   -0.723940
  H      0.225390   -8.577750   -1.795950
  H     -3.602000   -8.149410   -2.977700
  H     -3.695950   -6.823640   -5.055050
  H     -1.943490   -5.192340   -6.586950
  H     -1.520310   -3.757880   -5.643530
  H     -4.384960   -4.795040   -6.162910
  H     -3.646700   -3.322520   -6.827650
  H     -3.999560   -3.439000   -5.083090
  H     -0.582160   -4.252210   -3.568010
  H     -0.459590   -5.600930   -1.497630
  H     -5.796660  -10.066180    0.620070
  H     -6.781090  -14.708840    0.199760
  H     -6.969610  -15.921280    2.328580
  H     -5.196990  -14.818320    5.484650
  H     -4.989680  -16.352980    4.643740
  H     -7.735450  -15.023280    5.081700
  H     -7.056520  -16.351490    6.063970
  H     -7.434320  -16.630830    4.362100
  H     -4.017470  -13.316820    4.072860
  H     -3.794760  -12.126730    1.923590
  H     -5.713790  -13.431010   -3.091100
  H     -7.866930  -13.169570   -4.267330
  H    -11.019860  -12.062040   -2.646810
  H    -10.327140  -12.815550   -4.086230
  H    -10.036870   -9.827690   -3.357360
  H    -11.132340  -10.483250   -4.604890
  H     -9.365900  -10.592830   -4.810240
  H     -9.579100  -11.374360   -0.749250
  H     -7.445060  -11.696540    0.449780
  H     -1.364990  -10.270390   -1.774130
  H     -1.462350  -16.848460   -2.942000
  H     -2.924330  -19.128890   -2.994660
  H     -7.253450  -20.224410    1.554010
  H     -8.551850  -22.299270    1.196020
  H     -8.018470  -23.844070   -0.668490
  H     -6.138670  -23.292330   -2.263080

----------------------------
CARTESIAN COORDINATES (A.U.)
----------------------------
  NO LB      ZA    FRAG     MASS         X           Y           Z
   0 C     6.0000    0    12.011   -4.598497    0.971414    2.265234
   1 O     8.0000    0    15.999   -5.605306    1.861116    4.123590
   2 C     6.0000    0    12.011   -2.404355    2.012199    0.844821
   3 C     6.0000    0    12.011   -0.971300    4.144358    1.395544
   4 C     6.0000    0    12.011    1.063141    4.721953   -0.191524
   5 C     6.0000    0    12.011    1.617757    3.174532   -2.271300
   6 C     6.0000    0    12.011    0.154542    1.043393   -2.842243
   7 C     6.0000    0    12.011   -1.882016    0.454007   -1.259521
   8 C     6.0000    0    12.011   -3.816718   -1.574898   -1.378045
   9 C     6.0000    0    12.011   -4.461076   -2.917737   -3.527325
  10 C     6.0000    0    12.011   -6.738896   -4.359258   -3.729091
  11 N     7.0000    0    14.007   -8.620005   -5.458890   -4.000701
  12 C     6.0000    0    12.011   -3.026510   -2.818716   -5.812892
  13 N     7.0000    0    14.007   -1.890728   -2.824895   -7.693812
  14 C     6.0000    0    12.011   -5.221313   -1.489955    0.995980
  15 C     6.0000    0    12.011   -6.717050   -3.198777    2.248283
  16 C     6.0000    0    12.011   -6.913034   -5.865653    1.946720
  17 C     6.0000    0    12.011   -8.925668   -7.390284    2.727839
  18 C     6.0000    0    12.011   -8.551181   -9.936993    2.074333
  19 C     6.0000    0    12.011   -6.208374  -10.394306    0.868991
  20 S    16.0000    0    32.060   -4.470790   -7.655375    0.536871
  21 C     6.0000    0    12.011   -5.863348  -12.938596    0.194510
  22 C     6.0000    0    12.011   -3.951077  -14.451265   -1.323356
  23 C     6.0000    0    12.011   -1.355482  -14.651708   -0.066348
  24 C     6.0000    0    12.011   -0.947055  -13.906740    2.436859
  25 C     6.0000    0    12.011    1.424986  -14.197928    3.560301
  26 C     6.0000    0    12.011    3.454060  -15.258726    2.235263
  27 C     6.0000    0    12.011    5.972536  -15.696764    3.504251
  28 C     6.0000    0    12.011    6.106348  -18.287711    4.806103
  29 C     6.0000    0    12.011    3.035297  -15.997533   -0.278508
  30 C     6.0000    0    12.011    0.681454  -15.681987   -1.415651
  31 C     6.0000    0    12.011   -3.832176  -13.170295   -3.933522
  32 C     6.0000    0    12.011   -5.532854  -13.796135   -5.865049
  33 C     6.0000    0    12.011   -5.637847  -12.366425   -8.078012
  34 C     6.0000    0    12.011   -4.067730  -10.257377   -8.437079
  35 C     6.0000    0    12.011   -4.245232   -8.658404  -10.802544
  36 C     6.0000    0    12.011   -6.892398   -7.563648  -11.264903
  37 C     6.0000    0    12.011   -2.345320   -9.665496   -6.512469
  38 C     6.0000    0    12.011   -2.221449  -11.099665   -4.300941
  39 C     6.0000    0    12.011   -5.250415  -17.060750   -1.335904
  40 C     6.0000    0    12.011   -7.607527  -16.973634   -0.037265
  41 C     6.0000    0    12.011   -7.939911  -14.402661    0.841098
  42 S    16.0000    0    32.060  -10.348462  -12.721126    2.334908
  43 C     6.0000    0    12.011   -9.147125  -19.122932    0.188689
  44 C     6.0000    0    12.011   -8.292666  -21.365546   -0.864077
  45 C     6.0000    0    12.011   -9.608180  -23.967321   -0.913645
  46 C     6.0000    0    12.011   -9.963789  -25.182283    1.702039
  47 C     6.0000    0    12.011  -11.641998  -27.215874    1.973403
  48 C     6.0000    0    12.011  -11.858750  -28.502191    4.261786
  49 C     6.0000    0    12.011  -10.416870  -27.801443    6.374916
  50 C     6.0000    0    12.011  -10.631618  -29.198839    8.863496
  51 C     6.0000    0    12.011  -13.314254  -30.013405    9.575601
  52 C     6.0000    0    12.011   -8.740758  -25.766340    6.087469
  53 C     6.0000    0    12.011   -8.503503  -24.482838    3.792491
  54 C     6.0000    0    12.011  -12.119078  -23.742822   -2.341975
  55 C     6.0000    0    12.011  -12.391180  -24.526567   -4.851210
  56 C     6.0000    0    12.011  -14.694284  -24.233716   -6.111374
  57 C     6.0000    0    12.011  -16.784623  -23.134632   -4.919600
  58 C     6.0000    0    12.011  -19.223976  -22.692323   -6.333247
  59 C     6.0000    0    12.011  -19.241664  -20.130043   -7.696760
  60 C     6.0000    0    12.011  -16.499766  -22.351964   -2.400538
  61 C     6.0000    0    12.011  -14.216939  -22.666018   -1.128960
  62 C     6.0000    0    12.011   -7.633757  -25.511945   -2.314612
  63 C     6.0000    0    12.011   -5.558932  -24.042589   -2.957440
  64 C     6.0000    0    12.011   -5.922005  -21.458407   -2.134767
  65 C     6.0000    0    12.011   -4.390930  -19.305234   -2.378088
  66 S    16.0000    0    32.060   -3.112133  -25.726221   -4.380121
  67 C     6.0000    0    12.011   -4.886359  -28.520163   -4.095226
  68 C     6.0000    0    12.011   -7.254281  -28.065173   -2.938090
  69 S    16.0000    0    32.060   -8.963330  -30.821698   -2.583709
  70 C     6.0000    0    12.011   -6.471027  -32.608491   -3.910939
  71 C     6.0000    0    12.011   -4.468201  -31.074014   -4.691736
  72 C     6.0000    0    12.011   -6.604253  -35.291373   -4.107830
  73 C     6.0000    0    12.011   -8.034851  -36.975780   -2.751233
  74 C     6.0000    0    12.011   -9.395510  -36.795084   -0.357083
  75 C     6.0000    0    12.011   -8.740890  -35.306963    1.691173
  76 C     6.0000    0    12.011  -10.157618  -35.264104    3.987152
  77 N     7.0000    0    14.007  -11.296726  -35.162248    5.862970
  78 C     6.0000    0    12.011   -6.472236  -33.839231    1.749584
  79 N     7.0000    0    14.007   -4.582661  -32.728016    1.867786
  80 C     6.0000    0    12.011  -11.264450  -38.885688   -0.311068
  81 C     6.0000    0    12.011  -13.230124  -39.458105    1.365422
  82 C     6.0000    0    12.011  -14.614008  -41.680518    0.972018
  83 C     6.0000    0    12.011  -14.049471  -43.330986   -1.024496
  84 C     6.0000    0    12.011  -12.089013  -42.768131   -2.707259
  85 C     6.0000    0    12.011  -10.734117  -40.548137   -2.332546
  86 C     6.0000    0    12.011   -8.610802  -39.520145   -3.867684
  87 O     8.0000    0    15.999   -7.620529  -40.482734   -5.698412
  88 H     1.0000    0     1.008   -1.453369    5.311567    3.027511
  89 H     1.0000    0     1.008    2.234544    6.378015    0.190258
  90 H     1.0000    0     1.008    3.221851    3.642069   -3.483672
  91 H     1.0000    0     1.008    0.630564   -0.117976   -4.472245
  92 H     1.0000    0     1.008   -7.790661   -2.383190    3.824749
  93 H     1.0000    0     1.008  -10.601269   -6.621033    3.647096
  94 H     1.0000    0     1.008   -2.489695  -13.088470    3.532427
  95 H     1.0000    0     1.008    1.701169  -13.577815    5.511915
  96 H     1.0000    0     1.008    6.315484  -14.197342    4.909074
  97 H     1.0000    0     1.008    7.497432  -15.537668    2.092002
  98 H     1.0000    0     1.008    4.646969  -18.459336    6.280202
  99 H     1.0000    0     1.008    7.959715  -18.596776    5.703760
 100 H     1.0000    0     1.008    5.781957  -19.820978    3.436543
 101 H     1.0000    0     1.008    4.586668  -16.820679   -1.368048
 102 H     1.0000    0     1.008    0.425925  -16.209598   -3.393854
 103 H     1.0000    0     1.008   -6.806794  -15.400153   -5.627038
 104 H     1.0000    0     1.008   -6.984333  -12.894811   -9.552660
 105 H     1.0000    0     1.008   -3.672664   -9.812101  -12.447532
 106 H     1.0000    0     1.008   -2.872970   -7.101364  -10.664726
 107 H     1.0000    0     1.008   -8.286374   -9.061312  -11.646212
 108 H     1.0000    0     1.008   -6.891264   -6.278653  -12.902389
 109 H     1.0000    0     1.008   -7.558073   -6.498768   -9.605648
 110 H     1.0000    0     1.008   -1.100123   -8.035512   -6.742562
 111 H     1.0000    0     1.008   -0.868499  -10.584224   -2.830111
 112 H     1.0000    0     1.008  -10.954100  -19.022323    1.171762
 113 H     1.0000    0     1.008  -12.814403  -27.795679    0.377492
 114 H     1.0000    0     1.008  -13.170654  -30.086859    4.400378
 115 H     1.0000    0     1.008   -9.820888  -28.002567   10.364486
 116 H     1.0000    0     1.008   -9.429129  -30.902654    8.775397
 117 H     1.0000    0     1.008  -14.617882  -28.389885    9.603021
 118 H     1.0000    0     1.008  -13.334890  -30.899838   11.459243
 119 H     1.0000    0     1.008  -14.048829  -31.427714    8.243174
 120 H     1.0000    0     1.008   -7.591918  -25.165143    7.696590
 121 H     1.0000    0     1.008   -7.171057  -22.916199    3.635058
 122 H     1.0000    0     1.008  -10.797498  -25.380931   -5.841332
 123 H     1.0000    0     1.008  -14.866343  -24.886881   -8.064085
 124 H     1.0000    0     1.008  -20.824517  -22.793952   -5.001746
 125 H     1.0000    0     1.008  -19.515466  -24.217880   -7.721856
 126 H     1.0000    0     1.008  -18.966936  -18.571643   -6.344491
 127 H     1.0000    0     1.008  -21.037074  -19.810471   -8.701981
 128 H     1.0000    0     1.008  -17.698986  -20.017548   -9.090036
 129 H     1.0000    0     1.008  -18.101876  -21.494425   -1.415877
 130 H     1.0000    0     1.008  -14.069124  -22.103257    0.849961
 131 H     1.0000    0     1.008   -2.579457  -19.408224   -3.352620
 132 H     1.0000    0     1.008   -2.763441  -31.838975   -5.559574
 133 H     1.0000    0     1.008   -5.526183  -36.148363   -5.659087
 134 H     1.0000    0     1.008  -13.707034  -38.218596    2.936653
 135 H     1.0000    0     1.008  -16.160654  -42.139513    2.260150
 136 H     1.0000    0     1.008  -15.152712  -45.058762   -1.263263
 137 H     1.0000    0     1.008  -11.600405  -44.016125   -4.276601

--------------------------------
INTERNAL COORDINATES (ANGSTROEM)
--------------------------------
 C      0   0   0     0.000000000000     0.00000000     0.00000000
 O      1   0   0     1.213504076837     0.00000000     0.00000000
 C      1   2   0     1.488772745653   127.44673540     0.00000000
 C      3   1   2     1.390341441733   128.29938267     3.20367518
 C      4   3   1     1.399206076495   118.10756548   178.32166030
 C      5   4   3     1.402826576808   120.28900815   359.97451404
 C      6   5   4     1.400943642478   121.56426261     0.79775538
 C      7   6   5     1.400066396176   118.40847038   359.14678331
 C      8   7   6     1.484865165899   131.80068584   177.63764484
 C      9   8   7     1.383757472572   125.16499518   339.68108841
 C     10   9   8     1.430458325922   122.87719045   196.84726630
 N     11  10   9     1.161966745006   176.53390378   123.59206247
 C     10   9   8     1.428935611041   123.08948938    11.36132427
 N     13  10   9     1.162733619278   177.53047619   153.21681479
 C      9   8   7     1.460385257150   106.99764667   171.28454583
 C     15   9   8     1.372352122853   133.52428933   199.80570093
 C     16  15   9     1.424025316840   129.85890821    17.37314293
 C     17  16  15     1.398604541713   126.44317698   199.71704044
 C     18  17  16     1.405364826976   111.90510275   178.27433042
 C     19  18  17     1.415064918369   113.48145001     2.13912843
 S     20  19  18     1.725413662575   111.66297566   359.80468305
 C     20  19  18     1.404801212699   113.09737287   180.74136964
 C     22  20  19     1.519841081890   136.51761896   172.10631987
 C     23  22  20     1.529803888804   113.86114303    69.45588852
 C     24  23  22     1.398854072053   122.06814253    10.98841277
 C     25  24  23     1.397417736756   120.70153780   177.67969338
 C     26  25  24     1.399887424938   121.33908436   359.42657393
 C     27  26  25     1.510236057310   121.04383656   183.32246713
 C     28  27  26     1.536048172780   112.15432396    88.13486896
 C     27  26  25     1.404089788618   117.71899163     0.70796110
 C     30  27  26     1.393378894235   121.12214956     0.08971885
 C     23  22  20     1.539895140456   105.62859139   305.42933802
 C     32  23  22     1.401548246904   121.59339009   274.11041235
 C     33  32  23     1.395293224021   120.63159454   170.53276760
 C     34  33  32     1.404292946860   121.39517271   359.56789264
 C     35  34  33     1.513820929635   121.29134866   182.03938649
 C     36  35  34     1.535503742653   113.53083823    57.08612334
 C     35  34  33     1.402184227304   117.63555129     1.34563264
 C     38  35  34     1.396370377622   121.18818818   359.06896895
 C     23  22  20     1.542608155171   100.19317123   186.66694826
 C     40  23  22     1.424856106068   111.04822000     1.19715416
 C     22  20  19     1.387381095806   111.69107857     0.97614364
 S     42  22  20     1.743889208493   113.93698627   359.04052911
 C     41  40  23     1.404155772306   121.51977848   179.61946394
 C     44  41  40     1.386780769696   118.01909475     0.88044380
 C     45  44  41     1.543009122624   128.55761556   180.78053404
 C     46  45  44     1.537748224808   114.39155920   295.01173341
 C     47  46  45     1.402620783320   119.36766420   164.80824002
 C     48  47  46     1.393886325243   121.04509263   174.58393795
 C     49  48  47     1.403605251094   121.22351235     0.31016414
 C     50  49  48     1.514580978522   121.52842704   180.33467982
 C     51  50  49     1.530699421670   114.90550735   321.21378654
 C     50  49  48     1.403429270965   117.38311666   359.64943647
 C     53  50  49     1.397127139884   121.60422986   359.88184670
 C     46  45  44     1.533257254899   109.28176128    61.10641686
 C     55  46  45     1.398525972801   122.29573491   100.89232088
 C     56  55  46     1.397875597433   120.65179192   181.60709763
 C     57  56  55     1.399854340030   121.33778517     0.54057549
 C     58  57  56     1.510194203075   121.10829870   176.61056012
 C     59  58  57     1.535959762233   112.00719872   272.42976204
 C     58  57  56     1.404004386532   117.74051399   359.46625368
 C     61  58  57     1.392735577416   121.10738369   359.80452382
 C     46  45  44     1.519662313279   100.25551846   180.49398413
 C     63  46  45     1.387729740944   111.23414827   359.83969574
 C     45  44  41     1.424195789209   120.42407383   359.90766589
 C     40  23  22     1.386259728658   128.49416441   182.10144209
 S     64  63  46     1.742710059132   114.03384952   175.82671308
 C     67  64  63     1.757884214646    89.77731947   359.46852549
 C     63  46  45     1.405231900115   136.88162801   172.93343735
 S     69  63  46     1.726518256231   135.39597261     4.61464131
 C     70  69  63     1.768255222925    91.02762276   182.88272458
 C     71  70  69     1.397626550621   111.86077925   357.25796620
 C     71  70  69     1.425282668280   121.65344563   177.27002573
 C     73  71  70     1.372212111337   129.50027767   337.25188520
 C     74  73  71     1.460375982478   133.10473252   343.05519959
 C     75  74  73     1.383814355541   126.39479244   328.94028884
 C     76  75  74     1.427844834987   122.96280510   180.91832253
 N     77  76  75     1.162581250365   178.20586790   214.95481632
 C     76  75  74     1.430192663455   122.41841021   355.77068386
 N     79  76  75     1.161693500800   176.93857778   256.71261758
 C     75  74  73     1.484120484496   107.09667218   160.92922162
 C     81  75  74     1.400286602735   131.81020028   187.85627862
 C     82  81  75     1.400972910980   118.40790301   183.34985312
 C     83  82  81     1.402950127339   121.54626570     0.80549283
 C     84  83  82     1.399260611109   120.30503965   359.12247094
 C     85  84  83     1.390490488065   118.12404589     0.15035855
 C     86  85  84     1.489413751044   128.30049668   180.97174260
 O     87  86  85     1.213511480663   127.43680792   357.58887368
 H      4   3   1     1.091963756541   119.82692068   358.22368102
 H      5   4   3     1.092271329753   120.05965195   180.28589808
 H      6   5   4     1.092408927188   119.41399216   180.49792430
 H      7   6   5     1.088650379369   119.82972951   179.86052717
 H     16  15   9     1.097716410509   113.97971588   191.41698721
 H     18  17  16     1.090210412489   122.39982171     1.07186983
 H     25  24  23     1.090872307605   119.96715289   357.67215632
 H     26  25  24     1.093441725699   119.26058838   179.20998105
 H     28  27  26     1.102341744651   109.55205588   326.43273575
 H     28  27  26     1.103060401157   109.42631740   210.19895502
 H     29  28  27     1.101427632167   111.03351941   299.56393394
 H     29  28  27     1.101944998854   111.52100399   179.25682549
 H     29  28  27     1.101379362481   110.80903051    58.60327303
 H     30  27  26     1.093672247156   119.46402321   179.58904392
 H     31  30  27     1.091819216171   119.61258681   177.79080874
 H     33  32  23     1.091240834188   119.75626365   351.41285234
 H     34  33  32     1.093081367282   119.10553942   180.10179915
 H     36  35  34     1.105566931624   108.98980180   294.82064200
 H     36  35  34     1.100697622556   108.82541515   179.00589517
 H     37  36  35     1.101345197883   111.63743676   294.71874401
 H     37  36  35     1.101473408894   110.96332320   174.84115209
 H     37  36  35     1.101174313767   110.96829347    54.56905559
 H     38  35  34     1.092248481345   119.18142224   179.96244045
 H     39  38  35     1.092144683181   119.49273589   180.40655472
 H     44  41  40     1.089862794163   120.67345522   180.60788526
 H     48  47  46     1.091907098109   119.74575110   353.98258939
 H     49  48  47     1.091115802012   119.08201862   180.57007788
 H     51  50  49     1.102585328263   108.47280091   197.40866041
 H     51  50  49     1.104539685887   108.57914231    82.69612900
 H     52  51  50     1.101911030664   111.36382207   304.27142644
 H     52  51  50     1.101692180784   110.59941665   183.80373363
 H     52  51  50     1.099266866098   111.20890620    65.46578615
 H     53  50  49     1.093559958713   119.35300623   179.80446490
 H     54  53  50     1.091511478181   119.57955001   180.40081358
 H     56  55  46     1.090939691367   119.95397448     1.78464264
 H     57  56  55     1.093402030819   119.23501541   180.88219298
 H     59  58  57     1.103046521820   109.41147019   150.46103716
 H     59  58  57     1.102483849768   109.64899620    34.10171998
 H     60  59  58     1.101492170376   110.78897320   301.39882187
 H     60  59  58     1.101920761126   111.56185097   180.77172982
 H     60  59  58     1.101620482517   110.95232274    60.41216350
 H     61  58  57     1.093706417509   119.43945449   180.27606552
 H     62  61  58     1.091526934345   119.54608194   182.22411579
 H     66  40  23     1.089867665407   121.30957220   359.93576583
 H     72  71  70     1.090222414006   122.43149118   180.11875807
 H     73  71  70     1.097716485346   116.13435820   151.94498157
 H     82  81  75     1.088690679165   121.71747667     3.87708103
 H     83  82  81     1.092475481235   119.04697383   180.43365206
 H     84  83  82     1.092127707093   119.63462834   179.28596985
 H     85  84  83     1.092089031764   122.05590519   179.84441921

---------------------------
INTERNAL COORDINATES (A.U.)
---------------------------
 C      0   0   0     0.000000000000     0.00000000     0.00000000
 O      1   0   0     2.293190367619     0.00000000     0.00000000
 C      1   2   0     2.813372764931   127.44673540     0.00000000
 C      3   1   2     2.627364557516   128.29938267     3.20367518
 C      4   3   1     2.644116289494   118.10756548   178.32166030
 C      5   4   3     2.650958043554   120.28900815   359.97451404
 C      6   5   4     2.647399813342   121.56426261     0.79775538
 C      7   6   5     2.645742058078   118.40847038   359.14678331
 C      8   7   6     2.805988509348   131.80068584   177.63764484
 C      9   8   7     2.614922658929   125.16499518   339.68108841
 C     10   9   8     2.703174481980   122.87719045   196.84726630
 N     11  10   9     2.195798924785   176.53390378   123.59206247
 C     10   9   8     2.700296967874   123.08948938    11.36132427
 N     13  10   9     2.197248107139   177.53047619   153.21681479
 C      9   8   7     2.759728186029   106.99764667   171.28454583
 C     15   9   8     2.593369671498   133.52428933   199.80570093
 C     16  15   9     2.691017856597   129.85890821    17.37314293
 C     17  16  15     2.642979553496   126.44317698   199.71704044
 C     18  17  16     2.655754641229   111.90510275   178.27433042
 C     19  18  17     2.674085157438   113.48145001     2.13912843
 S     20  19  18     3.260559289993   111.66297566   359.80468305
 C     20  19  18     2.654689564601   113.09737287   180.74136964
 C     22  20  19     2.872083411854   136.51761896   172.10631987
 C     23  22  20     2.890910388447   113.86114303    69.45588852
 C     24  23  22     2.643451097501   122.06814253    10.98841277
 C     25  24  23     2.640736817153   120.70153780   177.67969338
 C     26  25  24     2.645403851453   121.33908436   359.42657393
 C     27  26  25     2.853932545889   121.04383656   183.32246713
 C     28  27  26     2.902710375064   112.15432396    88.13486896
 C     27  26  25     2.653345167922   117.71899163     0.70796110
 C     30  27  26     2.633104510890   121.12214956     0.08971885
 C     23  22  20     2.909980090418   105.62859139   305.42933802
 C     32  23  22     2.648542350126   121.59339009   274.11041235
 C     33  32  23     2.636722069916   120.63159454   170.53276760
 C     34  33  32     2.653729081362   121.39517271   359.56789264
 C     35  34  33     2.860706972808   121.29134866   182.03938649
 C     36  35  34     2.901681551224   113.53083823    57.08612334
 C     35  34  33     2.649744178908   117.63555129     1.34563264
 C     38  35  34     2.638757595226   121.18818818   359.06896895
 C     23  22  20     2.915106945227   100.19317123   186.66694826
 C     40  23  22     2.692587820714   111.04822000     1.19715416
 C     22  20  19     2.621770314453   111.69107857     0.97614364
 S     42  22  20     3.295473011953   113.93698627   359.04052911
 C     41  40  23     2.653469859023   121.51977848   179.61946394
 C     44  41  40     2.620635862515   118.01909475     0.88044380
 C     45  44  41     2.915864663901   128.55761556   180.78053404
 C     46  45  44     2.905923007811   114.39155920   295.01173341
 C     47  46  45     2.650569150220   119.36766420   164.80824002
 C     48  47  46     2.634063416528   121.04509263   174.58393795
 C     49  48  47     2.652429524702   121.22351235     0.31016414
 C     50  49  48     2.862143257053   121.52842704   180.33467982
 C     51  50  49     2.892602700307   114.90550735   321.21378654
 C     50  49  48     2.652096970452   117.38311666   359.64943647
 C     53  50  49     2.640187668649   121.60422986   359.88184670
 C     46  45  44     2.897436304607   109.28176128    61.10641686
 C     55  46  45     2.642831079770   122.29573491   100.89232088
 C     56  55  46     2.641602048441   120.65179192   181.60709763
 C     57  56  55     2.645341330037   121.33778517     0.54057549
 C     58  57  56     2.853853452846   121.10829870   176.61056012
 C     59  58  57     2.902543303344   112.00719872   272.42976204
 C     58  57  56     2.653183781369   117.74051399   359.46625368
 C     61  58  57     2.631888818285   121.10738369   359.80452382
 C     46  45  44     2.871745588138   100.25551846   180.49398413
 C     63  46  45     2.622429158281   111.23414827   359.83969574
 C     45  44  41     2.691340002688   120.42407383   359.90766589
 C     40  23  22     2.619651237648   128.49416441   182.10144209
 S     64  63  46     3.293244742589   114.03384952   175.82671308
 C     67  64  63     3.321919740823    89.77731947   359.46852549
 C     63  46  45     2.655503445867   136.88162801   172.93343735
 S     69  63  46     3.262646669492   135.39597261     4.61464131
 C     70  69  63     3.341518106203    91.02762276   182.88272458
 C     71  70  69     2.641131418170   111.86077925   357.25796620
 C     71  70  69     2.693393906474   121.65344563   177.27002573
 C     73  71  70     2.593105088077   129.50027767   337.25188520
 C     74  73  71     2.759710659441   133.10473252   343.05519959
 C     75  74  73     2.615030152160   126.39479244   328.94028884
 C     76  75  74     2.698235699860   122.96280510   180.91832253
 N     77  76  75     2.196960171621   178.20586790   214.95481632
 C     76  75  74     2.702672452673   122.41841021   355.77068386
 N     79  76  75     2.195282568067   176.93857778   256.71261758
 C     75  74  73     2.804581265440   107.09667218   160.92922162
 C     81  75  74     2.646158188169   131.81020028   187.85627862
 C     82  81  75     2.647455122795   118.40790301   183.34985312
 C     83  82  81     2.651191520220   121.54626570     0.80549283
 C     84  83  82     2.644219344979   120.30503965   359.12247094
 C     85  84  83     2.627646214266   118.12404589     0.15035855
 C     86  85  84     2.814584089570   128.30049668   180.97174260
 O     87  86  85     2.293204358822   127.43680792   357.58887368
 H      4   3   1     2.063512448031   119.82692068   358.22368102
 H      5   4   3     2.064093677167   120.05965195   180.28589808
 H      6   5   4     2.064353698636   119.41399216   180.49792430
 H      7   6   5     2.057251072597   119.82972951   179.86052717
 H     16  15   9     2.074383388572   113.97971588   191.41698721
 H     18  17  16     2.060199107954   122.39982171     1.07186983
 H     25  24  23     2.061449908453   119.96715289   357.67215632
 H     26  25  24     2.066305404974   119.26058838   179.20998105
 H     28  27  26     2.083124003379   109.55205588   326.43273575
 H     28  27  26     2.084482067359   109.42631740   210.19895502
 H     29  28  27     2.081396581128   111.03351941   299.56393394
 H     29  28  27     2.082374262479   111.52100399   179.25682549
 H     29  28  27     2.081305364643   110.80903051    58.60327303
 H     30  27  26     2.066741027396   119.46402321   179.58904392
 H     31  30  27     2.063239306316   119.61258681   177.79080874
 H     33  32  23     2.062146322768   119.75626365   351.41285234
 H     34  33  32     2.065624426256   119.10553942   180.10179915
 H     36  35  34     2.089218723489   108.98980180   294.82064200
 H     36  35  34     2.080017062889   108.82541515   179.00589517
 H     37  36  35     2.081240802908   111.63743676   294.71874401
 H     37  36  35     2.081483086606   110.96332320   174.84115209
 H     37  36  35     2.080917878728   110.96829347    54.56905559
 H     38  35  34     2.064050499933   119.18142224   179.96244045
 H     39  38  35     2.063854349830   119.49273589   180.40655472
 H     44  41  40     2.059542204518   120.67345522   180.60788526
 H     48  47  46     2.063405379110   119.74575110   353.98258939
 H     49  48  47     2.061910046196   119.08201862   180.57007788
 H     51  50  49     2.083584309696   108.47280091   197.40866041
 H     51  50  49     2.087277510374   108.57914231    82.69612900
 H     52  51  50     2.082310071903   111.36382207   304.27142644
 H     52  51  50     2.081896505564   110.59941665   183.80373363
 H     52  51  50     2.077313325018   111.20890620    65.46578615
 H     53  50  49     2.066528832989   119.35300623   179.80446490
 H     54  53  50     2.062657765793   119.57955001   180.40081358
 H     56  55  46     2.061577245308   119.95397448     1.78464264
 H     57  56  55     2.066230392522   119.23501541   180.88219298
 H     59  58  57     2.084455839215   109.41147019   150.46103716
 H     59  58  57     2.083392543133   109.64899620    34.10171998
 H     60  59  58     2.081518540669   110.78897320   301.39882187
 H     60  59  58     2.082328459810   111.56185097   180.77172982
 H     60  59  58     2.081761015474   110.95232274    60.41216350
 H     61  58  57     2.066805600004   119.43945449   180.27606552
 H     62  61  58     2.062686973710   119.54608194   182.22411579
 H     66  40  23     2.059551409836   121.30957220   359.93576583
 H     72  71  70     2.060221787533   122.43149118   180.11875807
 H     73  71  70     2.074383529994   116.13435820   151.94498157
 H     82  81  75     2.057327228174   121.71747667     3.87708103
 H     83  82  81     2.064479467558   119.04697383   180.43365206
 H     84  83  82     2.063822269673   119.63462834   179.28596985
 H     85  84  83     2.063749183894   122.05590519   179.84441921

---------------------
BASIS SET INFORMATION
---------------------
There are 5 groups of distinct atoms

 Group   1 Type C   : 7s4p1d contracted to 3s2p1d pattern {511/31/1}
 Group   2 Type O   : 7s4p1d contracted to 3s2p1d pattern {511/31/1}
 Group   3 Type N   : 7s4p1d contracted to 3s2p1d pattern {511/31/1}
 Group   4 Type S   : 10s7p1d contracted to 4s3p1d pattern {5311/511/1}
 Group   5 Type H   : 4s1p contracted to 2s1p pattern {31/1}

Atom   0C    basis set group =>   1
Atom   1O    basis set group =>   2
Atom   2C    basis set group =>   1
Atom   3C    basis set group =>   1
Atom   4C    basis set group =>   1
Atom   5C    basis set group =>   1
Atom   6C    basis set group =>   1
Atom   7C    basis set group =>   1
Atom   8C    basis set group =>   1
Atom   9C    basis set group =>   1
Atom  10C    basis set group =>   1
Atom  11N    basis set group =>   3
Atom  12C    basis set group =>   1
Atom  13N    basis set group =>   3
Atom  14C    basis set group =>   1
Atom  15C    basis set group =>   1
Atom  16C    basis set group =>   1
Atom  17C    basis set group =>   1
Atom  18C    basis set group =>   1
Atom  19C    basis set group =>   1
Atom  20S    basis set group =>   4
Atom  21C    basis set group =>   1
Atom  22C    basis set group =>   1
Atom  23C    basis set group =>   1
Atom  24C    basis set group =>   1
Atom  25C    basis set group =>   1
Atom  26C    basis set group =>   1
Atom  27C    basis set group =>   1
Atom  28C    basis set group =>   1
Atom  29C    basis set group =>   1
Atom  30C    basis set group =>   1
Atom  31C    basis set group =>   1
Atom  32C    basis set group =>   1
Atom  33C    basis set group =>   1
Atom  34C    basis set group =>   1
Atom  35C    basis set group =>   1
Atom  36C    basis set group =>   1
Atom  37C    basis set group =>   1
Atom  38C    basis set group =>   1
Atom  39C    basis set group =>   1
Atom  40C    basis set group =>   1
Atom  41C    basis set group =>   1
Atom  42S    basis set group =>   4
Atom  43C    basis set group =>   1
Atom  44C    basis set group =>   1
Atom  45C    basis set group =>   1
Atom  46C    basis set group =>   1
Atom  47C    basis set group =>   1
Atom  48C    basis set group =>   1
Atom  49C    basis set group =>   1
Atom  50C    basis set group =>   1
Atom  51C    basis set group =>   1
Atom  52C    basis set group =>   1
Atom  53C    basis set group =>   1
Atom  54C    basis set group =>   1
Atom  55C    basis set group =>   1
Atom  56C    basis set group =>   1
Atom  57C    basis set group =>   1
Atom  58C    basis set group =>   1
Atom  59C    basis set group =>   1
Atom  60C    basis set group =>   1
Atom  61C    basis set group =>   1
Atom  62C    basis set group =>   1
Atom  63C    basis set group =>   1
Atom  64C    basis set group =>   1
Atom  65C    basis set group =>   1
Atom  66S    basis set group =>   4
Atom  67C    basis set group =>   1
Atom  68C    basis set group =>   1
Atom  69S    basis set group =>   4
Atom  70C    basis set group =>   1
Atom  71C    basis set group =>   1
Atom  72C    basis set group =>   1
Atom  73C    basis set group =>   1
Atom  74C    basis set group =>   1
Atom  75C    basis set group =>   1
Atom  76C    basis set group =>   1
Atom  77N    basis set group =>   3
Atom  78C    basis set group =>   1
Atom  79N    basis set group =>   3
Atom  80C    basis set group =>   1
Atom  81C    basis set group =>   1
Atom  82C    basis set group =>   1
Atom  83C    basis set group =>   1
Atom  84C    basis set group =>   1
Atom  85C    basis set group =>   1
Atom  86C    basis set group =>   1
Atom  87O    basis set group =>   2
Atom  88H    basis set group =>   5
Atom  89H    basis set group =>   5
Atom  90H    basis set group =>   5
Atom  91H    basis set group =>   5
Atom  92H    basis set group =>   5
Atom  93H    basis set group =>   5
Atom  94H    basis set group =>   5
Atom  95H    basis set group =>   5
Atom  96H    basis set group =>   5
Atom  97H    basis set group =>   5
Atom  98H    basis set group =>   5
Atom  99H    basis set group =>   5
Atom 100H    basis set group =>   5
Atom 101H    basis set group =>   5
Atom 102H    basis set group =>   5
Atom 103H    basis set group =>   5
Atom 104H    basis set group =>   5
Atom 105H    basis set group =>   5
Atom 106H    basis set group =>   5
Atom 107H    basis set group =>   5
Atom 108H    basis set group =>   5
Atom 109H    basis set group =>   5
Atom 110H    basis set group =>   5
Atom 111H    basis set group =>   5
Atom 112H    basis set group =>   5
Atom 113H    basis set group =>   5
Atom 114H    basis set group =>   5
Atom 115H    basis set group =>   5
Atom 116H    basis set group =>   5
Atom 117H    basis set group =>   5
Atom 118H    basis set group =>   5
Atom 119H    basis set group =>   5
Atom 120H    basis set group =>   5
Atom 121H    basis set group =>   5
Atom 122H    basis set group =>   5
Atom 123H    basis set group =>   5
Atom 124H    basis set group =>   5
Atom 125H    basis set group =>   5
Atom 126H    basis set group =>   5
Atom 127H    basis set group =>   5
Atom 128H    basis set group =>   5
Atom 129H    basis set group =>   5
Atom 130H    basis set group =>   5
Atom 131H    basis set group =>   5
Atom 132H    basis set group =>   5
Atom 133H    basis set group =>   5
Atom 134H    basis set group =>   5
Atom 135H    basis set group =>   5
Atom 136H    basis set group =>   5
Atom 137H    basis set group =>   5
------------------------------------------------------------------------------
                           ORCA GTO INTEGRAL CALCULATION
------------------------------------------------------------------------------

                         BASIS SET STATISTICS AND STARTUP INFO

 # of primitive gaussian shells          ... 1330
 # of primitive gaussian functions       ... 2510
 # of contracted shells                  ...  686
 # of contracted basis functions         ... 1498
 Highest angular momentum                ...    2
 Maximum contraction depth               ...    5
 Integral package used                   ... LIBINT
 Integral threshhold            Thresh   ...  2.500e-11
 Primitive cut-off              TCut     ...  2.500e-12


------------------------------ INTEGRAL EVALUATION ----------------------------


 * One electron integrals 
 Pre-screening matrix                    ... done
 Shell pair data                         ... done (   0.028 sec)

-------------------------------------------------------------------------------
                                 ORCA SCF
-------------------------------------------------------------------------------

------------
SCF SETTINGS
------------
Hamiltonian:
 Ab initio Hamiltonian  Method          .... Hartree-Fock(GTOs)


General Settings:
 Integral files         IntName         .... ITIC
 Hartree-Fock type      HFTyp           .... RHF
 Total Charge           Charge          ....    0
 Multiplicity           Mult            ....    1
 Number of Electrons    NEL             ....  626
 Basis Dimension        Dim             .... 1498
 Nuclear Repulsion      ENuc            ....  15334.0957068177 Eh

Convergence Acceleration:
 DIIS                   CNVDIIS         .... on
   Start iteration      DIISMaxIt       ....    12
   Startup error        DIISStart       ....  0.200000
   # of expansion vecs  DIISMaxEq       ....     5
   Bias factor          DIISBfac        ....   1.050
   Max. coefficient     DIISMaxC        ....  10.000
 Newton-Raphson         CNVNR           .... off
 SOSCF                  CNVSOSCF        .... on
   Start iteration      SOSCFMaxIt      ....   150
   Startup grad/error   SOSCFStart      ....  0.003300
 Level Shifting         CNVShift        .... on
   Level shift para.    LevelShift      ....    0.2500
   Turn off err/grad.   ShiftErr        ....    0.0010
 Zerner damping         CNVZerner       .... off
 Static damping         CNVDamp         .... on
   Fraction old density DampFac         ....    0.7000
   Max. Damping (<1)    DampMax         ....    0.9800
   Min. Damping (>=0)   DampMin         ....    0.0000
   Turn off err/grad.   DampErr         ....    0.1000
 Fernandez-Rico         CNVRico         .... off

SCF Procedure:
 Maximum # iterations   MaxIter         ....   125
 SCF integral mode      SCFMode         .... Direct
   Integral package                     .... LIBINT
 Reset frequency        DirectResetFreq ....    20
 Integral Threshold     Thresh          ....  2.500e-11 Eh
 Primitive CutOff       TCut            ....  2.500e-12 Eh

Convergence Tolerance:
 Convergence Check Mode ConvCheckMode   .... Total+1el-Energy
 Convergence forced     ConvForced      .... 1
 Energy Change          TolE            ....  1.000e-08 Eh
 1-El. energy change                    ....  1.000e-05 Eh
 Orbital Gradient       TolG            ....  1.000e-05
 Orbital Rotation angle TolX            ....  1.000e-05
 DIIS Error             TolErr          ....  5.000e-07


Diagonalization of the overlap matrix:
Smallest eigenvalue                        ... 2.065e-04
Time for diagonalization                   ...    0.847 sec
Threshold for overlap eigenvalues          ... 1.000e-08
Number of eigenvalues below threshold      ... 0
Time for construction of square roots      ...    0.267 sec
Total time needed                          ...    1.121 sec

-------------------
DFT GRID GENERATION
-------------------

General Integration Accuracy     IntAcc      ...  4.340
Radial Grid Type                 RadialGrid  ... Gauss-Chebyshev
Angular Grid (max. acc.)         AngularGrid ... Lebedev-110
Angular grid pruning method      GridPruning ... 3 (G Style)
Weight generation scheme         WeightScheme... Becke
Basis function cutoff            BFCut       ...    1.0000e-11
Integration weight cutoff        WCut        ...    1.0000e-14
Grids for H and He will be reduced by one unit

# of grid points (after initial pruning)     ... 186332 (   0.4 sec)
# of grid points (after weights+screening)   ... 160227 (  13.7 sec)
nearest neighbour list constructed           ...    0.0 sec
Grid point re-assignment to atoms done       ...    0.0 sec
Grid point division into batches done        ...    0.1 sec
Reduced shell lists constructed in    3.5 sec

Total number of grid points                  ...   160227
Total number of batches                      ...     2574
Average number of points per batch           ...       62
Average number of grid points per atom       ...     1161
Average number of shells per batch           ...   130.70 (19.05%)
Average number of basis functions per batch  ...   264.51 (17.66%)
Average number of large shells per batch     ...    72.61 (55.55%)
Average number of large basis fcns per batch ...   150.59 (56.93%)
Maximum spatial batch extension              ...  25.04, 22.44, 20.68 au
Average spatial batch extension              ...   3.25,  3.11,  3.24 au

Time for grid setup =   17.662 sec

------------------------------
INITIAL GUESS: MODEL POTENTIAL
------------------------------
Loading Hartree-Fock densities                     ... done
Calculating cut-offs                               ... done
Setting up the integral package                    ... done
Initializing the effective Hamiltonian             ... done
Starting the Coulomb interaction                   ... done (  17.8 sec)
Reading the grid                                   ... done
Mapping shells                                     ... done
Starting the XC term evaluation                    ... done (   3.5 sec)
Transforming the Hamiltonian                       ... done (   0.3 sec)
Diagonalizing the Hamiltonian                      ... done (   0.8 sec)
Back transforming the eigenvectors                 ... done (   0.1 sec)
Now organizing SCF variables                       ... done
                      ------------------
                      INITIAL GUESS DONE (  40.5 sec)
                      ------------------
--------------
SCF ITERATIONS
--------------
ITER       Energy         Delta-E        Max-DP      RMS-DP      [F,P]     Damp
               ***  Starting incremental Fock matrix formation  ***
  0  -4934.6291944586   0.000000000000 0.28935667  0.00125009  0.2255532 0.7000
  1  -4935.5578859328  -0.928691474117 0.22115075  0.00097406  0.1344060 0.7000
                               ***Turning on DIIS***
  2  -4936.1246461223  -0.566760189544 0.52579792  0.00228725  0.0754821 0.0000
  3  -4932.7101265730   3.414519549257 0.05195764  0.00044514  0.0530608 0.0000
  4  -4937.6767288419  -4.966602268843 0.02496387  0.00018412  0.0225368 0.0000
  5  -4937.5960082934   0.080720548518 0.01186876  0.00009051  0.0087114 0.0000
  6  -4937.3061040563   0.289904237077 0.00495138  0.00004961  0.0022275 0.0000
  7  -4937.3693531685  -0.063249112231 0.00265174  0.00003017  0.0014703 0.0000
  8  -4937.3353198281   0.034033340446 0.00288514  0.00003356  0.0008949 0.0000
                      *** Initiating the SOSCF procedure ***
                           *** Shutting down DIIS ***
                      *** Re-Reading the Fockian *** 
                      *** Removing any level shift *** 
ITER      Energy       Delta-E        Grad      Rot      Max-DP    RMS-DP
  9  -4937.34027943  -0.0049596037  0.000979  0.000979  0.001059  0.000012
               *** Restarting incremental Fock matrix formation ***
 10  -4937.35270659  -0.0124271558  0.000296  0.001194  0.000318  0.000004
 11  -4937.35271119  -0.0000045981  0.000154  0.001562  0.000394  0.000005
 12  -4937.35271500  -0.0000038176  0.000047  0.000514  0.000179  0.000002
 13  -4937.35271542  -0.0000004161  0.000024  0.000167  0.000070  0.000001
 14  -4937.35271549  -0.0000000728  0.000012  0.000058  0.000038  0.000000
 15  -4937.35271553  -0.0000000388  0.000004  0.000031  0.000025  0.000000
                  ***Gradient check signals convergence***
              ***Rediagonalizing the Fockian in SOSCF/NRSCF***

               *****************************************************
               *                     SUCCESS                       *
               *           SCF CONVERGED AFTER  16 CYCLES          *
               *****************************************************


----------------
TOTAL SCF ENERGY
----------------

Total Energy       :        -4937.35271560 Eh         -134352.19773 eV

Components:
Nuclear Repulsion  :        15334.09570682 Eh          417261.95737 eV
Electronic Energy  :       -20271.44842241 Eh         -551614.15510 eV
One Electron Energy:       -37316.77568002 Eh        -1015441.09028 eV
Two Electron Energy:        17045.32725760 Eh          463826.93519 eV

Virial components:
Potential Energy   :        -9856.91216484 Eh         -268220.21606 eV
Kinetic Energy     :         4919.55944925 Eh          133868.01833 eV
Virial Ratio       :            2.00361684


---------------
SCF CONVERGENCE
---------------

  Last Energy change         ...   -6.5749e-08  Tolerance :   1.0000e-08
  Last MAX-Density change    ...    6.5270e-06  Tolerance :   1.0000e-07
  Last RMS-Density change    ...    7.4587e-08  Tolerance :   5.0000e-09
  Last Orbital Gradient      ...    1.9925e-06  Tolerance :   1.0000e-05
  Last Orbital Rotation      ...    1.0573e-05  Tolerance :   1.0000e-05

             **** THE GBW FILE WAS UPDATED (ITIC.gbw) ****
             **** DENSITY FILE WAS UPDATED (ITIC.scfp) ****
             **** ENERGY FILE WAS UPDATED (ITIC.en.tmp) ****
             **** THE GBW FILE WAS UPDATED (ITIC.gbw) ****
             **** DENSITY FILE WAS UPDATED (ITIC.scfp) ****
----------------
ORBITAL ENERGIES
----------------

  NO   OCC          E(Eh)            E(eV) 
   0   2.0000     -91.975215     -2502.7728 
   1   2.0000     -91.974936     -2502.7653 
   2   2.0000     -91.972465     -2502.6980 
   3   2.0000     -91.972230     -2502.6916 
   4   2.0000     -20.557752      -559.4049 
   5   2.0000     -20.557554      -559.3995 
   6   2.0000     -15.591480      -424.2657 
   7   2.0000     -15.591319      -424.2614 
   8   2.0000     -15.582103      -424.0106 
   9   2.0000     -15.581134      -423.9842 
  10   2.0000     -11.357449      -309.0519 
  11   2.0000     -11.357398      -309.0505 
  12   2.0000     -11.339575      -308.5655 
  13   2.0000     -11.338992      -308.5497 
  14   2.0000     -11.321610      -308.0767 
  15   2.0000     -11.321009      -308.0603 
  16   2.0000     -11.316688      -307.9427 
  17   2.0000     -11.316638      -307.9414 
  18   2.0000     -11.305074      -307.6267 
  19   2.0000     -11.304800      -307.6192 
  20   2.0000     -11.301595      -307.5320 
  21   2.0000     -11.301513      -307.5298 
  22   2.0000     -11.296743      -307.4000 
  23   2.0000     -11.296503      -307.3935 
  24   2.0000     -11.296407      -307.3909 
  25   2.0000     -11.296100      -307.3825 
  26   2.0000     -11.295366      -307.3625 
  27   2.0000     -11.294893      -307.3497 
  28   2.0000     -11.293369      -307.3082 
  29   2.0000     -11.292380      -307.2813 
  30   2.0000     -11.290878      -307.2404 
  31   2.0000     -11.290845      -307.2395 
  32   2.0000     -11.290800      -307.2383 
  33   2.0000     -11.290336      -307.2256 
  34   2.0000     -11.284592      -307.0694 
  35   2.0000     -11.284372      -307.0634 
  36   2.0000     -11.278445      -306.9021 
  37   2.0000     -11.278379      -306.9003 
  38   2.0000     -11.277764      -306.8836 
  39   2.0000     -11.277651      -306.8805 
  40   2.0000     -11.277124      -306.8661 
  41   2.0000     -11.276984      -306.8623 
  42   2.0000     -11.276218      -306.8415 
  43   2.0000     -11.276096      -306.8382 
  44   2.0000     -11.274258      -306.7882 
  45   2.0000     -11.273921      -306.7790 
  46   2.0000     -11.273319      -306.7626 
  47   2.0000     -11.273304      -306.7622 
  48   2.0000     -11.273273      -306.7613 
  49   2.0000     -11.273100      -306.7566 
  50   2.0000     -11.268445      -306.6300 
  51   2.0000     -11.268285      -306.6256 
  52   2.0000     -11.266915      -306.5883 
  53   2.0000     -11.266876      -306.5873 
  54   2.0000     -11.264326      -306.5179 
  55   2.0000     -11.264006      -306.5092 
  56   2.0000     -11.253957      -306.2357 
  57   2.0000     -11.253886      -306.2338 
  58   2.0000     -11.248264      -306.0808 
  59   2.0000     -11.248139      -306.0774 
  60   2.0000     -11.246130      -306.0227 
  61   2.0000     -11.245896      -306.0164 
  62   2.0000     -11.244521      -305.9790 
  63   2.0000     -11.244176      -305.9696 
  64   2.0000     -11.244132      -305.9684 
  65   2.0000     -11.244018      -305.9653 
  66   2.0000     -11.242017      -305.9108 
  67   2.0000     -11.241653      -305.9009 
  68   2.0000     -11.240707      -305.8752 
  69   2.0000     -11.240584      -305.8718 
  70   2.0000     -11.238157      -305.8058 
  71   2.0000     -11.238127      -305.8050 
  72   2.0000     -11.237402      -305.7853 
  73   2.0000     -11.236880      -305.7710 
  74   2.0000     -11.236777      -305.7682 
  75   2.0000     -11.235994      -305.7469 
  76   2.0000     -11.235900      -305.7444 
  77   2.0000     -11.235300      -305.7281 
  78   2.0000     -11.231975      -305.6376 
  79   2.0000     -11.230826      -305.6063 
  80   2.0000     -11.230613      -305.6005 
  81   2.0000     -11.229563      -305.5719 
  82   2.0000     -11.228851      -305.5526 
  83   2.0000     -11.228780      -305.5506 
  84   2.0000     -11.223170      -305.3980 
  85   2.0000     -11.221183      -305.3439 
  86   2.0000     -11.213004      -305.1213 
  87   2.0000     -11.212113      -305.0971 
  88   2.0000      -9.009519      -245.1615 
  89   2.0000      -9.009288      -245.1552 
  90   2.0000      -9.006986      -245.0926 
  91   2.0000      -9.006732      -245.0856 
  92   2.0000      -6.697058      -182.2362 
  93   2.0000      -6.696825      -182.2299 
  94   2.0000      -6.696205      -182.2130 
  95   2.0000      -6.695971      -182.2066 
  96   2.0000      -6.694481      -182.1661 
  97   2.0000      -6.694230      -182.1593 
  98   2.0000      -6.694070      -182.1549 
  99   2.0000      -6.693841      -182.1487 
 100   2.0000      -6.693458      -182.1383 
 101   2.0000      -6.693205      -182.1314 
 102   2.0000      -6.691455      -182.0837 
 103   2.0000      -6.691206      -182.0770 
 104   2.0000      -1.386472       -37.7278 
 105   2.0000      -1.386434       -37.7268 
 106   2.0000      -1.238747       -33.7080 
 107   2.0000      -1.236241       -33.6398 
 108   2.0000      -1.234503       -33.5925 
 109   2.0000      -1.230954       -33.4960 
 110   2.0000      -1.213216       -33.0133 
 111   2.0000      -1.212617       -32.9970 
 112   2.0000      -1.206894       -32.8413 
 113   2.0000      -1.206394       -32.8276 
 114   2.0000      -1.198872       -32.6230 
 115   2.0000      -1.184591       -32.2344 
 116   2.0000      -1.156504       -31.4701 
 117   2.0000      -1.155744       -31.4494 
 118   2.0000      -1.151358       -31.3300 
 119   2.0000      -1.145933       -31.1824 
 120   2.0000      -1.142262       -31.0825 
 121   2.0000      -1.141053       -31.0496 
 122   2.0000      -1.130528       -30.7632 
 123   2.0000      -1.109148       -30.1814 
 124   2.0000      -1.091794       -29.7092 
 125   2.0000      -1.088253       -29.6129 
 126   2.0000      -1.086368       -29.5616 
 127   2.0000      -1.074218       -29.2310 
 128   2.0000      -1.064067       -28.9547 
 129   2.0000      -1.054425       -28.6924 
 130   2.0000      -1.052577       -28.6421 
 131   2.0000      -1.047058       -28.4919 
 132   2.0000      -1.042968       -28.3806 
 133   2.0000      -1.042627       -28.3713 
 134   2.0000      -1.042242       -28.3609 
 135   2.0000      -1.037403       -28.2292 
 136   2.0000      -1.035568       -28.1792 
 137   2.0000      -1.014924       -27.6175 
 138   2.0000      -1.007739       -27.4220 
 139   2.0000      -1.007553       -27.4169 
 140   2.0000      -1.000687       -27.2301 
 141   2.0000      -0.998490       -27.1703 
 142   2.0000      -0.996507       -27.1163 
 143   2.0000      -0.991322       -26.9752 
 144   2.0000      -0.974398       -26.5147 
 145   2.0000      -0.972712       -26.4688 
 146   2.0000      -0.969572       -26.3834 
 147   2.0000      -0.966017       -26.2867 
 148   2.0000      -0.962432       -26.1891 
 149   2.0000      -0.943162       -25.6647 
 150   2.0000      -0.923590       -25.1322 
 151   2.0000      -0.922885       -25.1130 
 152   2.0000      -0.917491       -24.9662 
 153   2.0000      -0.907370       -24.6908 
 154   2.0000      -0.905472       -24.6391 
 155   2.0000      -0.876292       -23.8451 
 156   2.0000      -0.857145       -23.3241 
 157   2.0000      -0.853707       -23.2306 
 158   2.0000      -0.849849       -23.1256 
 159   2.0000      -0.848891       -23.0995 
 160   2.0000      -0.840951       -22.8834 
 161   2.0000      -0.836631       -22.7659 
 162   2.0000      -0.831561       -22.6279 
 163   2.0000      -0.830715       -22.6049 
 164   2.0000      -0.827705       -22.5230 
 165   2.0000      -0.823510       -22.4088 
 166   2.0000      -0.817575       -22.2473 
 167   2.0000      -0.816925       -22.2297 
 168   2.0000      -0.804687       -21.8966 
 169   2.0000      -0.804436       -21.8898 
 170   2.0000      -0.798271       -21.7221 
 171   2.0000      -0.784188       -21.3388 
 172   2.0000      -0.782749       -21.2997 
 173   2.0000      -0.782346       -21.2887 
 174   2.0000      -0.775069       -21.0907 
 175   2.0000      -0.772733       -21.0271 
 176   2.0000      -0.770098       -20.9554 
 177   2.0000      -0.766808       -20.8659 
 178   2.0000      -0.756765       -20.5926 
 179   2.0000      -0.744505       -20.2590 
 180   2.0000      -0.742479       -20.2039 
 181   2.0000      -0.736982       -20.0543 
 182   2.0000      -0.733246       -19.9526 
 183   2.0000      -0.724312       -19.7095 
 184   2.0000      -0.723018       -19.6743 
 185   2.0000      -0.703131       -19.1332 
 186   2.0000      -0.694194       -18.8900 
 187   2.0000      -0.693445       -18.8696 
 188   2.0000      -0.691513       -18.8170 
 189   2.0000      -0.688818       -18.7437 
 190   2.0000      -0.682499       -18.5717 
 191   2.0000      -0.679630       -18.4937 
 192   2.0000      -0.676790       -18.4164 
 193   2.0000      -0.668907       -18.2019 
 194   2.0000      -0.664281       -18.0760 
 195   2.0000      -0.658513       -17.9191 
 196   2.0000      -0.654825       -17.8187 
 197   2.0000      -0.651740       -17.7348 
 198   2.0000      -0.648657       -17.6509 
 199   2.0000      -0.646111       -17.5816 
 200   2.0000      -0.644134       -17.5278 
 201   2.0000      -0.639712       -17.4075 
 202   2.0000      -0.638407       -17.3719 
 203   2.0000      -0.636374       -17.3166 
 204   2.0000      -0.634516       -17.2660 
 205   2.0000      -0.633413       -17.2360 
 206   2.0000      -0.631880       -17.1943 
 207   2.0000      -0.631394       -17.1811 
 208   2.0000      -0.626401       -17.0452 
 209   2.0000      -0.624502       -16.9936 
 210   2.0000      -0.621674       -16.9166 
 211   2.0000      -0.616440       -16.7742 
 212   2.0000      -0.610222       -16.6050 
 213   2.0000      -0.609405       -16.5827 
 214   2.0000      -0.606309       -16.4985 
 215   2.0000      -0.605962       -16.4891 
 216   2.0000      -0.605334       -16.4720 
 217   2.0000      -0.601368       -16.3641 
 218   2.0000      -0.600370       -16.3369 
 219   2.0000      -0.599961       -16.3258 
 220   2.0000      -0.597188       -16.2503 
 221   2.0000      -0.593816       -16.1585 
 222   2.0000      -0.592952       -16.1351 
 223   2.0000      -0.591160       -16.0863 
 224   2.0000      -0.587510       -15.9869 
 225   2.0000      -0.586086       -15.9482 
 226   2.0000      -0.584509       -15.9053 
 227   2.0000      -0.582521       -15.8512 
 228   2.0000      -0.581474       -15.8227 
 229   2.0000      -0.579767       -15.7763 
 230   2.0000      -0.576618       -15.6906 
 231   2.0000      -0.574723       -15.6390 
 232   2.0000      -0.573816       -15.6143 
 233   2.0000      -0.572230       -15.5712 
 234   2.0000      -0.570146       -15.5145 
 235   2.0000      -0.568910       -15.4808 
 236   2.0000      -0.564039       -15.3483 
 237   2.0000      -0.562214       -15.2986 
 238   2.0000      -0.561640       -15.2830 
 239   2.0000      -0.559348       -15.2206 
 240   2.0000      -0.556688       -15.1482 
 241   2.0000      -0.553024       -15.0485 
 242   2.0000      -0.551015       -14.9939 
 243   2.0000      -0.549464       -14.9517 
 244   2.0000      -0.548459       -14.9243 
 245   2.0000      -0.544357       -14.8127 
 246   2.0000      -0.537753       -14.6330 
 247   2.0000      -0.536815       -14.6075 
 248   2.0000      -0.535709       -14.5774 
 249   2.0000      -0.533727       -14.5235 
 250   2.0000      -0.530903       -14.4466 
 251   2.0000      -0.527908       -14.3651 
 252   2.0000      -0.526813       -14.3353 
 253   2.0000      -0.522800       -14.2261 
 254   2.0000      -0.522638       -14.2217 
 255   2.0000      -0.521367       -14.1871 
 256   2.0000      -0.519540       -14.1374 
 257   2.0000      -0.514716       -14.0061 
 258   2.0000      -0.513921       -13.9845 
 259   2.0000      -0.509853       -13.8738 
 260   2.0000      -0.509149       -13.8546 
 261   2.0000      -0.506298       -13.7771 
 262   2.0000      -0.501050       -13.6343 
 263   2.0000      -0.499015       -13.5789 
 264   2.0000      -0.497584       -13.5399 
 265   2.0000      -0.497024       -13.5247 
 266   2.0000      -0.495963       -13.4958 
 267   2.0000      -0.490099       -13.3363 
 268   2.0000      -0.489069       -13.3082 
 269   2.0000      -0.488377       -13.2894 
 270   2.0000      -0.487237       -13.2584 
 271   2.0000      -0.486576       -13.2404 
 272   2.0000      -0.484769       -13.1912 
 273   2.0000      -0.483001       -13.1431 
 274   2.0000      -0.482387       -13.1264 
 275   2.0000      -0.481754       -13.1092 
 276   2.0000      -0.481334       -13.0978 
 277   2.0000      -0.479183       -13.0392 
 278   2.0000      -0.477748       -13.0002 
 279   2.0000      -0.472381       -12.8542 
 280   2.0000      -0.470724       -12.8091 
 281   2.0000      -0.470034       -12.7903 
 282   2.0000      -0.468762       -12.7557 
 283   2.0000      -0.466212       -12.6863 
 284   2.0000      -0.464698       -12.6451 
 285   2.0000      -0.463517       -12.6129 
 286   2.0000      -0.459574       -12.5057 
 287   2.0000      -0.454512       -12.3679 
 288   2.0000      -0.449314       -12.2265 
 289   2.0000      -0.438956       -11.9446 
 290   2.0000      -0.436786       -11.8855 
 291   2.0000      -0.414987       -11.2924 
 292   2.0000      -0.410117       -11.1598 
 293   2.0000      -0.405109       -11.0236 
 294   2.0000      -0.382240       -10.4013 
 295   2.0000      -0.371459       -10.1079 
 296   2.0000      -0.370673       -10.0865 
 297   2.0000      -0.363980        -9.9044 
 298   2.0000      -0.355951        -9.6859 
 299   2.0000      -0.347747        -9.4627 
 300   2.0000      -0.345926        -9.4131 
 301   2.0000      -0.344765        -9.3815 
 302   2.0000      -0.344217        -9.3666 
 303   2.0000      -0.341636        -9.2964 
 304   2.0000      -0.337457        -9.1827 
 305   2.0000      -0.333014        -9.0618 
 306   2.0000      -0.329878        -8.9764 
 307   2.0000      -0.325881        -8.8677 
 308   2.0000      -0.320018        -8.7081 
 309   2.0000      -0.312977        -8.5165 
 310   2.0000      -0.312459        -8.5024 
 311   2.0000      -0.297444        -8.0939 
 312   2.0000      -0.257868        -7.0169 
 313   0.0000      -0.022367        -0.6086 
 314   0.0000      -0.010300        -0.2803 
 315   0.0000       0.023656         0.6437 
 316   0.0000       0.030088         0.8187 
 317   0.0000       0.054231         1.4757 
 318   0.0000       0.081574         2.2197 
 319   0.0000       0.092504         2.5172 
 320   0.0000       0.105462         2.8698 
 321   0.0000       0.112486         3.0609 
 322   0.0000       0.113716         3.0944 
 323   0.0000       0.118320         3.2196 
 324   0.0000       0.125296         3.4095 
 325   0.0000       0.126155         3.4328 
 326   0.0000       0.129531         3.5247 
 327   0.0000       0.134728         3.6661 
 328   0.0000       0.137283         3.7357 
 329   0.0000       0.140679         3.8281 
 330   0.0000       0.145637         3.9630 
 331   0.0000       0.148522         4.0415 
 332   0.0000       0.150869         4.1054 
 333   0.0000       0.156163         4.2494 
 334   0.0000       0.163352         4.4450 
 335   0.0000       0.164322         4.4714 
 336   0.0000       0.167197         4.5497 
 337   0.0000       0.172270         4.6877 
 338   0.0000       0.174669         4.7530 
[...]
   Using LibInt in JK Direct
   Time for J+K (Direct):  2455.330
   Time for Sigma-Completion:    16.716
   Size of expansion space: 12
   Lowest Energy          :     0.101135084260
   Maximum Energy change  :     0.000005552914 (vector 2)
   Maximum residual norm  :     0.000000852242

                       ****Iteration   11****
   Time for densities:     2.123
   Using LibInt in JK Direct
   Time for J+K (Direct):  2657.514
   Time for Sigma-Completion:    21.772
   Size of expansion space: 15
   Lowest Energy          :     0.101135081798
   Maximum Energy change  :     0.000001820495 (vector 2)
   Maximum residual norm  :     0.000000225202

      *** CONVERGENCE OF RESIDUAL NORM REACHED ***

Storing the converged CI vectors               ... ITIC.cis1

                 *** DAVIDSON DONE ***

Total time for solving the CIS problem: 39215.719sec

-----------------------------
CIS-EXCITED STATES (SINGLETS)
-----------------------------

the weight of the individual excitations are printed if larger than 1.0e-02

STATE  1:  E=   0.101135 au      2.752 eV    22196.6 cm**-1
   298a -> 317a  :     0.010395 (c=  0.10195790)
   311a -> 314a  :     0.195808 (c=  0.44250240)
   311a -> 316a  :     0.012100 (c=  0.11000171)
   312a -> 313a  :     0.614153 (c= -0.78367933)
   312a -> 315a  :     0.029384 (c= -0.17141709)
   312a -> 317a  :     0.019997 (c=  0.14141176)

STATE  2:  E=   0.116052 au      3.158 eV    25470.5 cm**-1
   298a -> 314a  :     0.024706 (c= -0.15718112)
   304a -> 314a  :     0.033615 (c=  0.18334420)
   307a -> 313a  :     0.015316 (c= -0.12375929)
   308a -> 314a  :     0.024798 (c=  0.15747257)
   311a -> 313a  :     0.356363 (c= -0.59696147)
   312a -> 314a  :     0.391614 (c=  0.62579069)
   312a -> 316a  :     0.015830 (c=  0.12581745)
   312a -> 318a  :     0.013385 (c=  0.11569414)

STATE  3:  E=   0.151802 au      4.131 eV    33316.6 cm**-1
   294a -> 314a  :     0.018539 (c= -0.13615692)
   298a -> 313a  :     0.030313 (c= -0.17410647)
   303a -> 314a  :     0.027472 (c=  0.16574733)
   304a -> 313a  :     0.113731 (c=  0.33724043)
   307a -> 314a  :     0.047422 (c= -0.21776625)
   308a -> 313a  :     0.066894 (c=  0.25863939)
   310a -> 314a  :     0.012720 (c= -0.11278086)
   311a -> 314a  :     0.111920 (c= -0.33454490)
   311a -> 323a  :     0.012941 (c= -0.11375738)
   312a -> 313a  :     0.024656 (c= -0.15702372)
   312a -> 315a  :     0.160734 (c= -0.40091695)
   312a -> 317a  :     0.155481 (c=  0.39431062)
   312a -> 320a  :     0.019709 (c= -0.14038826)


----------------------
CIS-EXCITATION SPECTRA
----------------------

Center of mass = ( -6.8140,-19.1786, -1.0147)
Calculating the Dipole integrals                  ... done
Transforming integrals                            ... done
Calculating the Linear Momentum integrals         ... done
Transforming integrals                            ... done
Calculating angular momentum integrals            ... done
Transforming integrals                            ... done

-----------------------------------------------------------------------------
         ABSORPTION SPECTRUM VIA TRANSITION ELECTRIC DIPOLE MOMENTS
-----------------------------------------------------------------------------
State   Energy    Wavelength  fosc         T2        TX        TY        TZ  
        (cm-1)      (nm)                 (au**2)    (au)      (au)      (au) 
-----------------------------------------------------------------------------
   1   22196.6    450.5   2.081917086  30.87826   1.04358   5.42738  -0.57682
   2   25470.5    392.6   0.000759998   0.00982   0.06685   0.03269   0.06547
   3   33316.6    300.2   0.671860855   6.63886   0.26496   2.02843   1.56657

-----------------------------------------------------------------------------
         ABSORPTION SPECTRUM VIA TRANSITION VELOCITY DIPOLE MOMENTS
-----------------------------------------------------------------------------
State   Energy    Wavelength   fosc        P2         PX        PY        PZ  
        (cm-1)      (nm)                 (au**2)     (au)      (au)      (au) 
-----------------------------------------------------------------------------
   1   22196.6    450.5   0.903897117   0.13712  -0.08647  -0.35893   0.02852
   2   25470.5    392.6   0.000238982   0.00004  -0.00481   0.00075  -0.00423
   3   33316.6    300.2   0.123420838   0.02810  -0.08416  -0.13971   0.03874

-------------------------------------------------------------------
                             CD SPECTRUM
-------------------------------------------------------------------
State  Energy     Wavelength     R         MX        MY        MZ   
       (cm-1)       (nm)     (1e40*cgs)   (au)      (au)      (au)  
-------------------------------------------------------------------
   1   22196.6    450.5    105.80695   0.01454   0.04190   0.03145
   2   25470.5    392.6    -97.53275  -2.06299   0.20105  -1.15394
   3   33316.6    300.2      0.79283   0.03869  -0.01148   0.00939

Total run time:    39366.321 sec

           *** ORCA-CIS/TD-DFT FINISHED WITHOUT ERROR ***

-----------------------
CIS/TD-DFT TOTAL ENERGY
-----------------------

    E(SCF)  =  -4937.352715597 Eh
    DE(CIS) =      0.101135082 Eh (Root  1)
    ----------------------------- ---------
    E(tot)  =  -4937.251580515 Eh


-------------------------   --------------------
FINAL SINGLE POINT ENERGY     -4937.251580514890
-------------------------   --------------------

------------------------------------------------------------------------------
                         ORCA SCF GRADIENT CALCULATION
------------------------------------------------------------------------------


------------
CIS GRADIENT
------------

Reference wavefunction             ... RHF
State of interest                  ... 1
Basis dimension                    ... 1498
DFT-XC contribution needed         ... NO
RI-approximation                   ... OFF
CIS-vectors being read from        ... ITIC.cis

 => Number of Vectors found: 3
 => Orbital Window: 104...312 -> 313...1497

Reading the CIS file                     ... done
Norm of the CI vector                    ... 1.000000000
Making the CIS (pseudo)densities         ... done
Making operators G(D) and Q(T)           ... done
Transforming the Fock operators          ... done
Making the frozen-core relaxed density   ... done
Constructing the G(H) operator           ... done
Transforming the G(H) operator           ... done
Calculating the CIS Lagrangian           ... done
Solving the Z-vector equations           ... done
Finalizing the relaxed density           ... done
Storing the relaxed density              ... done
Constructing the G(Z) operator           ... done
Transforming the G(Z) operator           ... done
Making the W-matrix                      ... done
Finalizing the W-matrix                  ... done
Transforming the W-matrix                ... done
Nuclear repulsion gradient               ... done
One-Electron gradient                    ... done
Prescreening matrices                    ... done
Two-Electron gradient (4-center)         ... done
                 ---------------------------
                 EXCITED STATE GRADIENT DONE
                 ---------------------------


------------------
CARTESIAN GRADIENT
------------------

   1   C   :    0.017660746   -0.010526786   -0.031890326
   2   O   :   -0.020424261    0.018235732    0.038742253
   3   C   :   -0.007032828   -0.000279526    0.008064522
   4   C   :    0.001824770    0.002179130    0.001534794
   5   C   :   -0.000024450    0.003250416    0.002308738
   6   C   :    0.002351505   -0.001581448   -0.003436883
   7   C   :    0.001098971    0.000703069   -0.002909572
   8   C   :   -0.007503911   -0.014895798   -0.006323533
   9   C   :    0.010948843    0.006839369    0.011204283
  10   C   :   -0.004712631   -0.008294517   -0.016648029
  11   C   :    0.065323636    0.035037149    0.010862663
  12   N   :   -0.059541541   -0.036089571   -0.007951575
  13   C   :   -0.038574329   -0.000003887    0.063686876
  14   N   :    0.036112759   -0.001481527   -0.060335252
  15   C   :   -0.003918767   -0.004679011   -0.003412516
  16   C   :    0.005187580    0.000821127   -0.006112133
  17   C   :   -0.001186406    0.001207170    0.000825467
  18   C   :   -0.000616751    0.005856007    0.001054860
  19   C   :   -0.006809342   -0.005619717    0.000966240
  20   C   :    0.006187414    0.005059315   -0.000869378
  21   S   :    0.005171656    0.001792034   -0.006705648
  22   C   :    0.012035701   -0.002275430   -0.003941662
  23   C   :   -0.001365722   -0.000751748    0.001669595
  24   C   :   -0.009308360    0.001145849   -0.006498546
  25   C   :   -0.001355037    0.002215906    0.002590902
  26   C   :   -0.002271064    0.000806077    0.002116921
  27   C   :    0.010911604   -0.001507710    0.002965577
  28   C   :   -0.007284592   -0.002360851   -0.001888071
  29   C   :   -0.000148479    0.004560697   -0.001949161
  30   C   :    0.002035650   -0.001408767   -0.000267771
  31   C   :   -0.002576007   -0.000953507   -0.003374357
  32   C   :    0.000461172   -0.005300805    0.008391652
  33   C   :   -0.002360385   -0.002747055    0.001128061
  34   C   :   -0.002525075   -0.000117555   -0.001257655
  35   C   :   -0.000361149    0.005881189   -0.009061302
  36   C   :   -0.003808058   -0.002122820    0.006615179
  37   C   :    0.004357800   -0.001970552    0.000041247
  38   C   :    0.001548959    0.002839169    0.001465505
  39   C   :    0.002048055    0.002297624    0.003213581
  40   C   :   -0.002329608    0.010483392    0.003065384
  41   C   :   -0.001719960   -0.011130029   -0.001825614
  42   C   :   -0.005868667    0.004576775    0.005036449
  43   S   :   -0.003354768   -0.001627924    0.000030994
  44   C   :    0.001281330    0.011597730    0.002703551
  45   C   :    0.002043468   -0.010511690   -0.003206147
  46   C   :    0.002021619    0.000321960   -0.001407867
  47   C   :   -0.000238651    0.004386903   -0.009013800
  48   C   :   -0.000766732   -0.001297443   -0.004010756
  49   C   :   -0.001173887   -0.002110650    0.000914359
  50   C   :   -0.000880162   -0.006842924    0.008690574
  51   C   :   -0.006292552    0.003956900   -0.005472503
  52   C   :    0.004886686    0.001829364   -0.001804474
  53   C   :    0.002366652    0.001838196    0.000003490
  54   C   :    0.002594674    0.002095453    0.000308614
  55   C   :    0.008506219   -0.001073497    0.006718695
  56   C   :    0.001479152   -0.002159105   -0.002717376
  57   C   :    0.002414119   -0.000771383   -0.002089196
  58   C   :   -0.010776715    0.001462149   -0.003259839
  59   C   :    0.007060467    0.002264123    0.002295001
  60   C   :   -0.000031542   -0.004579156    0.002076589
  61   C   :   -0.002004565    0.001252646    0.000212081
  62   C   :    0.002568638    0.000753821    0.003736126
  63   C   :   -0.012365060    0.001933266    0.003815795
  64   C   :    0.006059504   -0.004467227   -0.004880526
  65   C   :    0.001744224    0.011181321    0.001498627
  66   C   :   -0.001427018   -0.011657817   -0.002724551
  67   S   :    0.003296514    0.001708957   -0.000055502
  68   C   :    0.006766076    0.005444908   -0.000882948
  69   C   :   -0.006304463   -0.004716178    0.000670339
  70   S   :   -0.005224691   -0.002042533    0.006419873
  71   C   :    0.000861750   -0.001224875   -0.000860769
  72   C   :    0.001010047   -0.005516415   -0.000659854
  73   C   :   -0.004694885   -0.000545370    0.005999073
  74   C   :    0.003878415    0.004716281    0.003029972
  75   C   :   -0.011327756   -0.007983586   -0.010475003
  76   C   :    0.004763632    0.009414599    0.016111987
  77   C   :    0.038370120   -0.003063725   -0.063893202
  78   N   :   -0.036710532    0.004934188    0.060259383
  79   C   :   -0.065195242   -0.035665769   -0.006173813
  80   N   :    0.059776510    0.035729232    0.001977534
  81   C   :    0.007146522    0.015657515    0.005171742
  82   C   :   -0.000982466   -0.000429005    0.003024615
  83   C   :   -0.002366079    0.001569143    0.003533223
  84   C   :    0.000038396   -0.003483688   -0.002090934
  85   C   :   -0.001811807   -0.002300430   -0.001342593
  86   C   :    0.006752171    0.000151529   -0.008293497
  87   C   :   -0.017245060    0.011924952    0.031827067
  88   O   :    0.020143882   -0.019821541   -0.038229724
  89   H   :   -0.002414726    0.004283036    0.006423751
  90   H   :    0.004427231    0.006285888    0.001494305
  91   H   :    0.006131143    0.001821004   -0.004632090
  92   H   :    0.001281860   -0.005642466   -0.006775440
  93   H   :   -0.003508543    0.003905801    0.007362098
  94   H   :   -0.005850461    0.003466353    0.003499708
  95   H   :   -0.007135513    0.003340857    0.003322738
  96   H   :    0.001609495    0.002469730    0.007068603
  97   H   :    0.001211228    0.005066383    0.004933443
  98   H   :    0.005343271    0.001105979   -0.005373338
  99   H   :   -0.004844762   -0.001057054    0.004764080
 100   H   :    0.005903230   -0.001577711    0.003576421
 101   H   :   -0.001911996   -0.004773558   -0.004584596
 102   H   :    0.005968407   -0.003394052   -0.003640634
 103   H   :   -0.002509258   -0.001949673   -0.007693266
 104   H   :   -0.004160887   -0.006758479    0.002411586
 105   H   :   -0.004924858   -0.001420266   -0.006187239
 106   H   :    0.002152921   -0.004568114   -0.005562886
 107   H   :    0.005327430    0.006177883    0.000960994
 108   H   :   -0.004483690   -0.005086190   -0.001229009
 109   H   :   -0.000847384    0.004491019   -0.005191562
 110   H   :   -0.002496146    0.003577443    0.006399941
 111   H   :    0.004190695    0.007247666   -0.001185943
 112   H   :    0.004886231    0.001394440    0.007329079
 113   H   :   -0.007257134   -0.000090460    0.003348094
 114   H   :   -0.004176034   -0.001776494   -0.007439655
 115   H   :   -0.004950072   -0.007139734    0.001415255
 116   H   :    0.003903314    0.004132745    0.004897420
 117   H   :    0.004066499   -0.006579220   -0.000443272
 118   H   :   -0.004057495    0.005172628   -0.000477407
 119   H   :   -0.000710050   -0.003881143    0.006059204
 120   H   :   -0.002263939   -0.005632396   -0.005623658
 121   H   :    0.004212578    0.002198391    0.006341526
 122   H   :    0.004678478    0.006844225   -0.002206991
 123   H   :    0.007440863   -0.003491072   -0.002782740
 124   H   :   -0.001190460   -0.002621271   -0.007045385
 125   H   :   -0.005608135   -0.000804692    0.005182748
 126   H   :   -0.001058895   -0.005164521   -0.004992852
 127   H   :    0.001681591    0.004899775    0.004647371
 128   H   :   -0.005686605    0.001633785   -0.003833116
 129   H   :    0.005306284    0.000736488   -0.004526867
 130   H   :   -0.006194020    0.003518186    0.003198866
 131   H   :    0.002063667    0.002062840    0.007806681
 132   H   :    0.007420050    0.000101420   -0.003310471
 133   H   :    0.005992112   -0.003457914   -0.003331543
 134   H   :    0.003558977   -0.004154777   -0.007145744
 135   H   :   -0.001275454    0.006145979    0.006567376
 136   H   :   -0.005958003   -0.001809146    0.004929360
 137   H   :   -0.004032273   -0.006541256   -0.000829926
 138   H   :    0.002453640   -0.004630065   -0.006271212

Difference to translation invariance:
           :    0.0000000001    0.0000000002   -0.0000000002

Norm of the cartesian gradient     ...    0.2417026191
RMS gradient                       ...    0.0118790357
MAX gradient                       ...    0.0653236362

-------
TIMINGS
-------

Total CIS gradient time            ...    41141.388 sec

Fock matrix formation       ....    2901.176 sec  (  7.1%)
  Coulomb formation         ....    2901.176 sec  (100.0% of F)
Z-vector equation           ....   34760.618 sec  ( 84.5%)
One electron gradient       ....      25.120 sec  (  0.1%)
Prescreening matrices       ....       1.547 sec  (  0.0%)
Two electron gradient       ....    3448.709 sec  (  8.4%)

                            ***************************************
                            *     ORCA property calculations      *
                            ***************************************

                                    ---------------------
                                    Active property flags
                                    ---------------------
   (+) Dipole Moment


------------------------------------------------------------------------------
                       ORCA ELECTRIC PROPERTIES CALCULATION
------------------------------------------------------------------------------

Dipole Moment Calculation                       ... on
Quadrupole Moment Calculation                   ... off
Polarizability Calculation                      ... off
GBWName                                         ... ITIC.gbw
Electron density file                           ... ITIC.scfp
The origin for moment calculation is the CENTER OF MASS  = (-6.813979, -19.178618 -1.014679)

-------------
DIPOLE MOMENT
-------------
                                X             Y             Z
Electronic contribution:      8.87565      -1.35219       1.28215
Nuclear contribution   :     -8.93433       1.21924      -1.17047
                        -----------------------------------------
Total Dipole Moment    :     -0.05868      -0.13294       0.11168
                        -----------------------------------------
Magnitude (a.u.)       :      0.18327
Magnitude (Debye)      :      0.46584



--------------------
Rotational spectrum 
--------------------
 
Rotational constants in cm-1:     0.001419     0.000271     0.000266 
Rotational constants in MHz :    42.548130     8.110865     7.966427 

 Dipole components along the rotational axes: 
x,y,z [a.u.] :     0.145529     0.022661    -0.109072 
x,y,z [Debye]:     0.369906     0.057600    -0.277240 

 

                        *** CIS RELAXED DENSITY ***

------------------------------------------------------------------------------
                       ORCA ELECTRIC PROPERTIES CALCULATION
------------------------------------------------------------------------------

Dipole Moment Calculation                       ... on
Quadrupole Moment Calculation                   ... off
Polarizability Calculation                      ... off
GBWName                                         ... ITIC.gbw
Electron density file                           ... ITIC.cisp
The origin for moment calculation is the CENTER OF MASS  = (-6.813979, -19.178618 -1.014679)

-------------
DIPOLE MOMENT
-------------
                                X             Y             Z
Electronic contribution:      8.84944      -1.35691       1.25135
Nuclear contribution   :     -8.93433       1.21924      -1.17047
                        -----------------------------------------
Total Dipole Moment    :     -0.08489      -0.13767       0.08087
                        -----------------------------------------
Magnitude (a.u.)       :      0.18083
Magnitude (Debye)      :      0.45963



--------------------
Rotational spectrum 
--------------------
 
Rotational constants in cm-1:     0.001419     0.000271     0.000266 
Rotational constants in MHz :    42.548130     8.110865     7.966427 

 Dipole components along the rotational axes: 
x,y,z [a.u.] :     0.155191    -0.012973    -0.091903 
x,y,z [Debye]:     0.394465    -0.032974    -0.233598 

 

Timings for individual modules:

Sum of individual times         ...    92849.466 sec (=1547.491 min)
GTO integral calculation        ...        5.177 sec (=   0.086 min)   0.0 %
SCF iterations                  ...    12336.471 sec (= 205.608 min)  13.3 %
CIS module                      ...    39366.397 sec (= 656.107 min)  42.4 %
SCF Gradient evaluation         ...    41141.420 sec (= 685.690 min)  44.3 %
                             ****ORCA TERMINATED NORMALLY****
TOTAL RUN TIME: 1 days 1 hours 47 minutes 30 seconds 641 msec
