
                                 *****************
                                 * O   R   C   A *
                                 *****************

           --- An Ab Initio, DFT and Semiempirical electronic structure package ---

                  #######################################################
                  #                        -***-                        #
                  #          Department of theory and spectroscopy      #
                  #               Directorship: Frank Neese             #
                  #        Max Planck Institute fuer Kohlenforschung    #
                  #                Kaiser Wilhelm Platz 1               #
                  #                 D-45470 Muelheim/Ruhr               #
                  #                      Germany                        #
                  #                                                     #
                  #                  All rights reserved                #
                  #                        -***-                        #
                  #######################################################


                         Program Version 4.2.0 -  RELEASE  -


 With contributions from (in alphabetic order):
   Daniel Aravena         : Magnetic Suceptibility
   Michael Atanasov       : Ab Initio Ligand Field Theory (pilot matlab implementation)
   Alexander A. Auer      : GIAO ZORA, VPT2
   Ute Becker             : Parallelization
   Giovanni Bistoni       : ED, misc. LED, open-shell LED, HFLED
   Martin Brehm           : Molecular dynamics
   Dmytro Bykov           : SCF Hessian
   Vijay G. Chilkuri      : MRCI spin determinant printing, contributions to CSF-ICE
   Dipayan Datta          : RHF DLPNO-CCSD density
   Achintya Kumar Dutta   : EOM-CC, STEOM-CC
   Dmitry Ganyushin       : Spin-Orbit,Spin-Spin,Magnetic field MRCI
   Miquel Garcia          : C-PCM Hessian, Gaussian charge scheme
   Yang Guo               : DLPNO-NEVPT2, CIM, IAO-localization
   Andreas Hansen         : Spin unrestricted coupled pair/coupled cluster methods
   Benjamin Helmich-Paris : CASSCF linear response (MC-RPA)
   Lee Huntington         : MR-EOM, pCC
   Robert Izsak           : Overlap fitted RIJCOSX, COSX-SCS-MP3, EOM
   Christian Kollmar      : KDIIS, OOCD, Brueckner-CCSD(T), CCSD density
   Simone Kossmann        : Meta GGA functionals, TD-DFT gradient, OOMP2, MP2 Hessian
   Martin Krupicka        : AUTO-CI
   Lucas Lang             : DCDCAS
   Dagmar Lenk            : GEPOL surface, SMD
   Dimitrios Liakos       : Extrapolation schemes; Compound Job, initial MDCI parallelization
   Dimitrios Manganas     : Further ROCIS development; embedding schemes
   Dimitrios Pantazis     : SARC Basis sets
   Taras Petrenko         : DFT Hessian,TD-DFT gradient, ASA, ECA, R-Raman, ABS, FL, XAS/XES, NRVS
   Peter Pinski           : DLPNO-MP2, DLPNO-MP2 Gradient
   Christoph Reimann      : Effective Core Potentials
   Marius Retegan         : Local ZFS, SOC
   Christoph Riplinger    : Optimizer, TS searches, QM/MM, DLPNO-CCSD(T), (RO)-DLPNO pert. Triples
   Tobias Risthaus        : Range-separated hybrids, TD-DFT gradient, RPA, STAB
   Michael Roemelt        : Original ROCIS implementation
   Masaaki Saitow         : Open-shell DLPNO-CCSD energy and density
   Barbara Sandhoefer     : DKH picture change effects
   Avijit Sen             : IP-ROCIS
   Kantharuban Sivalingam : CASSCF convergence, NEVPT2, FIC-MRCI
   Bernardo de Souza      : ESD, SOC TD-DFT
   Georgi Stoychev        : AutoAux, RI-MP2 NMR
   Willem Van den Heuvel  : Paramagnetic NMR
   Boris Wezisla          : Elementary symmetry handling
   Frank Wennmohs         : Technical directorship


 We gratefully acknowledge several colleagues who have allowed us to
 interface, adapt or use parts of their codes:
   Stefan Grimme, W. Hujo, H. Kruse,             : VdW corrections, initial TS optimization,
                  C. Bannwarth                     DFT functionals, gCP, sTDA/sTD-DF
   Ed Valeev, F. Pavosevic, A. Kumar             : LibInt (2-el integral package), F12 methods
   Garnet Chan, S. Sharma, J. Yang, R. Olivares  : DMRG
   Ulf Ekstrom                                   : XCFun DFT Library
   Mihaly Kallay                                 : mrcc  (arbitrary order and MRCC methods)
   Andreas Klamt, Michael Diedenhofen            : otool_cosmo (COSMO solvation model)
   Jiri Pittner, Ondrej Demel                    : Mk-CCSD
   Frank Weinhold                                : gennbo (NPA and NBO analysis)
   Christopher J. Cramer and Donald G. Truhlar   : smd solvation model
   Lars Goerigk                                  : TD-DFT with DH, B97 family of functionals
   V. Asgeirsson, H. Jonsson                     : NEB implementation
   FAccTs GmbH                                   : IRC, NEB, NEB-TS, Multilevel, MM, QM/MM, CI optimization
   S Lehtola, MJT Oliveira, MAL Marques          : LibXC Library


 Your calculation uses the libint2 library for the computation of 2-el integrals
 For citations please refer to: http://libint.valeyev.net

 Your ORCA version has been built with support for libXC version: 4.2.3
 For citations please refer to: https://tddft.org/programs/libxc/

 This ORCA versions uses:
   CBLAS   interface :  Fast vector & matrix operations
   LAPACKE interface :  Fast linear algebra routines
   SCALAPACK package :  Parallel linear algebra routines


----- Orbital basis set information -----
Your calculation utilizes the basis: def2-SVP
   F. Weigend and R. Ahlrichs, Phys. Chem. Chem. Phys. 7, 3297 (2005).

================================================================================
                                        WARNINGS
                       Please study these warnings very carefully!
================================================================================

INFO   : Checking CIS options ...

WARNING: CIS/ROCIS methods need fully converged wavefunctions
  ===> : Setting SCFConvForced true
         You can overwrite this default with %scf ConvForced false 


INFO   : the flag for use of LIBINT has been found!

================================================================================
                                       INPUT FILE
================================================================================
NAME = M34.inp
|  1> # ORCA input file
|  2> # M34.out: Geometry 47
|  3> ! Engrad Keepdens
|  4> %maxcore 1000
|  5> %tddft
|  6>   nroots 3 
|  7>   # nroots is the number of states to be computed
|  8>   Iroot 1
|  9>   end
| 10> * xyz 0 1
| 11>    C       -1.19310        -0.52550         0.10064
| 12>    C       -1.83687        -0.37330         1.37737
| 13>    C       -1.27956        -1.05732         2.48530
| 14>    C       -0.19584        -1.91013         2.26793
| 15>    C        0.42590        -2.07385         0.98579
| 16>    C       -0.12023        -1.38600        -0.11681
| 17>    O        0.40206        -1.54659        -1.36886
| 18>    C       -0.37981        -2.30146        -2.31877
| 19>    O       -1.74950        -0.90359         3.76034
| 20>    C       -1.45244         0.36590         4.38614
| 21>    S        0.52168        -2.90950         3.53991
| 22>    C        1.70295        -3.50520         2.39395
| 23>    C        1.55362        -2.95651         1.09934
| 24>    S       -1.83794         0.52478        -1.16566
| 25>    C       -3.04564         1.09515        -0.05098
| 26>    C       -2.95693         0.52602         1.23609
| 27>    C       -4.15109         1.95932        -0.06087
| 28>    C       -4.73593         1.88007         1.22936
| 29>    N       -4.00170         0.99994         2.02943
| 30>    S       -5.00266         3.00632        -1.13268
| 31>    C       -6.18808         3.35755         0.15045
| 32>    C       -5.88416         2.66920         1.34943
| 33>    C        2.83352        -4.34447         2.35991
| 34>    C        3.35610        -4.25244         1.04165
| 35>    N        2.57551        -3.40401         0.27323
| 36>    S        3.83590        -5.33708         3.36031
| 37>    C        4.98690        -5.57732         2.02158
| 38>    C        4.55936        -4.93569         0.85365
| 39>    C       -7.31767         4.21151         0.07005
| 40>    C       -7.89549         4.93539        -0.95805
| 41>    C        6.13200        -6.39140         2.21673
| 42>    C        7.27516        -6.52747         1.45234
| 43>    C       -7.42980         4.95915        -2.36604
| 44>    C       -8.43629         5.73071        -3.13200
| 45>    C       -9.45489         6.17077        -2.26662
| 46>    C       -9.12145         5.73675        -0.88356
| 47>    C        8.09321        -7.77795         1.61346
| 48>    C        9.00547        -7.81534         0.43459
| 49>    C        8.83883        -6.63796        -0.32261
| 50>    C        7.86393        -5.75595         0.36842
| 51>    C       -8.43604         5.98971        -4.49751
| 52>    C       -9.50766         6.70989        -5.01141
| 53>    C      -10.54964         7.13646        -4.16813
| 54>    C      -10.53855         6.88649        -2.79750
| 55>    C        9.89895        -8.81763         0.06605
| 56>    C       10.63085        -8.63129        -1.10341
| 57>    C       10.47388        -7.45916        -1.86595
| 58>    C        9.59075        -6.45197        -1.48930
| 59>    F       -9.57352         7.00682        -6.30576
| 60>    F      -11.56758         7.79532        -4.71705
| 61>    O       -6.43238         4.44221        -2.83840
| 62>    C       -9.85349         6.07816         0.24118
| 63>    C       -9.47556         5.71796         1.57213
| 64>    C      -11.05966         6.84235         0.17181
| 65>    C       -4.63785         0.24257         3.11332
| 66>    C       -5.61208        -0.80624         2.58066
| 67>    C        3.12451        -2.73003        -0.91138
| 68>    C        3.22218        -3.63265        -2.13411
| 69>    C       -0.70094        -3.71050        -1.85040
| 70>    C        0.01576         0.52562         4.73179
| 71>    O        8.00421        -8.60904         2.49262
| 72>    C        7.73078        -4.39727         0.12022
| 73>    F       11.19619        -7.32114        -2.97412
| 74>    F       11.49045        -9.55405        -1.53000
| 75>    N      -12.04538         7.45648         0.12676
| 76>    N       -9.18438         5.43761         2.66234
| 77>    C        7.06396        -3.50296         1.00871
| 78>    C        8.31766        -3.75730        -1.01452
| 79>    N        8.75798        -3.22887        -1.95183
| 80>    N        6.53598        -2.74419         1.71359
| 81>    H        0.24266        -2.30919        -3.22456
| 82>    H       -1.30612        -1.75106        -2.55445
| 83>    H       -2.07407         0.37957         5.29278
| 84>    H       -1.79633         1.18222         3.72812
| 85>    H       -6.50208         2.78028         2.24126
| 86>    H        5.10554        -5.00022        -0.08355
| 87>    H       -7.82697         4.26602         1.03206
| 88>    H        6.09633        -7.09124         3.06252
| 89>    H       -7.63025         5.63702        -5.14345
| 90>    H      -11.37192         7.25658        -2.20428
| 91>    H       10.02686        -9.71982         0.66683
| 92>    H        9.51750        -5.56876        -2.12011
| 93>    H       -5.14813         0.96537         3.76943
| 94>    H       -3.84926        -0.24849         3.69328
| 95>    H       -6.41330        -0.34667         1.98120
| 96>    H       -6.07795        -1.35451         3.41384
| 97>    H       -5.08035        -1.53475         1.94815
| 98>    H        4.11858        -2.34076        -0.63360
| 99>    H        2.47757        -1.87657        -1.13142
|100>    H        3.84098        -4.52332        -1.94808
|101>    H        3.68111        -3.07790        -2.96669
|102>    H        2.22892        -3.97769        -2.45541
|103>    H        0.21193        -4.26387        -1.58540
|104>    H       -1.21889        -4.25829        -2.65355
|105>    H       -1.35891        -3.70166        -0.96853
|106>    H        0.64108         0.54073         3.82690
|107>    H        0.36088        -0.29551         5.37662
|108>    H        0.16738         1.47625         5.26757
|109> *
|110> 
|111>                          ****END OF INPUT****
================================================================================

                     *******************************
                     * Energy+Gradient Calculation *
                     *******************************

---------------------------------
CARTESIAN COORDINATES (ANGSTROEM)
---------------------------------
  C     -1.193100   -0.525500    0.100640
  C     -1.836870   -0.373300    1.377370
  C     -1.279560   -1.057320    2.485300
  C     -0.195840   -1.910130    2.267930
  C      0.425900   -2.073850    0.985790
  C     -0.120230   -1.386000   -0.116810
  O      0.402060   -1.546590   -1.368860
  C     -0.379810   -2.301460   -2.318770
  O     -1.749500   -0.903590    3.760340
  C     -1.452440    0.365900    4.386140
  S      0.521680   -2.909500    3.539910
  C      1.702950   -3.505200    2.393950
  C      1.553620   -2.956510    1.099340
  S     -1.837940    0.524780   -1.165660
  C     -3.045640    1.095150   -0.050980
  C     -2.956930    0.526020    1.236090
  C     -4.151090    1.959320   -0.060870
  C     -4.735930    1.880070    1.229360
  N     -4.001700    0.999940    2.029430
  S     -5.002660    3.006320   -1.132680
  C     -6.188080    3.357550    0.150450
  C     -5.884160    2.669200    1.349430
  C      2.833520   -4.344470    2.359910
  C      3.356100   -4.252440    1.041650
  N      2.575510   -3.404010    0.273230
  S      3.835900   -5.337080    3.360310
  C      4.986900   -5.577320    2.021580
  C      4.559360   -4.935690    0.853650
  C     -7.317670    4.211510    0.070050
  C     -7.895490    4.935390   -0.958050
  C      6.132000   -6.391400    2.216730
  C      7.275160   -6.527470    1.452340
  C     -7.429800    4.959150   -2.366040
  C     -8.436290    5.730710   -3.132000
  C     -9.454890    6.170770   -2.266620
  C     -9.121450    5.736750   -0.883560
  C      8.093210   -7.777950    1.613460
  C      9.005470   -7.815340    0.434590
  C      8.838830   -6.637960   -0.322610
  C      7.863930   -5.755950    0.368420
  C     -8.436040    5.989710   -4.497510
  C     -9.507660    6.709890   -5.011410
  C    -10.549640    7.136460   -4.168130
  C    -10.538550    6.886490   -2.797500
  C      9.898950   -8.817630    0.066050
  C     10.630850   -8.631290   -1.103410
  C     10.473880   -7.459160   -1.865950
  C      9.590750   -6.451970   -1.489300
  F     -9.573520    7.006820   -6.305760
  F    -11.567580    7.795320   -4.717050
  O     -6.432380    4.442210   -2.838400
  C     -9.853490    6.078160    0.241180
  C     -9.475560    5.717960    1.572130
  C    -11.059660    6.842350    0.171810
  C     -4.637850    0.242570    3.113320
  C     -5.612080   -0.806240    2.580660
  C      3.124510   -2.730030   -0.911380
  C      3.222180   -3.632650   -2.134110
  C     -0.700940   -3.710500   -1.850400
  C      0.015760    0.525620    4.731790
  O      8.004210   -8.609040    2.492620
  C      7.730780   -4.397270    0.120220
  F     11.196190   -7.321140   -2.974120
  F     11.490450   -9.554050   -1.530000
  N    -12.045380    7.456480    0.126760
  N     -9.184380    5.437610    2.662340
  C      7.063960   -3.502960    1.008710
  C      8.317660   -3.757300   -1.014520
  N      8.757980   -3.228870   -1.951830
  N      6.535980   -2.744190    1.713590
  H      0.242660   -2.309190   -3.224560
  H     -1.306120   -1.751060   -2.554450
  H     -2.074070    0.379570    5.292780
  H     -1.796330    1.182220    3.728120
  H     -6.502080    2.780280    2.241260
  H      5.105540   -5.000220   -0.083550
  H     -7.826970    4.266020    1.032060
  H      6.096330   -7.091240    3.062520
  H     -7.630250    5.637020   -5.143450
  H    -11.371920    7.256580   -2.204280
  H     10.026860   -9.719820    0.666830
  H      9.517500   -5.568760   -2.120110
  H     -5.148130    0.965370    3.769430
  H     -3.849260   -0.248490    3.693280
  H     -6.413300   -0.346670    1.981200
  H     -6.077950   -1.354510    3.413840
  H     -5.080350   -1.534750    1.948150
  H      4.118580   -2.340760   -0.633600
  H      2.477570   -1.876570   -1.131420
  H      3.840980   -4.523320   -1.948080
  H      3.681110   -3.077900   -2.966690
  H      2.228920   -3.977690   -2.455410
  H      0.211930   -4.263870   -1.585400
  H     -1.218890   -4.258290   -2.653550
  H     -1.358910   -3.701660   -0.968530
  H      0.641080    0.540730    3.826900
  H      0.360880   -0.295510    5.376620
  H      0.167380    1.476250    5.267570

----------------------------
CARTESIAN COORDINATES (A.U.)
----------------------------
  NO LB      ZA    FRAG     MASS         X           Y           Z
   0 C     6.0000    0    12.011   -2.254632   -0.993051    0.190182
   1 C     6.0000    0    12.011   -3.471181   -0.705435    2.602852
   2 C     6.0000    0    12.011   -2.418018   -1.998045    4.696536
   3 C     6.0000    0    12.011   -0.370084   -3.609623    4.285767
   4 C     6.0000    0    12.011    0.804834   -3.919009    1.862873
   5 C     6.0000    0    12.011   -0.227202   -2.619160   -0.220739
   6 O     8.0000    0    15.999    0.759783   -2.922632   -2.586771
   7 C     6.0000    0    12.011   -0.717737   -4.349129   -4.381840
   8 O     8.0000    0    15.999   -3.306076   -1.707538    7.106013
   9 C     6.0000    0    12.011   -2.744714    0.691451    8.288603
  10 S    16.0000    0    32.060    0.985832   -5.498158    6.689460
  11 C     6.0000    0    12.011    3.218109   -6.623868    4.523910
  12 C     6.0000    0    12.011    2.935916   -5.586994    2.077452
  13 S    16.0000    0    32.060   -3.473203    0.991690   -2.202778
  14 C     6.0000    0    12.011   -5.755426    2.069534   -0.096338
  15 C     6.0000    0    12.011   -5.587788    0.994034    2.335872
  16 C     6.0000    0    12.011   -7.844423    3.702578   -0.115028
  17 C     6.0000    0    12.011   -8.949611    3.552817    2.323154
  18 N     7.0000    0    14.007   -7.562117    1.889613    3.835067
  19 S    16.0000    0    32.060   -9.453657    5.681121   -2.140455
  20 C     6.0000    0    12.011  -11.693776    6.344850    0.284309
  21 C     6.0000    0    12.011  -11.119451    5.044057    2.550053
  22 C     6.0000    0    12.011    5.354577   -8.209858    4.459584
  23 C     6.0000    0    12.011    6.342110   -8.035947    1.968433
  24 N     7.0000    0    14.007    4.867009   -6.432647    0.516330
  25 S    16.0000    0    32.060    7.248800  -10.085620    6.350066
  26 C     6.0000    0    12.011    9.423875  -10.539607    3.820233
  27 C     6.0000    0    12.011    8.615942   -9.327102    1.613165
  28 C     6.0000    0    12.011  -13.828392    7.958601    0.132375
  29 C     6.0000    0    12.011  -14.920314    9.326535   -1.810452
  30 C     6.0000    0    12.011   11.587801  -12.077996    4.189013
  31 C     6.0000    0    12.011   13.748060  -12.335131    2.744525
  32 C     6.0000    0    12.011  -14.040287    9.371435   -4.471168
  33 C     6.0000    0    12.011  -15.942278   10.829472   -5.918622
  34 C     6.0000    0    12.011  -17.867153   11.661065   -4.283291
  35 C     6.0000    0    12.011  -17.237042   10.840886   -1.669686
  36 C     6.0000    0    12.011   15.293950  -14.698195    3.048998
  37 C     6.0000    0    12.011   17.017872  -14.768852    0.821256
  38 C     6.0000    0    12.011   16.702968  -12.543926   -0.609645
  39 C     6.0000    0    12.011   14.860674  -10.877169    0.696213
  40 C     6.0000    0    12.011  -15.941805   11.318912   -8.499062
  41 C     6.0000    0    12.011  -17.966874   12.679854   -9.470192
  42 C     6.0000    0    12.011  -19.935930   13.485955   -7.876624
  43 C     6.0000    0    12.011  -19.914973   13.013580   -5.286509
  44 C     6.0000    0    12.011   18.706305  -16.662906    0.124816
  45 C     6.0000    0    12.011   20.089395  -16.310774   -2.085143
  46 C     6.0000    0    12.011   19.792765  -14.095770   -3.526134
  47 C     6.0000    0    12.011   18.123891  -12.192456   -2.814369
  48 F     9.0000    0    18.998  -18.091331   13.240971  -11.916159
  49 F     9.0000    0    18.998  -21.859558   14.731020   -8.913933
  50 O     8.0000    0    15.999  -12.155437    8.394560   -5.363799
  51 C     6.0000    0    12.011  -18.620398   11.486058    0.455764
  52 C     6.0000    0    12.011  -17.906213   10.805378    2.970895
  53 C     6.0000    0    12.011  -20.899729   12.930168    0.324674
  54 C     6.0000    0    12.011   -8.764266    0.458391    5.883322
  55 C     6.0000    0    12.011  -10.605294   -1.523573    4.876741
  56 C     6.0000    0    12.011    5.904468   -5.159009   -1.722259
  57 C     6.0000    0    12.011    6.089038   -6.864714   -4.032883
  58 C     6.0000    0    12.011   -1.324585   -7.011829   -3.496749
  59 C     6.0000    0    12.011    0.029782    0.993278    8.941787
  60 O     8.0000    0    15.999   15.125765  -16.268728    4.710369
  61 C     6.0000    0    12.011   14.609057   -8.309636    0.227183
  62 F     9.0000    0    18.998   21.157733  -13.834950   -5.620272
  63 F     9.0000    0    18.998   21.713804  -18.054538   -2.891281
  64 N     7.0000    0    14.007  -22.762469   14.090705    0.239542
  65 N     7.0000    0    14.007  -17.355963   10.275594    5.031093
  66 C     6.0000    0    12.011   13.348950   -6.619635    1.906186
  67 C     6.0000    0    12.011   15.718099   -7.100268   -1.917165
  68 N     7.0000    0    14.007   16.550184   -6.101680   -3.688424
  69 N     7.0000    0    14.007   12.351212   -5.185768    3.238216
  70 H     1.0000    0     1.008    0.458561   -4.363737   -6.093535
  71 H     1.0000    0     1.008   -2.468209   -3.309024   -4.827211
  72 H     1.0000    0     1.008   -3.919424    0.717283   10.001905
  73 H     1.0000    0     1.008   -3.394572    2.234072    7.045126
  74 H     1.0000    0     1.008  -12.287151    5.253968    4.235368
  75 H     1.0000    0     1.008    9.648072   -9.449046   -0.157887
  76 H     1.0000    0     1.008  -14.790830    8.061609    1.950311
  77 H     1.0000    0     1.008   11.520394  -13.400502    5.787324
  78 H     1.0000    0     1.008  -14.419083   10.652424   -9.719712
  79 H     1.0000    0     1.008  -21.489814   13.712949   -4.165486
  80 H     1.0000    0     1.008   18.948019  -18.367798    1.260126
  81 H     1.0000    0     1.008   17.985468  -10.523431   -4.006427
  82 H     1.0000    0     1.008   -9.728556    1.824285    7.123190
  83 H     1.0000    0     1.008   -7.274047   -0.469578    6.979288
  84 H     1.0000    0     1.008  -12.119381   -0.655111    3.743925
  85 H     1.0000    0     1.008  -11.485661   -2.559653    6.451223
  86 H     1.0000    0     1.008   -9.600470   -2.900257    3.681470
  87 H     1.0000    0     1.008    7.782988   -4.423395   -1.197330
  88 H     1.0000    0     1.008    4.681929   -3.546203   -2.138074
  89 H     1.0000    0     1.008    7.258400   -8.547836   -3.681338
  90 H     1.0000    0     1.008    6.956290   -5.816388   -5.606232
  91 H     1.0000    0     1.008    4.212048   -7.516745   -4.640052
  92 H     1.0000    0     1.008    0.400490   -8.057547   -2.995972
  93 H     1.0000    0     1.008   -2.303368   -8.047002   -5.014483
  94 H     1.0000    0     1.008   -2.567968   -6.995124   -1.830256
  95 H     1.0000    0     1.008    1.211466    1.021832    7.231793
  96 H     1.0000    0     1.008    0.681964   -0.558433   10.160339
  97 H     1.0000    0     1.008    0.316302    2.789708    9.954265

--------------------------------
INTERNAL COORDINATES (ANGSTROEM)
--------------------------------
 C      0   0   0     0.000000000000     0.00000000     0.00000000
 C      1   0   0     1.437930507987     0.00000000     0.00000000
 C      2   1   0     1.416328592312   117.85743706     0.00000000
 C      3   2   1     1.396060045772   118.59896445   355.75966558
 C      4   3   2     1.434310930587   123.05243139     3.36297492
 C      1   2   3     1.392406115112   123.30103667     5.07813832
 O      6   1   2     1.366091210242   120.68823419   176.20500052
 C      7   6   1     1.443425932253   117.22833736   287.10567034
 O      3   2   1     1.367553844680   122.67201969   174.94324006
 C      9   3   2     1.446193328604   115.56537413   288.23194011
 S      4   3   2     1.769606868121   123.21748028   184.41851208
 C     11   4   3     1.750280441672    89.72754014   181.33125590
 C     12  11   4     1.413992651006   113.33500354     0.23448009
 S      1   2   3     1.767037745494   114.20439394   187.41146541
 C     14   1   2     1.739647300259    89.37190403   356.11178576
 C     15  14   1     1.410080709002   114.13248024     0.68998509
 C     15  14   1     1.403177573759   138.10121516   183.15974437
 C     17  15  14     1.418806484691   106.49511195   176.58221046
 N     16  15  14     1.394823599922   109.56628766   182.74876369
 S     17  15  14     1.723414384587   140.15736738   358.89427076
 C     20  17  15     1.781854563706    90.03609081   177.26655003
 C     18  17  15     1.398418783734   112.64490505   181.81570812
 C     12  11   4     1.408446441793   139.49768485   176.46578838
 C     23  12  11     1.421044969345   106.20171963   184.94759140
 N     24  23  12     1.385504785051   110.30211971   359.22809652
 S     23  12  11     1.729404647993   142.49403579   359.46695616
 C     26  23  12     1.781772788685    90.98438912   187.59627063
 C     24  23  12     1.396427294957   114.20973341   174.68233898
 C     21  20  17     1.418338961497   127.42301312   180.00685440
 C     29  21  20     1.383787489754   133.60085509     4.68054520
 C     27  26  23     1.418472339843   119.70291137   180.86014068
 C     31  27  26     1.381890698500   130.40790991   193.88497252
 C     30  29  21     1.483195049142   125.63104826     1.61543828
 C     33  30  29     1.481560554044   106.60816183   173.38461028
 C     34  33  30     1.407153619190   109.67449981     0.49707897
 C     30  29  21     1.466528053363   126.66799929   177.00279074
 C     32  31  27     1.502952323695   118.22216968   201.29708858
 C     37  32  31     1.491090472305   105.61143297   164.72760930
 C     38  37  32     1.409732029146   109.35330171     4.41931911
 C     32  31  27     1.454914358201   133.99928227    14.44271465
 C     34  33  30     1.389855612141   127.21904122   181.56384889
 C     41  34  33     1.389648108983   117.37192714   178.28482162
 C     42  41  34     1.406700196808   120.44242404   359.24120211
 C     43  42  41     1.393281947741   121.96673910     1.47903517
 C     38  37  32     1.392376919552   128.30921494   184.87834167
 C     45  38  37     1.392133936516   117.60408779   178.80547373
 C     46  45  38     1.407123153601   120.53631253     0.75617493
 C     47  46  45     1.391479613757   121.80692965   359.88716634
 F     42  41  34     1.329604033914   120.92622658   179.44184143
 F     43  42  41     1.331018974170   117.99366485   181.56660938
 O     33  30  29     1.218686829994   128.17902519   354.31020611
 C     36  30  29     1.384732254734   128.16388813     9.08304107
 C     52  36  30     1.429686338817   123.66150775     2.34341113
 C     52  36  30     1.429560989220   122.57646582   181.67050775
 C     19  16  15     1.467349198896   124.71533621   149.09523789
 C     55  19  16     1.527368058000   111.92246274   282.61360958
 C     25  24  23     1.469336888702   121.16622757   156.41043033
 C     57  25  24     1.522934977666   113.54045133    78.19547756
 C      8   7   6     1.519173675193   113.36990638   302.27355805
 C     10   9   3     1.516771453087   112.94689033   289.44710378
 O     37  32  31     1.213076211002   127.42928736   346.91484519
 C     40  32  31     1.387567477602   127.85573968    27.64162240
 F     47  46  45     1.329970678399   118.51567485   179.80380333
 F     46  45  38     1.331306578403   121.05500305   180.95463823
 N     54  52  36     1.162251727381   179.29237948   147.38773934
 N     53  52  36     1.162729443594   178.91933479   172.43001435
 C     62  40  32     1.426132451282   123.19296731     6.26053795
 C     62  40  32     1.428854297296   122.76583047   182.58886687
 N     68  62  40     1.162613436788   178.00420875   114.28711318
 N     67  62  40     1.162476067582   178.08822248   166.06196887
 H      8   7   6     1.099083335284   103.84251876   181.03860624
 H      8   7   6     1.102966653394   109.54623725    66.28680262
 H     10   9   3     1.099366551883   104.57406852   168.65861606
 H     10   9   3     1.103462276156   109.10700653    53.50316884
 H     22  18  17     1.090653309581   126.36156424   180.51617604
 H     28  24  23     1.086655673753   125.32862035   178.82026547
 H     29  21  20     1.089872043040   110.62472305   182.90987608
 H     31  27  26     1.098366559305   116.44899913    19.22157252
 H     41  34  33     1.091295672034   121.42896350   358.65656291
 H     44  43  42     1.087833688300   117.99027479   179.25374850
 H     45  38  37     1.091441419683   121.63671793   358.80124723
 H     48  47  46     1.087817412391   118.25870021   179.81506675
 H     55  19  16     1.101501634361   107.58594155   160.07629064
 H     55  19  16     1.095156478911   108.08557991    43.44632424
 H     56  55  19     1.101140483726   111.55421473   300.60392384
 H     56  55  19     1.100828670684   110.36419809   180.31171764
 H     56  55  19     1.101604517556   110.27151993    61.03701039
 H     57  25  24     1.103117412699   107.19056193   315.61845987
 H     57  25  24     1.093317399843   107.41165956   199.80828811
 H     58  57  25     1.100369778665   112.33772914   301.99197219
 H     58  57  25     1.100706029692   109.59263779   182.51435152
 H     58  57  25     1.099477930292   111.26516723    62.78345641
 H     59   8   7     1.099897719699   111.43694174   304.99079565
 H     59   8   7     1.101542558915   109.62397900   184.98405251
 H     59   8   7     1.100316937705   111.47222762    65.59742624
 H     60  10   9     1.100036056954   111.36071993    64.50494385
 H     60  10   9     1.099621762335   111.02674919   303.72010305
 H     60  10   9     1.101701515702   109.56673788   183.99246442

---------------------------
INTERNAL COORDINATES (A.U.)
---------------------------
 C      0   0   0     0.000000000000     0.00000000     0.00000000
 C      1   0   0     2.717294859706     0.00000000     0.00000000
 C      2   1   0     2.676473155112   117.85743706     0.00000000
 C      3   2   1     2.638171153018   118.59896445   355.75966558
 C      4   3   2     2.710454849698   123.05243139     3.36297492
 C      1   2   3     2.631266224758   123.30103667     5.07813832
 O      6   1   2     2.581538261314   120.68823419   176.20500052
 C      7   6   1     2.727679706558   117.22833736   287.10567034
 O      3   2   1     2.584302239837   122.67201969   174.94324006
 C      9   3   2     2.732909327766   115.56537413   288.23194011
 S      4   3   2     3.344072345454   123.21748028   184.41851208
 C     11   4   3     3.307550692319    89.72754014   181.33125590
 C     12  11   4     2.672058865779   113.33500354     0.23448009
 S      1   2   3     3.339217407285   114.20439394   187.41146541
 C     14   1   2     3.287456967106    89.37190403   356.11178576
 C     15  14   1     2.664666366740   114.13248024     0.68998509
 C     15  14   1     2.651621331664   138.10121516   183.15974437
 C     17  15  14     2.681155693097   106.49511195   176.58221046
 N     16  15  14     2.635834608983   109.56628766   182.74876369
 S     17  15  14     3.256781202129   140.15736738   358.89427076
 C     20  17  15     3.367217135882    90.03609081   177.26655003
 C     18  17  15     2.642628521788   112.64490505   181.81570812
 C     12  11   4     2.661578049285   139.49768485   176.46578838
 C     23  12  11     2.685385816048   106.20171963   184.94759140
 N     24  23  12     2.618224600984   110.30211971   359.22809652
 S     23  12  11     3.268101159437   142.49403579   359.46695616
 C     26  23  12     3.367062603489    90.98438912   187.59627063
 C     24  23  12     2.638865153401   114.20973341   174.68233898
 C     21  20  17     2.680272202299   127.42301312   180.00685440
 C     29  21  20     2.614979383182   133.60085509     4.68054520
 C     27  26  23     2.680524250846   119.70291137   180.86014068
 C     31  27  26     2.611394967178   130.40790991   193.88497252
 C     30  29  21     2.802832446067   125.63104826     1.61543828
 C     33  30  29     2.799743697964   106.60816183   173.38461028
 C     34  33  30     2.659134968626   109.67449981     0.49707897
 C     30  29  21     2.771336388568   126.66799929   177.00279074
 C     32  31  27     2.840168284124   118.22216968   201.29708858
 C     37  32  31     2.817752633557   105.61143297   164.72760930
 C     38  37  32     2.664007457303   109.35330171     4.41931911
 C     32  31  27     2.749389685310   133.99928227    14.44271465
 C     34  33  30     2.626446472640   127.21904122   181.56384889
 C     41  34  33     2.626054348499   117.37192714   178.28482162
 C     42  41  34     2.658278124500   120.44242404   359.24120211
 C     43  42  41     2.632921308566   121.96673910     1.47903517
 C     38  37  32     2.631211053145   128.30921494   184.87834167
 C     45  38  37     2.630751881753   117.60408779   178.80547373
 C     46  45  38     2.659077397005   120.53631253     0.75617493
 C     47  46  45     2.629515390934   121.80692965   359.88716634
 F     42  41  34     2.512587490654   120.92622658   179.44184143
 F     43  42  41     2.515261340234   117.99366485   181.56660938
 O     33  30  29     2.302984351705   128.17902519   354.31020611
 C     36  30  29     2.616764730254   128.16388813     9.08304107
 C     52  36  30     2.701715637773   123.66150775     2.34341113
 C     52  36  30     2.701478761364   122.57646582   181.67050775
 C     19  16  15     2.772888128742   124.71533621   149.09523789
 C     55  19  16     2.886307335320   111.92246274   282.61360958
 C     25  24  23     2.776644318114   121.16622757   156.41043033
 C     57  25  24     2.877930027559   113.54045133    78.19547756
 C      8   7   6     2.870822195978   113.36990638   302.27355805
 C     10   9   3     2.866282654084   112.94689033   289.44710378
 O     37  32  31     2.292381818369   127.42928736   346.91484519
 C     40  32  31     2.622122525005   127.85573968    27.64162240
 F     47  46  45     2.513280348319   118.51567485   179.80380333
 F     46  45  38     2.515804833470   121.05500305   180.95463823
 N     54  52  36     2.196337463427   179.29237948   147.38773934
 N     53  52  36     2.197240216239   178.91933479   172.43001435
 C     62  40  32     2.694999763621   123.19296731     6.26053795
 C     62  40  32     2.700143307165   122.76583047   182.58886687
 N     68  62  40     2.197020995146   178.00420875   114.28711318
 N     67  62  40     2.196761404967   178.08822248   166.06196887
 H      8   7   6     2.076966502044   103.84251876   181.03860624
 H      8   7   6     2.084304909763   109.54623725    66.28680262
 H     10   9   3     2.077501703853   104.57406852   168.65861606
 H     10   9   3     2.085241501049   109.10700653    53.50316884
 H     22  18  17     2.061036062163   126.36156424   180.51617604
 H     28  24  23     2.053481625265   125.32862035   178.82026547
 H     29  21  20     2.059559682363   110.62472305   182.90987608
 H     31  27  26     2.075611991744   116.44899913    19.22157252
 H     41  34  33     2.062249951278   121.42896350   358.65656291
 H     44  43  42     2.055707750140   117.99027479   179.25374850
 H     45  38  37     2.062525374419   121.63671793   358.80124723
 H     48  47  46     2.055676993129   118.25870021   179.81506675
 H     55  19  16     2.081536425009   107.58594155   160.07629064
 H     55  19  16     2.069545818931   108.08557991    43.44632424
 H     56  55  19     2.080853949215   111.55421473   300.60392384
 H     56  55  19     2.080264707961   110.36419809   180.31171764
 H     56  55  19     2.081730846071   110.27151993    61.03701039
 H     57  25  24     2.084589803561   107.19056193   315.61845987
 H     57  25  24     2.066070463155   107.41165956   199.80828811
 H     58  57  25     2.079397527721   112.33772914   301.99197219
 H     58  57  25     2.080032950073   109.59263779   182.51435152
 H     58  57  25     2.077712178543   111.26516723    62.78345641
 H     59   8   7     2.078505465556   111.43694174   304.99079565
 H     59   8   7     2.081613761207   109.62397900   184.98405251
 H     59   8   7     2.079297672777   111.47222762    65.59742624
 H     60  10   9     2.078766885083   111.36071993    64.50494385
 H     60  10   9     2.077983981712   111.02674919   303.72010305
 H     60  10   9     2.081914146003   109.56673788   183.99246442

---------------------
BASIS SET INFORMATION
---------------------
There are 6 groups of distinct atoms

 Group   1 Type C   : 7s4p1d contracted to 3s2p1d pattern {511/31/1}
 Group   2 Type O   : 7s4p1d contracted to 3s2p1d pattern {511/31/1}
 Group   3 Type S   : 10s7p1d contracted to 4s3p1d pattern {5311/511/1}
 Group   4 Type N   : 7s4p1d contracted to 3s2p1d pattern {511/31/1}
 Group   5 Type F   : 7s4p1d contracted to 3s2p1d pattern {511/31/1}
 Group   6 Type H   : 4s1p contracted to 2s1p pattern {31/1}

Atom   0C    basis set group =>   1
Atom   1C    basis set group =>   1
Atom   2C    basis set group =>   1
Atom   3C    basis set group =>   1
Atom   4C    basis set group =>   1
Atom   5C    basis set group =>   1
Atom   6O    basis set group =>   2
Atom   7C    basis set group =>   1
Atom   8O    basis set group =>   2
Atom   9C    basis set group =>   1
Atom  10S    basis set group =>   3
Atom  11C    basis set group =>   1
Atom  12C    basis set group =>   1
Atom  13S    basis set group =>   3
Atom  14C    basis set group =>   1
Atom  15C    basis set group =>   1
Atom  16C    basis set group =>   1
Atom  17C    basis set group =>   1
Atom  18N    basis set group =>   4
Atom  19S    basis set group =>   3
Atom  20C    basis set group =>   1
Atom  21C    basis set group =>   1
Atom  22C    basis set group =>   1
Atom  23C    basis set group =>   1
Atom  24N    basis set group =>   4
Atom  25S    basis set group =>   3
Atom  26C    basis set group =>   1
Atom  27C    basis set group =>   1
Atom  28C    basis set group =>   1
Atom  29C    basis set group =>   1
Atom  30C    basis set group =>   1
Atom  31C    basis set group =>   1
Atom  32C    basis set group =>   1
Atom  33C    basis set group =>   1
Atom  34C    basis set group =>   1
Atom  35C    basis set group =>   1
Atom  36C    basis set group =>   1
Atom  37C    basis set group =>   1
Atom  38C    basis set group =>   1
Atom  39C    basis set group =>   1
Atom  40C    basis set group =>   1
Atom  41C    basis set group =>   1
Atom  42C    basis set group =>   1
Atom  43C    basis set group =>   1
Atom  44C    basis set group =>   1
Atom  45C    basis set group =>   1
Atom  46C    basis set group =>   1
Atom  47C    basis set group =>   1
Atom  48F    basis set group =>   5
Atom  49F    basis set group =>   5
Atom  50O    basis set group =>   2
Atom  51C    basis set group =>   1
Atom  52C    basis set group =>   1
Atom  53C    basis set group =>   1
Atom  54C    basis set group =>   1
Atom  55C    basis set group =>   1
Atom  56C    basis set group =>   1
Atom  57C    basis set group =>   1
Atom  58C    basis set group =>   1
Atom  59C    basis set group =>   1
Atom  60O    basis set group =>   2
Atom  61C    basis set group =>   1
Atom  62F    basis set group =>   5
Atom  63F    basis set group =>   5
Atom  64N    basis set group =>   4
Atom  65N    basis set group =>   4
Atom  66C    basis set group =>   1
Atom  67C    basis set group =>   1
Atom  68N    basis set group =>   4
Atom  69N    basis set group =>   4
Atom  70H    basis set group =>   6
Atom  71H    basis set group =>   6
Atom  72H    basis set group =>   6
Atom  73H    basis set group =>   6
Atom  74H    basis set group =>   6
Atom  75H    basis set group =>   6
Atom  76H    basis set group =>   6
Atom  77H    basis set group =>   6
Atom  78H    basis set group =>   6
Atom  79H    basis set group =>   6
Atom  80H    basis set group =>   6
Atom  81H    basis set group =>   6
Atom  82H    basis set group =>   6
Atom  83H    basis set group =>   6
Atom  84H    basis set group =>   6
Atom  85H    basis set group =>   6
Atom  86H    basis set group =>   6
Atom  87H    basis set group =>   6
Atom  88H    basis set group =>   6
Atom  89H    basis set group =>   6
Atom  90H    basis set group =>   6
Atom  91H    basis set group =>   6
Atom  92H    basis set group =>   6
Atom  93H    basis set group =>   6
Atom  94H    basis set group =>   6
Atom  95H    basis set group =>   6
Atom  96H    basis set group =>   6
Atom  97H    basis set group =>   6
------------------------------------------------------------------------------
                           ORCA GTO INTEGRAL CALCULATION
------------------------------------------------------------------------------

                         BASIS SET STATISTICS AND STARTUP INFO

 # of primitive gaussian shells          ... 1004
 # of primitive gaussian functions       ... 1924
 # of contracted shells                  ...  512
 # of contracted basis functions         ... 1136
 Highest angular momentum                ...    2
 Maximum contraction depth               ...    5
 Integral package used                   ... LIBINT
 Integral threshhold            Thresh   ...  2.500e-11
 Primitive cut-off              TCut     ...  2.500e-12


------------------------------ INTEGRAL EVALUATION ----------------------------


 * One electron integrals 
 Pre-screening matrix                    ... done
 Shell pair data                         ... done (   0.017 sec)

-------------------------------------------------------------------------------
                                 ORCA SCF
-------------------------------------------------------------------------------

------------
SCF SETTINGS
------------
Hamiltonian:
 Ab initio Hamiltonian  Method          .... Hartree-Fock(GTOs)


General Settings:
 Integral files         IntName         .... M34
 Hartree-Fock type      HFTyp           .... RHF
 Total Charge           Charge          ....    0
 Multiplicity           Mult            ....    1
 Number of Electrons    NEL             ....  514
 Basis Dimension        Dim             .... 1136
 Nuclear Repulsion      ENuc            ....  10417.4710588677 Eh

Convergence Acceleration:
 DIIS                   CNVDIIS         .... on
   Start iteration      DIISMaxIt       ....    12
   Startup error        DIISStart       ....  0.200000
   # of expansion vecs  DIISMaxEq       ....     5
   Bias factor          DIISBfac        ....   1.050
   Max. coefficient     DIISMaxC        ....  10.000
 Newton-Raphson         CNVNR           .... off
 SOSCF                  CNVSOSCF        .... on
   Start iteration      SOSCFMaxIt      ....   150
   Startup grad/error   SOSCFStart      ....  0.003300
 Level Shifting         CNVShift        .... on
   Level shift para.    LevelShift      ....    0.2500
   Turn off err/grad.   ShiftErr        ....    0.0010
 Zerner damping         CNVZerner       .... off
 Static damping         CNVDamp         .... on
   Fraction old density DampFac         ....    0.7000
   Max. Damping (<1)    DampMax         ....    0.9800
   Min. Damping (>=0)   DampMin         ....    0.0000
   Turn off err/grad.   DampErr         ....    0.1000
 Fernandez-Rico         CNVRico         .... off

SCF Procedure:
 Maximum # iterations   MaxIter         ....   125
 SCF integral mode      SCFMode         .... Direct
   Integral package                     .... LIBINT
 Reset frequency        DirectResetFreq ....    20
 Integral Threshold     Thresh          ....  2.500e-11 Eh
 Primitive CutOff       TCut            ....  2.500e-12 Eh

Convergence Tolerance:
 Convergence Check Mode ConvCheckMode   .... Total+1el-Energy
 Convergence forced     ConvForced      .... 1
 Energy Change          TolE            ....  1.000e-08 Eh
 1-El. energy change                    ....  1.000e-05 Eh
 Orbital Gradient       TolG            ....  1.000e-05
 Orbital Rotation angle TolX            ....  1.000e-05
 DIIS Error             TolErr          ....  5.000e-07


Diagonalization of the overlap matrix:
Smallest eigenvalue                        ... 1.480e-04
Time for diagonalization                   ...    0.553 sec
Threshold for overlap eigenvalues          ... 1.000e-08
Number of eigenvalues below threshold      ... 0
Time for construction of square roots      ...    0.190 sec
Total time needed                          ...    0.760 sec

-------------------
DFT GRID GENERATION
-------------------

General Integration Accuracy     IntAcc      ...  4.340
Radial Grid Type                 RadialGrid  ... Gauss-Chebyshev
Angular Grid (max. acc.)         AngularGrid ... Lebedev-110
Angular grid pruning method      GridPruning ... 3 (G Style)
Weight generation scheme         WeightScheme... Becke
Basis function cutoff            BFCut       ...    1.0000e-11
Integration weight cutoff        WCut        ...    1.0000e-14
Grids for H and He will be reduced by one unit

# of grid points (after initial pruning)     ... 139604 (   0.2 sec)
# of grid points (after weights+screening)   ... 122523 (   4.2 sec)
nearest neighbour list constructed           ...    0.0 sec
Grid point re-assignment to atoms done       ...    0.0 sec
Grid point division into batches done        ...    0.1 sec
Reduced shell lists constructed in    2.3 sec

Total number of grid points                  ...   122523
Total number of batches                      ...     1962
Average number of points per batch           ...       62
Average number of grid points per atom       ...     1250
Average number of shells per batch           ...   106.89 (20.88%)
Average number of basis functions per batch  ...   222.26 (19.56%)
Average number of large shells per batch     ...    64.73 (60.56%)
Average number of large basis fcns per batch ...   136.56 (61.44%)
Maximum spatial batch extension              ...  21.35, 27.59, 26.00 au
Average spatial batch extension              ...   3.40,  3.55,  3.24 au

Time for grid setup =    6.812 sec

------------------------------
INITIAL GUESS: MODEL POTENTIAL
------------------------------
Loading Hartree-Fock densities                     ... done
Calculating cut-offs                               ... done
Setting up the integral package                    ... done
Initializing the effective Hamiltonian             ... done
Starting the Coulomb interaction                   ... done (   8.3 sec)
Reading the grid                                   ... done
Mapping shells                                     ... done
Starting the XC term evaluation                    ... done (   2.1 sec)
Transforming the Hamiltonian                       ... done (   0.1 sec)
Diagonalizing the Hamiltonian                      ... done (   0.3 sec)
Back transforming the eigenvectors                 ... done (   0.0 sec)
Now organizing SCF variables                       ... done
                      ------------------
                      INITIAL GUESS DONE (  17.9 sec)
                      ------------------
--------------
SCF ITERATIONS
--------------
ITER       Energy         Delta-E        Max-DP      RMS-DP      [F,P]     Damp
               ***  Starting incremental Fock matrix formation  ***
  0  -4594.4702314368   0.000000000000 0.09201656  0.00129426  0.2342974 0.7000
  1  -4595.1418580228  -0.671626585958 0.06987838  0.00100314  0.1386088 0.7000
                               ***Turning on DIIS***
  2  -4595.5503774828  -0.408519459990 0.16732002  0.00234136  0.0771601 0.0000
  3  -4593.3334537120   2.216923770724 0.05516675  0.00051659  0.0478098 0.0000
  4  -4596.8084968864  -3.475043174392 0.01325240  0.00021029  0.0190997 0.0000
  5  -4596.5980145240   0.210482362480 0.00664277  0.00010241  0.0079097 0.0000
  6  -4596.3793435651   0.218670958911 0.00530566  0.00006335  0.0022752 0.0000
                      *** Initiating the SOSCF procedure ***
                           *** Shutting down DIIS ***
                      *** Re-Reading the Fockian *** 
                      *** Removing any level shift *** 
ITER      Energy       Delta-E        Grad      Rot      Max-DP    RMS-DP
  7  -4596.46125030  -0.0819067333  0.003227  0.003227  0.002827  0.000039
               *** Restarting incremental Fock matrix formation ***
  8  -4596.45113326   0.0101170395  0.001948  0.008078  0.002009  0.000026
  9  -4596.45134723  -0.0002139676  0.000834  0.007701  0.003492  0.000037
 10  -4596.45144248  -0.0000952536  0.000331  0.001104  0.000572  0.000007
 11  -4596.45144890  -0.0000064174  0.000163  0.000629  0.000252  0.000003
 12  -4596.45145088  -0.0000019810  0.000038  0.000134  0.000134  0.000001
 13  -4596.45145112  -0.0000002403  0.000016  0.000078  0.000088  0.000001
 14  -4596.45145118  -0.0000000588  0.000011  0.000035  0.000026  0.000000
 15  -4596.45145119  -0.0000000150  0.000004  0.000012  0.000013  0.000000
                  ***Gradient check signals convergence***
              ***Rediagonalizing the Fockian in SOSCF/NRSCF***

               *****************************************************
               *                     SUCCESS                       *
               *           SCF CONVERGED AFTER  16 CYCLES          *
               *****************************************************


----------------
TOTAL SCF ENERGY
----------------

Total Energy       :        -4596.45145118 Eh         -125075.80272 eV

Components:
Nuclear Repulsion  :        10417.47105887 Eh          283473.79904 eV
Electronic Energy  :       -15013.92251005 Eh         -408549.60176 eV
One Electron Energy:       -27059.49289916 Eh         -736326.23589 eV
Two Electron Energy:        12045.57038911 Eh          327776.63413 eV

Virial components:
Potential Energy   :        -9179.24224340 Eh         -249779.88001 eV
Kinetic Energy     :         4582.79079222 Eh          124704.07729 eV
Virial Ratio       :            2.00298086


---------------
SCF CONVERGENCE
---------------

  Last Energy change         ...    1.0368e-08  Tolerance :   1.0000e-08
  Last MAX-Density change    ...    6.7685e-06  Tolerance :   1.0000e-07
  Last RMS-Density change    ...    8.2149e-08  Tolerance :   5.0000e-09
  Last Orbital Gradient      ...    1.4615e-06  Tolerance :   1.0000e-05
  Last Orbital Rotation      ...    6.5450e-06  Tolerance :   1.0000e-05

             **** THE GBW FILE WAS UPDATED (M34.gbw) ****
             **** DENSITY FILE WAS UPDATED (M34.scfp) ****
             **** ENERGY FILE WAS UPDATED (M34.en.tmp) ****
             **** THE GBW FILE WAS UPDATED (M34.gbw) ****
             **** DENSITY FILE WAS UPDATED (M34.scfp) ****
----------------
ORBITAL ENERGIES
----------------

  NO   OCC          E(Eh)            E(eV) 
   0   2.0000     -91.981523     -2502.9445 
   1   2.0000     -91.977180     -2502.8263 
   2   2.0000     -91.975447     -2502.7792 
   3   2.0000     -91.972515     -2502.6994 
   4   2.0000     -26.338799      -716.7152 
   5   2.0000     -26.337385      -716.6767 
   6   2.0000     -26.337227      -716.6724 
   7   2.0000     -26.334223      -716.5906 
   8   2.0000     -20.604840      -560.6862 
   9   2.0000     -20.604557      -560.6785 
  10   2.0000     -20.570708      -559.7574 
  11   2.0000     -20.569895      -559.7353 
  12   2.0000     -15.644620      -425.7118 
  13   2.0000     -15.642740      -425.6606 
  14   2.0000     -15.600863      -424.5211 
  15   2.0000     -15.600414      -424.5088 
  16   2.0000     -15.598972      -424.4696 
  17   2.0000     -15.595111      -424.3645 
  18   2.0000     -11.381501      -309.7064 
  19   2.0000     -11.380142      -309.6694 
  20   2.0000     -11.379072      -309.6403 
  21   2.0000     -11.377259      -309.5910 
  22   2.0000     -11.370523      -309.4077 
  23   2.0000     -11.369275      -309.3737 
  24   2.0000     -11.354804      -308.9799 
  25   2.0000     -11.352539      -308.9183 
  26   2.0000     -11.345024      -308.7138 
  27   2.0000     -11.342408      -308.6426 
  28   2.0000     -11.332515      -308.3734 
  29   2.0000     -11.329377      -308.2880 
  30   2.0000     -11.328639      -308.2679 
  31   2.0000     -11.327679      -308.2418 
  32   2.0000     -11.327201      -308.2288 
  33   2.0000     -11.321986      -308.0869 
  34   2.0000     -11.318729      -307.9983 
  35   2.0000     -11.318441      -307.9904 
  36   2.0000     -11.313323      -307.8512 
  37   2.0000     -11.313279      -307.8500 
  38   2.0000     -11.311420      -307.7994 
  39   2.0000     -11.310707      -307.7800 
  40   2.0000     -11.309081      -307.7358 
  41   2.0000     -11.308725      -307.7260 
  42   2.0000     -11.308524      -307.7206 
  43   2.0000     -11.308141      -307.7102 
  44   2.0000     -11.307838      -307.7019 
  45   2.0000     -11.307104      -307.6820 
  46   2.0000     -11.306045      -307.6531 
  47   2.0000     -11.305694      -307.6436 
  48   2.0000     -11.305148      -307.6287 
  49   2.0000     -11.304376      -307.6077 
  50   2.0000     -11.303271      -307.5777 
  51   2.0000     -11.302183      -307.5480 
  52   2.0000     -11.301712      -307.5352 
  53   2.0000     -11.301521      -307.5300 
  54   2.0000     -11.300850      -307.5118 
  55   2.0000     -11.299790      -307.4829 
  56   2.0000     -11.297988      -307.4339 
  57   2.0000     -11.297721      -307.4266 
  58   2.0000     -11.297128      -307.4105 
  59   2.0000     -11.295105      -307.3554 
  60   2.0000     -11.294706      -307.3446 
  61   2.0000     -11.294251      -307.3322 
  62   2.0000     -11.294243      -307.3320 
  63   2.0000     -11.290512      -307.2304 
  64   2.0000     -11.283139      -307.0298 
  65   2.0000     -11.281805      -306.9935 
  66   2.0000     -11.254232      -306.2432 
  67   2.0000     -11.253142      -306.2136 
  68   2.0000     -11.252973      -306.2090 
  69   2.0000     -11.247008      -306.0467 
  70   2.0000      -9.015845      -245.3336 
  71   2.0000      -9.010542      -245.1893 
  72   2.0000      -9.010043      -245.1757 
  73   2.0000      -9.006619      -245.0826 
  74   2.0000      -6.703367      -182.4079 
  75   2.0000      -6.702408      -182.3818 
  76   2.0000      -6.700293      -182.3243 
  77   2.0000      -6.697698      -182.2536 
  78   2.0000      -6.697684      -182.2532 
  79   2.0000      -6.696746      -182.2277 
  80   2.0000      -6.696585      -182.2233 
  81   2.0000      -6.694540      -182.1677 
  82   2.0000      -6.694330      -182.1620 
  83   2.0000      -6.694224      -182.1591 
  84   2.0000      -6.693314      -182.1343 
  85   2.0000      -6.690880      -182.0681 
  86   2.0000      -1.651571       -44.9415 
  87   2.0000      -1.649616       -44.8883 
  88   2.0000      -1.635779       -44.5118 
  89   2.0000      -1.633333       -44.4453 
  90   2.0000      -1.422001       -38.6946 
  91   2.0000      -1.419949       -38.6388 
  92   2.0000      -1.399877       -38.0926 
  93   2.0000      -1.398954       -38.0675 
  94   2.0000      -1.333483       -36.2859 
  95   2.0000      -1.333150       -36.2769 
  96   2.0000      -1.248953       -33.9857 
  97   2.0000      -1.246871       -33.9291 
  98   2.0000      -1.227022       -33.3890 
  99   2.0000      -1.226880       -33.3851 
 100   2.0000      -1.224933       -33.3321 
 101   2.0000      -1.222235       -33.2587 
 102   2.0000      -1.213514       -33.0214 
 103   2.0000      -1.194118       -32.4936 
 104   2.0000      -1.193650       -32.4809 
 105   2.0000      -1.179602       -32.0986 
 106   2.0000      -1.166015       -31.7289 
 107   2.0000      -1.164596       -31.6903 
 108   2.0000      -1.125817       -30.6350 
 109   2.0000      -1.107277       -30.1305 
 110   2.0000      -1.099848       -29.9284 
 111   2.0000      -1.093598       -29.7583 
 112   2.0000      -1.081413       -29.4267 
 113   2.0000      -1.079988       -29.3880 
 114   2.0000      -1.070194       -29.1215 
 115   2.0000      -1.067847       -29.0576 
 116   2.0000      -1.061988       -28.8982 
 117   2.0000      -1.055201       -28.7135 
 118   2.0000      -1.038879       -28.2693 
 119   2.0000      -1.036539       -28.2057 
 120   2.0000      -1.027046       -27.9473 
 121   2.0000      -1.026554       -27.9340 
 122   2.0000      -1.013670       -27.5834 
 123   2.0000      -1.000362       -27.2212 
 124   2.0000      -0.989508       -26.9259 
 125   2.0000      -0.984852       -26.7992 
 126   2.0000      -0.964455       -26.2442 
 127   2.0000      -0.952586       -25.9212 
 128   2.0000      -0.941869       -25.6296 
 129   2.0000      -0.937807       -25.5190 
 130   2.0000      -0.934062       -25.4171 
 131   2.0000      -0.910508       -24.7762 
 132   2.0000      -0.893203       -24.3053 
 133   2.0000      -0.891502       -24.2590 
 134   2.0000      -0.882102       -24.0032 
 135   2.0000      -0.873615       -23.7723 
 136   2.0000      -0.866670       -23.5833 
 137   2.0000      -0.862085       -23.4585 
 138   2.0000      -0.857939       -23.3457 
 139   2.0000      -0.849519       -23.1166 
 140   2.0000      -0.830676       -22.6038 
 141   2.0000      -0.825479       -22.4624 
 142   2.0000      -0.816897       -22.2289 
 143   2.0000      -0.811388       -22.0790 
 144   2.0000      -0.803126       -21.8542 
 145   2.0000      -0.800028       -21.7699 
 146   2.0000      -0.792895       -21.5758 
 147   2.0000      -0.786610       -21.4047 
 148   2.0000      -0.784794       -21.3553 
 149   2.0000      -0.784266       -21.3410 
 150   2.0000      -0.778713       -21.1899 
 151   2.0000      -0.773884       -21.0585 
 152   2.0000      -0.763875       -20.7861 
 153   2.0000      -0.754592       -20.5335 
 154   2.0000      -0.751463       -20.4483 
 155   2.0000      -0.746281       -20.3073 
 156   2.0000      -0.744110       -20.2483 
 157   2.0000      -0.741805       -20.1855 
 158   2.0000      -0.734874       -19.9969 
 159   2.0000      -0.724843       -19.7240 
 160   2.0000      -0.724143       -19.7049 
 161   2.0000      -0.721323       -19.6282 
 162   2.0000      -0.718090       -19.5402 
 163   2.0000      -0.715683       -19.4747 
 164   2.0000      -0.715114       -19.4592 
 165   2.0000      -0.708385       -19.2761 
 166   2.0000      -0.703369       -19.1396 
 167   2.0000      -0.698732       -19.0135 
 168   2.0000      -0.694826       -18.9072 
 169   2.0000      -0.693037       -18.8585 
 170   2.0000      -0.687890       -18.7184 
 171   2.0000      -0.684662       -18.6306 
 172   2.0000      -0.675299       -18.3758 
 173   2.0000      -0.671829       -18.2814 
 174   2.0000      -0.665582       -18.1114 
 175   2.0000      -0.663180       -18.0460 
 176   2.0000      -0.662129       -18.0175 
 177   2.0000      -0.660492       -17.9729 
 178   2.0000      -0.658042       -17.9062 
 179   2.0000      -0.656626       -17.8677 
 180   2.0000      -0.650704       -17.7066 
 181   2.0000      -0.644157       -17.5284 
 182   2.0000      -0.641923       -17.4676 
 183   2.0000      -0.635922       -17.3043 
 184   2.0000      -0.630833       -17.1659 
 185   2.0000      -0.625874       -17.0309 
 186   2.0000      -0.624798       -17.0016 
 187   2.0000      -0.622672       -16.9438 
 188   2.0000      -0.621315       -16.9068 
 189   2.0000      -0.618918       -16.8416 
 190   2.0000      -0.618172       -16.8213 
 191   2.0000      -0.614406       -16.7188 
 192   2.0000      -0.607256       -16.5243 
 193   2.0000      -0.604925       -16.4608 
 194   2.0000      -0.601577       -16.3697 
 195   2.0000      -0.593280       -16.1440 
 196   2.0000      -0.589282       -16.0352 
 197   2.0000      -0.584907       -15.9161 
 198   2.0000      -0.584262       -15.8986 
 199   2.0000      -0.582957       -15.8631 
 200   2.0000      -0.582421       -15.8485 
 201   2.0000      -0.579919       -15.7804 
 202   2.0000      -0.577671       -15.7192 
 203   2.0000      -0.576150       -15.6778 
 204   2.0000      -0.574364       -15.6292 
 205   2.0000      -0.573161       -15.5965 
 206   2.0000      -0.571908       -15.5624 
 207   2.0000      -0.569080       -15.4855 
 208   2.0000      -0.566805       -15.4235 
 209   2.0000      -0.564995       -15.3743 
 210   2.0000      -0.562035       -15.2938 
 211   2.0000      -0.561752       -15.2861 
 212   2.0000      -0.558264       -15.1911 
 213   2.0000      -0.554953       -15.1010 
 214   2.0000      -0.548693       -14.9307 
 215   2.0000      -0.547703       -14.9037 
 216   2.0000      -0.547325       -14.8935 
 217   2.0000      -0.541711       -14.7407 
 218   2.0000      -0.534584       -14.5468 
 219   2.0000      -0.532204       -14.4820 
 220   2.0000      -0.528974       -14.3941 
 221   2.0000      -0.525568       -14.3014 
 222   2.0000      -0.524195       -14.2641 
 223   2.0000      -0.518227       -14.1017 
 224   2.0000      -0.511795       -13.9267 
 225   2.0000      -0.509499       -13.8642 
 226   2.0000      -0.504431       -13.7263 
 227   2.0000      -0.503359       -13.6971 
 228   2.0000      -0.500799       -13.6274 
 229   2.0000      -0.499074       -13.5805 
 230   2.0000      -0.498762       -13.5720 
 231   2.0000      -0.497134       -13.5277 
 232   2.0000      -0.490361       -13.3434 
 233   2.0000      -0.486844       -13.2477 
 234   2.0000      -0.482053       -13.1173 
 235   2.0000      -0.478864       -13.0305 
 236   2.0000      -0.478010       -13.0073 
 237   2.0000      -0.476185       -12.9576 
 238   2.0000      -0.470169       -12.7939 
 239   2.0000      -0.468942       -12.7606 
 240   2.0000      -0.453958       -12.3528 
 241   2.0000      -0.449139       -12.2217 
 242   2.0000      -0.443249       -12.0614 
 243   2.0000      -0.422579       -11.4990 
 244   2.0000      -0.410412       -11.1679 
 245   2.0000      -0.407816       -11.0972 
 246   2.0000      -0.392457       -10.6793 
 247   2.0000      -0.390122       -10.6157 
 248   2.0000      -0.381614       -10.3842 
 249   2.0000      -0.368656       -10.0316 
 250   2.0000      -0.358261        -9.7488 
 251   2.0000      -0.355762        -9.6808 
 252   2.0000      -0.351722        -9.5708 
 253   2.0000      -0.334978        -9.1152 
 254   2.0000      -0.306708        -8.3459 
 255   2.0000      -0.302287        -8.2257 
 256   2.0000      -0.263734        -7.1766 
 257   0.0000      -0.036078        -0.9817 
 258   0.0000      -0.020786        -0.5656 
 259   0.0000       0.010626         0.2892 
 260   0.0000       0.017431         0.4743 
 261   0.0000       0.048917         1.3311 
 262   0.0000       0.072140         1.9630 
 263   0.0000       0.090990         2.4760 
 264   0.0000       0.096565         2.6277 
 265   0.0000       0.122457         3.3322 
 266   0.0000       0.136157         3.7050 
 267   0.0000       0.136997         3.7279 
 268   0.0000       0.137630         3.7451 
 269   0.0000       0.146256         3.9798 
 270   0.0000       0.150688         4.1004 
 271   0.0000       0.152217         4.1420 
 272   0.0000       0.159689         4.3454 
 273   0.0000       0.163551         4.4505 
 274   0.0000       0.166056         4.5186 
 275   0.0000       0.169500         4.6123 
 276   0.0000       0.171774         4.6742 
 277   0.0000       0.176341         4.7985 
 278   0.0000       0.183520         4.9938 
 279   0.0000       0.186586         5.0773 
 280   0.0000       0.192750         5.2450 
 281   0.0000       0.195586         5.3222 
 282   0.0000       0.198041         5.3890 
 283   0.0000       0.200122         5.4456 
 284   0.0000       0.202056         5.4982 
 285   0.0000       0.202682         5.5153 
 286   0.0000       0.203759         5.5446 
 287   0.0000       0.205470         5.5911 
 288   0.0000       0.206830         5.6281 
 289   0.0000       0.208756         5.6805 
 290   0.0000       0.210791         5.7359 
 291   0.0000       0.212756         5.7894 
 292   0.0000       0.217867         5.9285 
 293   0.0000       0.219588         5.9753 
 294   0.0000       0.224959         6.1214 
 295   0.0000       0.226860         6.1732 
 296   0.0000       0.231081         6.2880 
 297   0.0000       0.232653         6.3308 
 298   0.0000       0.237330         6.4581 
 299   0.0000       0.238437         6.4882 
 300   0.0000       0.240687         6.5494 
 301   0.0000       0.244938         6.6651 
 302   0.0000       0.246229         6.7002 
 303   0.0000       0.247996         6.7483 
 304   0.0000       0.249190         6.7808 
 305   0.0000       0.249774         6.7967 
 306   0.0000       0.251343         6.8394 
 307   0.0000       0.253303         6.8927 
 308   0.0000       0.257640         7.0108 
 309   0.0000       0.261091         7.1046 
 310   0.0000       0.265675         7.2294 
 311   0.0000       0.267589         7.2815 
 312   0.0000       0.268717         7.3121 
 313   0.0000       0.272422         7.4130 
 314   0.0000       0.276059         7.5120 
 315   0.0000       0.277743         7.5578 
 316   0.0000       0.281211         7.6522 
 317   0.0000       0.289999         7.8913 
 318   0.0000       0.295964         8.0536 
 319   0.0000       0.301200         8.1961 
 320   0.0000       0.309567         8.4238 
 321   0.0000       0.312245         8.4966 
 322   0.0000       0.316959         8.6249 
 323   0.0000       0.320705         8.7268 
 324   0.0000       0.323106         8.7922 
 325   0.0000       0.326640         8.8883 
 326   0.0000       0.328043         8.9265 
 327   0.0000       0.328163         8.9298 
 328   0.0000       0.333873         9.0851 
 329   0.0000       0.338136         9.2012 
 330   0.0000       0.338785         9.2188 
 331   0.0000       0.339552         9.2397 
 332   0.0000       0.344975         9.3872 
 333   0.0000       0.345201         9.3934 
 334   0.0000       0.352135         9.5821 
 335   0.0000       0.354636         9.6501 
 336   0.0000       0.358217         9.7476 
 337   0.0000       0.360334         9.8052 
 338   0.0000       0.362294         9.8585 
 339   0.0000       0.364959         9.9310 
 340   0.0000       0.366981         9.9861 
 341   0.0000       0.372790        10.1441 
 342   0.0000       0.377800        10.2805 
 343   0.0000       0.382157        10.3990 
 344   0.0000       0.384856        10.4725 
 345   0.0000       0.385627        10.4934 
 346   0.0000       0.388071        10.5600 
 347   0.0000       0.390061        10.6141 
 348   0.0000       0.392982        10.6936 
 349   0.0000       0.400699        10.9036 
 350   0.0000       0.403861        10.9896 
 351   0.0000       0.412880        11.2350 
 352   0.0000       0.414866        11.2891 
 353   0.0000       0.417310        11.3556 
 354   0.0000       0.420643        11.4463 
 355   0.0000       0.423110        11.5134 
 356   0.0000       0.424623        11.5546 
 357   0.0000       0.429087        11.6760 
 358   0.0000       0.430975        11.7274 
 359   0.0000       0.433921        11.8076 
 360   0.0000       0.434356        11.8194 
 361   0.0000       0.443433        12.0664 
 362   0.0000       0.447357        12.1732 
 363   0.0000       0.451335        12.2815 
 364   0.0000       0.455196        12.3865 
 365   0.0000       0.459790        12.5115 
 366   0.0000       0.460309        12.5256 
 367   0.0000       0.463484        12.6120 
 368   0.0000       0.464676        12.6445 
 369   0.0000       0.466629        12.6976 
 370   0.0000       0.474599        12.9145 
 371   0.0000       0.475691        12.9442 
 372   0.0000       0.476537        12.9672 
 373   0.0000       0.478862        13.0305 
 374   0.0000       0.481113        13.0918 
 375   0.0000       0.484221        13.1763 
 376   0.0000       0.488140        13.2830 
 377   0.0000       0.490878        13.3575 
 378   0.0000       0.498990        13.5782 
 379   0.0000       0.507202        13.8017 
 380   0.0000       0.510035        13.8788 
 381   0.0000       0.515083        14.0161 
 382   0.0000       0.518447        14.1077 
 383   0.0000       0.532754        14.4970 
 384   0.0000       0.535237        14.5645 
 385   0.0000       0.537225        14.6186 
 386   0.0000       0.539954        14.6929 
 387   0.0000       0.542196        14.7539 
 388   0.0000       0.544946        14.8287 
 389   0.0000       0.550501        14.9799 
 390   0.0000       0.555364        15.1122 
 391   0.0000       0.560386        15.2489 
 392   0.0000       0.561153        15.2697 
 393   0.0000       0.565758        15.3951 
 394   0.0000       0.569923        15.5084 
 395   0.0000       0.574179        15.6242 
 396   0.0000       0.579312        15.7639 
 397   0.0000       0.580955        15.8086 
 398   0.0000       0.586085        15.9482 
 399   0.0000       0.587420        15.9845 
 400   0.0000       0.592945        16.1349 
 401   0.0000       0.595213        16.1966 
 402   0.0000       0.595735        16.2108 
 403   0.0000       0.599246        16.3063 
 404   0.0000       0.602979        16.4079 
 405   0.0000       0.607310        16.5257 
 406   0.0000       0.610108        16.6019 
 407   0.0000       0.610604        16.6154 
 408   0.0000       0.613238        16.6870 
 409   0.0000       0.616732        16.7821 
 410   0.0000       0.620179        16.8759 
 411   0.0000       0.622450        16.9377 
 412   0.0000       0.627882        17.0856 
 413   0.0000       0.631804        17.1923 
 414   0.0000       0.638599        17.3772 
 415   0.0000       0.639633        17.4053 
 416   0.0000       0.643462        17.5095 
 417   0.0000       0.648120        17.6362 
 418   0.0000       0.651169        17.7192 
 419   0.0000       0.653014        17.7694 
 420   0.0000       0.655135        17.8271 
 421   0.0000       0.656347        17.8601 
 422   0.0000       0.660181        17.9644 
 423   0.0000       0.662508        18.0278 
 424   0.0000       0.668277        18.1847 
 425   0.0000       0.673087        18.3156 
 426   0.0000       0.677026        18.4228 
 427   0.0000       0.678482        18.4624 
 428   0.0000       0.680431        18.5155 
 429   0.0000       0.683362        18.5952 
 430   0.0000       0.685574        18.6554 
 431   0.0000       0.687505        18.7080 
 432   0.0000       0.690473        18.7887 
 433   0.0000       0.691719        18.8226 
 434   0.0000       0.695959        18.9380 
 435   0.0000       0.697897        18.9907 
 436   0.0000       0.698420        19.0050 
 437   0.0000       0.699209        19.0264 
 438   0.0000       0.701261        19.0823 
 439   0.0000       0.704259        19.1639 
 440   0.0000       0.706327        19.2201 
 441   0.0000       0.709964        19.3191 
 442   0.0000       0.713415        19.4130 
 443   0.0000       0.717661        19.5286 
 444   0.0000       0.717957        19.5366 
 445   0.0000       0.718729        19.5576 
 446   0.0000       0.723527        19.6882 
 447   0.0000       0.725537        19.7429 
 448   0.0000       0.727837        19.8054 
 449   0.0000       0.728471        19.8227 
 450   0.0000       0.729587        19.8531 
 451   0.0000       0.733666        19.9641 
 452   0.0000       0.735990        20.0273 
 453   0.0000       0.740573        20.1520 
 454   0.0000       0.746970        20.3261 
 455   0.0000       0.748316        20.3627 
 456   0.0000       0.752326        20.4718 
 457   0.0000       0.752994        20.4900 
 458   0.0000       0.755299        20.5527 
 459   0.0000       0.758103        20.6290 
 460   0.0000       0.761663        20.7259 
 461   0.0000       0.762986        20.7619 
 462   0.0000       0.764781        20.8108 
 463   0.0000       0.770685        20.9714 
 464   0.0000       0.771808        21.0020 
 465   0.0000       0.774659        21.0795 
 466   0.0000       0.780072        21.2268 
 467   0.0000       0.783548        21.3214 
 468   0.0000       0.784867        21.3573 
 469   0.0000       0.791780        21.5454 
 470   0.0000       0.796233        21.6666 
 471   0.0000       0.801530        21.8108 
 472   0.0000       0.806039        21.9334 
 473   0.0000       0.808570        22.0023 
 474   0.0000       0.811200        22.0739 
 475   0.0000       0.815111        22.1803 
 476   0.0000       0.816115        22.2076 
 477   0.0000       0.818591        22.2750 
 478   0.0000       0.820453        22.3257 
 479   0.0000       0.825444        22.4615 
 480   0.0000       0.828047        22.5323 
 481   0.0000       0.829599        22.5745 
 482   0.0000       0.832132        22.6435 
 483   0.0000       0.836038        22.7497 
 484   0.0000       0.837139        22.7797 
 485   0.0000       0.838210        22.8088 
 486   0.0000       0.839876        22.8542 
 487   0.0000       0.844222        22.9725 
 488   0.0000       0.845584        23.0095 
 489   0.0000       0.847529        23.0624 
 490   0.0000       0.848878        23.0991 
 491   0.0000       0.849662        23.1205 
 492   0.0000       0.853836        23.2341 
 493   0.0000       0.855596        23.2819 
 494   0.0000       0.858038        23.3484 
 495   0.0000       0.859037        23.3756 
 496   0.0000       0.860188        23.4069 
 497   0.0000       0.860991        23.4288 
 498   0.0000       0.861602        23.4454 
 499   0.0000       0.864735        23.5306 
 500   0.0000       0.868202        23.6250 
 501   0.0000       0.871620        23.7180 
 502   0.0000       0.872949        23.7542 
 503   0.0000       0.875105        23.8128 
 504   0.0000       0.876251        23.8440 
 505   0.0000       0.879172        23.9235 
 506   0.0000       0.881003        23.9733 
 507   0.0000       0.882534        24.0150 
 508   0.0000       0.883889        24.0518 
 509   0.0000       0.887713        24.1559 
 510   0.0000       0.889218        24.1968 
 511   0.0000       0.889835        24.2136 
 512   0.0000       0.891892        24.2696 
 513   0.0000       0.895772        24.3752 
 514   0.0000       0.897018        24.4091 
 515   0.0000       0.897706        24.4278 
 516   0.0000       0.899105        24.4659 
 517   0.0000       0.900763        24.5110 
 518   0.0000       0.903314        24.5804 
 519   0.0000       0.905194        24.6316 
 520   0.0000       0.906840        24.6764 
 521   0.0000       0.908270        24.7153 
 522   0.0000       0.910843        24.7853 
 523   0.0000       0.913102        24.8468 
 524   0.0000       0.915812        24.9205 
 525   0.0000       0.917006        24.9530 
 526   0.0000       0.918028        24.9808 
 527   0.0000       0.920249        25.0412 
 528   0.0000       0.923886        25.1402 
 529   0.0000       0.926263        25.2049 
 530   0.0000       0.928379        25.2625 
 531   0.0000       0.931600        25.3501 
 532   0.0000       0.934184        25.4204 
 533   0.0000       0.935024        25.4433 
 534   0.0000       0.936089        25.4723 
 535   0.0000       0.938754        25.5448 
 536   0.0000       0.941249        25.6127 
 537   0.0000       0.942907        25.6578 
 538   0.0000       0.944299        25.6957 
 539   0.0000       0.945255        25.7217 
 540   0.0000       0.946437        25.7539 
 541   0.0000       0.947805        25.7911 
 542   0.0000       0.949364        25.8335 
 543   0.0000       0.950220        25.8568 
 544   0.0000       0.953843        25.9554 
 545   0.0000       0.957467        26.0540 
 546   0.0000       0.961745        26.1704 
 547   0.0000       0.962682        26.1959 
 548   0.0000       0.964763        26.2525 
 549   0.0000       0.967676        26.3318 
 550   0.0000       0.968520        26.3548 
 551   0.0000       0.968818        26.3629 
 552   0.0000       0.972153        26.4536 
 553   0.0000       0.974918        26.5289 
 554   0.0000       0.976538        26.5730 
 555   0.0000       0.977799        26.6073 
 556   0.0000       0.980361        26.6770 
 557   0.0000       0.981891        26.7186 
 558   0.0000       0.983586        26.7647 
 559   0.0000       0.985109        26.8062 
 560   0.0000       0.990018        26.9398 
 561   0.0000       0.993517        27.0350 
 562   0.0000       0.996200        27.1080 
 563   0.0000       0.998077        27.1591 
 564   0.0000       0.998342        27.1663 
 565   0.0000       1.003796        27.3147 
 566   0.0000       1.004602        27.3366 
 567   0.0000       1.007507        27.4157 
 568   0.0000       1.009350        27.4658 
 569   0.0000       1.013089        27.5675 
 570   0.0000       1.015468        27.6323 
 571   0.0000       1.019378        27.7387 
 572   0.0000       1.019670        27.7466 
 573   0.0000       1.025832        27.9143 
 574   0.0000       1.028579        27.9890 
 575   0.0000       1.032640        28.0996 
 576   0.0000       1.034573        28.1522 
 577   0.0000       1.042264        28.3614 
 578   0.0000       1.044263        28.4158 
 579   0.0000       1.047435        28.5021 
 580   0.0000       1.049639        28.5621 
 581   0.0000       1.052135        28.6300 
 582   0.0000       1.056576        28.7509 
 583   0.0000       1.059097        28.8195 
 584   0.0000       1.063000        28.9257 
 585   0.0000       1.069857        29.1123 
 586   0.0000       1.072507        29.1844 
 587   0.0000       1.074400        29.2359 
 588   0.0000       1.084067        29.4990 
 589   0.0000       1.089066        29.6350 
 590   0.0000       1.090840        29.6833 
 591   0.0000       1.096538        29.8383 
 592   0.0000       1.101968        29.9861 
 593   0.0000       1.103334        30.0232 
 594   0.0000       1.107329        30.1319 
 595   0.0000       1.114954        30.3394 
 596   0.0000       1.117404        30.4061 
 597   0.0000       1.120329        30.4857 
 598   0.0000       1.127993        30.6942 
 599   0.0000       1.129314        30.7302 
 600   0.0000       1.131076        30.7781 
 601   0.0000       1.132882        30.8273 
 602   0.0000       1.139606        31.0103 
 603   0.0000       1.143778        31.1238 
 604   0.0000       1.145651        31.1747 
 605   0.0000       1.149562        31.2812 
 606   0.0000       1.155771        31.4501 
 607   0.0000       1.157055        31.4851 
 608   0.0000       1.162990        31.6466 
 609   0.0000       1.163821        31.6692 
 610   0.0000       1.168665        31.8010 
 611   0.0000       1.174316        31.9548 
 612   0.0000       1.183650        32.2088 
 613   0.0000       1.186528        32.2871 
 614   0.0000       1.188347        32.3366 
 615   0.0000       1.193208        32.4688 
 616   0.0000       1.201249        32.6876 
 617   0.0000       1.203478        32.7483 
 618   0.0000       1.207192        32.8494 
 619   0.0000       1.213701        33.0265 
 620   0.0000       1.214843        33.0576 
 621   0.0000       1.217010        33.1165 
 622   0.0000       1.227477        33.4013 
 623   0.0000       1.228841        33.4385 
 624   0.0000       1.231581        33.5130 
 625   0.0000       1.243289        33.8316 
 626   0.0000       1.248437        33.9717 
 627   0.0000       1.250522        34.0284 
 628   0.0000       1.257383        34.2151 
 629   0.0000       1.259705        34.2783 
 630   0.0000       1.264177        34.4000 
 631   0.0000       1.270850        34.5816 
 632   0.0000       1.273814        34.6623 
 633   0.0000       1.279477        34.8163 
 634   0.0000       1.291008        35.1301 
 635   0.0000       1.294681        35.2301 
 636   0.0000       1.297400        35.3040 
 637   0.0000       1.302087        35.4316 
 638   0.0000       1.310501        35.6605 
[...]
   Size of expansion space: 27
   Lowest Energy          :     0.097948018869
   Maximum Energy change  :     0.000104732743 (vector 2)
   Maximum residual norm  :     0.000020508345

                       ****Iteration    7****
   Time for densities:     1.055
   Using LibInt in JK Direct
   Time for J+K (Direct):  1217.768
   Time for Sigma-Completion:     6.985
   Size of expansion space: 30
   Lowest Energy          :     0.097947602179
   Maximum Energy change  :     0.000052630924 (vector 2)
   Maximum residual norm  :     0.000007924717
   Rebuilding the expansion space

                       ****Iteration    8****
   Time for densities:     2.096
   Using LibInt in JK Direct
   Time for J+K (Direct):  2295.685
   Time for Sigma-Completion:    11.774
   Size of expansion space: 6
   Lowest Energy          :     0.097947537642
   Maximum Energy change  :     0.000015970368 (vector 2)
   Maximum residual norm  :     0.000003096761

                       ****Iteration    9****
   Time for densities:     1.021
   Using LibInt in JK Direct
   Time for J+K (Direct):  1091.155
   Time for Sigma-Completion:     5.843
   Size of expansion space: 9
   Lowest Energy          :     0.097947514399
   Maximum Energy change  :     0.000009990648 (vector 2)
   Maximum residual norm  :     0.000001503159

                       ****Iteration   10****
   Time for densities:     1.020
   Using LibInt in JK Direct
   Time for J+K (Direct):  1082.284
   Time for Sigma-Completion:     5.752
   Size of expansion space: 12
   Lowest Energy          :     0.097947507367
   Maximum Energy change  :     0.000008811679 (vector 2)
   Maximum residual norm  :     0.000001718697

                       ****Iteration   11****
   Time for densities:     1.021
   Using LibInt in JK Direct
   Time for J+K (Direct):  1083.793
   Time for Sigma-Completion:     5.653
   Size of expansion space: 15
   Lowest Energy          :     0.097947505571
   Maximum Energy change  :     0.000006096417 (vector 2)
   Maximum residual norm  :     0.000001489031

                       ****Iteration   12****
   Time for densities:     1.019
   Using LibInt in JK Direct
   Time for J+K (Direct):  1084.609
   Time for Sigma-Completion:     5.787
   Size of expansion space: 18
   Lowest Energy          :     0.097947505167
   Maximum Energy change  :     0.000004759165 (vector 2)
   Maximum residual norm  :     0.000000535600

                       ****Iteration   13****
   Time for densities:     1.021
   Using LibInt in JK Direct
   Time for J+K (Direct):  1091.658
   Time for Sigma-Completion:     5.686
   Size of expansion space: 21
   Lowest Energy          :     0.097947505081
   Maximum Energy change  :     0.000002070159 (vector 2)
   Maximum residual norm  :     0.000000339365

                       ****Iteration   14****
   Time for densities:     1.019
   Using LibInt in JK Direct
   Time for J+K (Direct):  1055.583
   Time for Sigma-Completion:     5.802
   Size of expansion space: 24
   Lowest Energy          :     0.097947505067
   Maximum Energy change  :     0.000000789965 (vector 2)
   Maximum residual norm  :     0.000000097295

      *** CONVERGENCE OF RESIDUAL NORM REACHED ***

Storing the converged CI vectors               ... M34.cis1

                 *** DAVIDSON DONE ***

Total time for solving the CIS problem: 20802.606sec

-----------------------------
CIS-EXCITED STATES (SINGLETS)
-----------------------------

the weight of the individual excitations are printed if larger than 1.0e-02

STATE  1:  E=   0.097948 au      2.665 eV    21497.0 cm**-1
   254a -> 257a  :     0.027066 (c=  0.16451743)
   255a -> 257a  :     0.020389 (c=  0.14278994)
   255a -> 258a  :     0.186596 (c=  0.43196729)
   255a -> 260a  :     0.012394 (c= -0.11133059)
   256a -> 257a  :     0.619639 (c= -0.78717177)
   256a -> 259a  :     0.016781 (c=  0.12954127)

STATE  2:  E=   0.117726 au      3.203 eV    25837.9 cm**-1
   249a -> 258a  :     0.020492 (c= -0.14315073)
   252a -> 258a  :     0.021211 (c=  0.14564128)
   254a -> 258a  :     0.031834 (c=  0.17842116)
   255a -> 257a  :     0.354987 (c=  0.59580802)
   255a -> 258a  :     0.012716 (c= -0.11276742)
   256a -> 257a  :     0.016075 (c=  0.12678794)
   256a -> 258a  :     0.394497 (c= -0.62809026)
   256a -> 260a  :     0.016549 (c=  0.12864392)

STATE  3:  E=   0.153790 au      4.185 eV    33752.9 cm**-1
   249a -> 257a  :     0.014909 (c= -0.12210439)
   253a -> 258a  :     0.067122 (c= -0.25907958)
   254a -> 257a  :     0.407551 (c=  0.63839707)
   254a -> 259a  :     0.012551 (c= -0.11202924)
   254a -> 261a  :     0.028584 (c=  0.16906695)
   255a -> 258a  :     0.067802 (c=  0.26038810)
   256a -> 257a  :     0.050408 (c=  0.22451649)
   256a -> 259a  :     0.106936 (c= -0.32701134)
   256a -> 261a  :     0.055922 (c=  0.23647729)
   256a -> 263a  :     0.022655 (c= -0.15051437)


----------------------
CIS-EXCITATION SPECTRA
----------------------

Center of mass = ( -0.9216, -1.4214,  0.0723)
Calculating the Dipole integrals                  ... done
Transforming integrals                            ... done
Calculating the Linear Momentum integrals         ... done
Transforming integrals                            ... done
Calculating angular momentum integrals            ... done
Transforming integrals                            ... done

-----------------------------------------------------------------------------
         ABSORPTION SPECTRUM VIA TRANSITION ELECTRIC DIPOLE MOMENTS
-----------------------------------------------------------------------------
State   Energy    Wavelength  fosc         T2        TX        TY        TZ  
        (cm-1)      (nm)                 (au**2)    (au)      (au)      (au) 
-----------------------------------------------------------------------------
   1   21497.0    465.2   2.679517181  41.03500   5.43703  -3.34489   0.53423
   2   25837.9    387.0   0.653802190   8.33037  -1.38084   2.21277  -1.23585
   3   33752.9    296.3   0.305900395   2.98362   0.24711   0.72228  -1.54948

-----------------------------------------------------------------------------
         ABSORPTION SPECTRUM VIA TRANSITION VELOCITY DIPOLE MOMENTS
-----------------------------------------------------------------------------
State   Energy    Wavelength   fosc        P2         PX        PY        PZ  
        (cm-1)      (nm)                 (au**2)     (au)      (au)      (au) 
-----------------------------------------------------------------------------
   1   21497.0    465.2   1.663437780   0.24439  -0.41790   0.26411   0.00090
   2   25837.9    387.0   0.329878369   0.05825   0.15839  -0.15956   0.08780
   3   33752.9    296.3   0.084457380   0.01948   0.00620   0.07586  -0.11700

-------------------------------------------------------------------
                             CD SPECTRUM
-------------------------------------------------------------------
State  Energy     Wavelength     R         MX        MY        MZ   
       (cm-1)       (nm)     (1e40*cgs)   (au)      (au)      (au)  
-------------------------------------------------------------------
   1   21497.0    465.2    182.55631   0.81805   1.34270   0.80606
   2   25837.9    387.0    -174.01237  -0.14235  -0.09468   0.28819
   3   33752.9    296.3    -106.41562   0.01138   0.07216   0.18113

Total run time:    20838.404 sec

           *** ORCA-CIS/TD-DFT FINISHED WITHOUT ERROR ***

-----------------------
CIS/TD-DFT TOTAL ENERGY
-----------------------

    E(SCF)  =  -4596.451451182 Eh
    DE(CIS) =      0.097947505 Eh (Root  1)
    ----------------------------- ---------
    E(tot)  =  -4596.353503677 Eh


-------------------------   --------------------
FINAL SINGLE POINT ENERGY     -4596.353503676925
-------------------------   --------------------

------------------------------------------------------------------------------
                         ORCA SCF GRADIENT CALCULATION
------------------------------------------------------------------------------


------------
CIS GRADIENT
------------

Reference wavefunction             ... RHF
State of interest                  ... 1
Basis dimension                    ... 1136
DFT-XC contribution needed         ... NO
RI-approximation                   ... OFF
CIS-vectors being read from        ... M34.cis

 => Number of Vectors found: 3
 => Orbital Window: 86...256 -> 257...1135

Reading the CIS file                     ... done
Norm of the CI vector                    ... 1.000000000
Making the CIS (pseudo)densities         ... done
Making operators G(D) and Q(T)           ... done
Transforming the Fock operators          ... done
Making the frozen-core relaxed density   ... done
Constructing the G(H) operator           ... done
Transforming the G(H) operator           ... done
Calculating the CIS Lagrangian           ... done
Solving the Z-vector equations           ... done
Finalizing the relaxed density           ... done
Storing the relaxed density              ... done
Constructing the G(Z) operator           ... done
Transforming the G(Z) operator           ... done
Making the W-matrix                      ... done
Finalizing the W-matrix                  ... done
Transforming the W-matrix                ... done
Nuclear repulsion gradient               ... done
One-Electron gradient                    ... done
Prescreening matrices                    ... done
Two-Electron gradient (4-center)         ... done
                 ---------------------------
                 EXCITED STATE GRADIENT DONE
                 ---------------------------


------------------
CARTESIAN GRADIENT
------------------

   1   C   :   -0.011130517    0.008450529   -0.000155191
   2   C   :    0.000154327   -0.003922005    0.006523080
   3   C   :   -0.008870571    0.012116349   -0.010274434
   4   C   :    0.012328442   -0.010181432    0.000378099
   5   C   :   -0.003090434    0.005733691   -0.005988627
   6   C   :    0.006267803   -0.011061795    0.010716874
   7   O   :    0.018339405    0.004331849   -0.010596956
   8   C   :   -0.002202966   -0.005898781    0.004266495
   9   O   :   -0.009741309   -0.011533110    0.014012316
  10   C   :    0.007008188    0.002568770   -0.000243220
  11   S   :   -0.001689345    0.001233349    0.004724072
  12   C   :   -0.013357977    0.009023816    0.004123367
  13   C   :   -0.007162181    0.001912363    0.003245159
  14   S   :    0.002036083   -0.000569734   -0.005860396
  15   C   :    0.004983354    0.000942626   -0.011080995
  16   C   :    0.007615991   -0.007458157    0.007400664
  17   C   :    0.001717553    0.004374637   -0.013759850
  18   C   :   -0.010680193    0.003025966    0.011902660
  19   N   :   -0.002092173    0.000100450    0.007540209
  20   S   :   -0.001760636    0.004829427   -0.009833916
  21   C   :   -0.009053836    0.007198794   -0.002345018
  22   C   :    0.001081423   -0.003927944    0.005390779
  23   C   :    0.011441770   -0.013555687    0.009193957
  24   C   :   -0.002071349   -0.000361557   -0.005085160
  25   N   :    0.004898190   -0.000276395   -0.008494710
  26   S   :   -0.002033995    0.001963903    0.000335749
  27   C   :   -0.002912900    0.007096946   -0.006765116
  28   C   :    0.010988434   -0.003988069    0.009667613
  29   C   :    0.007754169   -0.003077331   -0.003782644
  30   C   :   -0.004554517    0.003593459   -0.000177182
  31   C   :    0.012030138   -0.000647912   -0.009485649
  32   C   :   -0.008745128    0.003334068    0.011319971
  33   C   :   -0.037005651    0.019581233    0.016055971
  34   C   :    0.011140999   -0.006003470   -0.000838105
  35   C   :   -0.004740440    0.000076580    0.018607317
  36   C   :    0.007148162   -0.002020942   -0.019254202
  37   C   :    0.006376727    0.025760089   -0.027262523
  38   C   :   -0.005236000   -0.004425902    0.010024827
  39   C   :   -0.010669066    0.015429688    0.000219177
  40   C   :    0.004108837   -0.007301661   -0.010152303
  41   C   :    0.002529628   -0.001742259    0.001788195
  42   C   :    0.005663332   -0.003828942    0.002182994
  43   C   :   -0.000322949   -0.001061222    0.007221047
  44   C   :    0.000666664   -0.001446323    0.004471643
  45   C   :   -0.000904359   -0.001382925    0.002006888
  46   C   :   -0.003450093   -0.003327219    0.007845462
  47   C   :   -0.004790105    0.007940324    0.000192629
  48   C   :   -0.000827949    0.002792605    0.001020754
  49   F   :   -0.001305695    0.005618836   -0.019845982
  50   F   :   -0.016067490    0.009764020   -0.010226316
  51   O   :    0.044055900   -0.024244685   -0.018623861
  52   C   :   -0.011066394    0.005508503    0.017693602
  53   C   :   -0.018035819    0.017490741   -0.071468859
  54   C   :    0.064749288   -0.040539220    0.002441416
  55   C   :   -0.001654941    0.000193602   -0.005023235
  56   C   :    0.003570933    0.003500691    0.001043516
  57   C   :   -0.002115316   -0.008641441    0.000585019
  58   C   :   -0.000216229    0.004332999    0.004493835
  59   C   :    0.000281727    0.004361919   -0.002750498
  60   C   :   -0.004984192    0.000010614   -0.001170060
  61   O   :   -0.003018720   -0.034105797    0.034961156
  62   C   :    0.001388330    0.011251503   -0.001271525
  63   F   :    0.011127964    0.002225038   -0.016565013
  64   F   :    0.013161274   -0.013263177   -0.007996951
  65   N   :   -0.060467472    0.037692796   -0.004281480
  66   N   :    0.018170042   -0.017112043    0.066356545
  67   C   :    0.030688705   -0.049397172   -0.045047467
  68   C   :   -0.026812985   -0.033522576    0.058431759
  69   N   :    0.026261271    0.030003961   -0.055984778
  70   N   :   -0.033653342    0.042335481    0.041211977
  71   H   :    0.005011224    0.000446570   -0.007197148
  72   H   :   -0.009003820    0.005042523   -0.002388902
  73   H   :   -0.005152121    0.000819977    0.006929800
  74   H   :   -0.003282451    0.006974403   -0.005811691
  75   H   :   -0.004668419    0.001556997    0.005954731
  76   H   :    0.004531505   -0.000637952   -0.007324716
  77   H   :   -0.004793193    0.001110309    0.008847678
  78   H   :   -0.000030868   -0.007861736    0.006143953
  79   H   :    0.006159843   -0.003147778   -0.004502150
  80   H   :   -0.006556928    0.003061214    0.005737386
  81   H   :    0.000972791   -0.006553333    0.004718044
  82   H   :   -0.001329804    0.007870585   -0.004552366
  83   H   :   -0.004073194    0.005484846    0.004648819
  84   H   :    0.008352182   -0.005420887    0.004466458
  85   H   :   -0.005182929    0.003692336   -0.004211475
  86   H   :   -0.003093162   -0.003614832    0.004872604
  87   H   :    0.004302472   -0.004513903   -0.004204931
  88   H   :    0.007224973    0.003138832    0.002728493
  89   H   :   -0.007680893    0.007511753   -0.001939902
  90   H   :    0.004230891   -0.006117843    0.001658393
  91   H   :    0.002990148    0.003114909   -0.005468466
  92   H   :   -0.007579322   -0.002388952   -0.001902478
  93   H   :    0.006931272   -0.003356156    0.002197906
  94   H   :   -0.003439997   -0.004285129   -0.004973412
  95   H   :   -0.003590402    0.000398776    0.006370681
  96   H   :    0.003424119   -0.000480798   -0.006434035
  97   H   :    0.002488240   -0.005791221    0.003824460
  98   H   :    0.001598023    0.006071160    0.003907698

Difference to translation invariance:
           :    0.0000000000    0.0000000000   -0.0000000000

Norm of the cartesian gradient     ...    0.2493506749
RMS gradient                       ...    0.0145424267
MAX gradient                       ...    0.0714688592

-------
TIMINGS
-------

Total CIS gradient time            ...    16068.635 sec

Fock matrix formation       ....    1197.574 sec  (  7.5%)
  Coulomb formation         ....    1197.574 sec  (100.0% of F)
Z-vector equation           ....   13355.817 sec  ( 83.1%)
One electron gradient       ....      10.835 sec  (  0.1%)
Prescreening matrices       ....       1.017 sec  (  0.0%)
Two electron gradient       ....    1501.280 sec  (  9.3%)

                            ***************************************
                            *     ORCA property calculations      *
                            ***************************************

                                    ---------------------
                                    Active property flags
                                    ---------------------
   (+) Dipole Moment


------------------------------------------------------------------------------
                       ORCA ELECTRIC PROPERTIES CALCULATION
------------------------------------------------------------------------------

Dipole Moment Calculation                       ... on
Quadrupole Moment Calculation                   ... off
Polarizability Calculation                      ... off
GBWName                                         ... M34.gbw
Electron density file                           ... M34.scfp
The origin for moment calculation is the CENTER OF MASS  = (-0.921603, -1.421384  0.072285)

-------------
DIPOLE MOMENT
-------------
                                X             Y             Z
Electronic contribution:      8.09324      15.09895     -28.00360
Nuclear contribution   :     -8.17161     -17.42274      28.10916
                        -----------------------------------------
Total Dipole Moment    :     -0.07836      -2.32379       0.10556
                        -----------------------------------------
Magnitude (a.u.)       :      2.32751
Magnitude (Debye)      :      5.91605



--------------------
Rotational spectrum 
--------------------
 
Rotational constants in cm-1:     0.002563     0.000238     0.000223 
Rotational constants in MHz :    76.840507     7.135988     6.680129 

 Dipole components along the rotational axes: 
x,y,z [a.u.] :     1.293799     0.465205    -1.878018 
x,y,z [Debye]:     3.288577     1.182458    -4.773542 

 

                        *** CIS RELAXED DENSITY ***

------------------------------------------------------------------------------
                       ORCA ELECTRIC PROPERTIES CALCULATION
------------------------------------------------------------------------------

Dipole Moment Calculation                       ... on
Quadrupole Moment Calculation                   ... off
Polarizability Calculation                      ... off
GBWName                                         ... M34.gbw
Electron density file                           ... M34.cisp
The origin for moment calculation is the CENTER OF MASS  = (-0.921603, -1.421384  0.072285)

-------------
DIPOLE MOMENT
-------------
                                X             Y             Z
Electronic contribution:      7.00241      15.45650     -27.76874
Nuclear contribution   :     -8.17161     -17.42274      28.10916
                        -----------------------------------------
Total Dipole Moment    :     -1.16920      -1.96623       0.34042
                        -----------------------------------------
Magnitude (a.u.)       :      2.31279
Magnitude (Debye)      :      5.87864



--------------------
Rotational spectrum 
--------------------
 
Rotational constants in cm-1:     0.002563     0.000238     0.000223 
Rotational constants in MHz :    76.840507     7.135988     6.680129 

 Dipole components along the rotational axes: 
x,y,z [a.u.] :     0.224127     0.871304    -2.130630 
x,y,z [Debye]:     0.569686     2.214678    -5.415631 

 

Timings for individual modules:

Sum of individual times         ...    42200.056 sec (= 703.334 min)
GTO integral calculation        ...        4.214 sec (=   0.070 min)   0.0 %
SCF iterations                  ...     5286.502 sec (=  88.108 min)  12.5 %
CIS module                      ...    20840.396 sec (= 347.340 min)  49.4 %
SCF Gradient evaluation         ...    16068.943 sec (= 267.816 min)  38.1 %
                             ****ORCA TERMINATED NORMALLY****
TOTAL RUN TIME: 0 days 11 hours 43 minutes 20 seconds 987 msec
