
                                 *****************
                                 * O   R   C   A *
                                 *****************

           --- An Ab Initio, DFT and Semiempirical electronic structure package ---

                  #######################################################
                  #                        -***-                        #
                  #          Department of theory and spectroscopy      #
                  #               Directorship: Frank Neese             #
                  #        Max Planck Institute fuer Kohlenforschung    #
                  #                Kaiser Wilhelm Platz 1               #
                  #                 D-45470 Muelheim/Ruhr               #
                  #                      Germany                        #
                  #                                                     #
                  #                  All rights reserved                #
                  #                        -***-                        #
                  #######################################################


                         Program Version 4.2.0 -  RELEASE  -


 With contributions from (in alphabetic order):
   Daniel Aravena         : Magnetic Suceptibility
   Michael Atanasov       : Ab Initio Ligand Field Theory (pilot matlab implementation)
   Alexander A. Auer      : GIAO ZORA, VPT2
   Ute Becker             : Parallelization
   Giovanni Bistoni       : ED, misc. LED, open-shell LED, HFLED
   Martin Brehm           : Molecular dynamics
   Dmytro Bykov           : SCF Hessian
   Vijay G. Chilkuri      : MRCI spin determinant printing, contributions to CSF-ICE
   Dipayan Datta          : RHF DLPNO-CCSD density
   Achintya Kumar Dutta   : EOM-CC, STEOM-CC
   Dmitry Ganyushin       : Spin-Orbit,Spin-Spin,Magnetic field MRCI
   Miquel Garcia          : C-PCM Hessian, Gaussian charge scheme
   Yang Guo               : DLPNO-NEVPT2, CIM, IAO-localization
   Andreas Hansen         : Spin unrestricted coupled pair/coupled cluster methods
   Benjamin Helmich-Paris : CASSCF linear response (MC-RPA)
   Lee Huntington         : MR-EOM, pCC
   Robert Izsak           : Overlap fitted RIJCOSX, COSX-SCS-MP3, EOM
   Christian Kollmar      : KDIIS, OOCD, Brueckner-CCSD(T), CCSD density
   Simone Kossmann        : Meta GGA functionals, TD-DFT gradient, OOMP2, MP2 Hessian
   Martin Krupicka        : AUTO-CI
   Lucas Lang             : DCDCAS
   Dagmar Lenk            : GEPOL surface, SMD
   Dimitrios Liakos       : Extrapolation schemes; Compound Job, initial MDCI parallelization
   Dimitrios Manganas     : Further ROCIS development; embedding schemes
   Dimitrios Pantazis     : SARC Basis sets
   Taras Petrenko         : DFT Hessian,TD-DFT gradient, ASA, ECA, R-Raman, ABS, FL, XAS/XES, NRVS
   Peter Pinski           : DLPNO-MP2, DLPNO-MP2 Gradient
   Christoph Reimann      : Effective Core Potentials
   Marius Retegan         : Local ZFS, SOC
   Christoph Riplinger    : Optimizer, TS searches, QM/MM, DLPNO-CCSD(T), (RO)-DLPNO pert. Triples
   Tobias Risthaus        : Range-separated hybrids, TD-DFT gradient, RPA, STAB
   Michael Roemelt        : Original ROCIS implementation
   Masaaki Saitow         : Open-shell DLPNO-CCSD energy and density
   Barbara Sandhoefer     : DKH picture change effects
   Avijit Sen             : IP-ROCIS
   Kantharuban Sivalingam : CASSCF convergence, NEVPT2, FIC-MRCI
   Bernardo de Souza      : ESD, SOC TD-DFT
   Georgi Stoychev        : AutoAux, RI-MP2 NMR
   Willem Van den Heuvel  : Paramagnetic NMR
   Boris Wezisla          : Elementary symmetry handling
   Frank Wennmohs         : Technical directorship


 We gratefully acknowledge several colleagues who have allowed us to
 interface, adapt or use parts of their codes:
   Stefan Grimme, W. Hujo, H. Kruse,             : VdW corrections, initial TS optimization,
                  C. Bannwarth                     DFT functionals, gCP, sTDA/sTD-DF
   Ed Valeev, F. Pavosevic, A. Kumar             : LibInt (2-el integral package), F12 methods
   Garnet Chan, S. Sharma, J. Yang, R. Olivares  : DMRG
   Ulf Ekstrom                                   : XCFun DFT Library
   Mihaly Kallay                                 : mrcc  (arbitrary order and MRCC methods)
   Andreas Klamt, Michael Diedenhofen            : otool_cosmo (COSMO solvation model)
   Jiri Pittner, Ondrej Demel                    : Mk-CCSD
   Frank Weinhold                                : gennbo (NPA and NBO analysis)
   Christopher J. Cramer and Donald G. Truhlar   : smd solvation model
   Lars Goerigk                                  : TD-DFT with DH, B97 family of functionals
   V. Asgeirsson, H. Jonsson                     : NEB implementation
   FAccTs GmbH                                   : IRC, NEB, NEB-TS, Multilevel, MM, QM/MM, CI optimization
   S Lehtola, MJT Oliveira, MAL Marques          : LibXC Library


 Your calculation uses the libint2 library for the computation of 2-el integrals
 For citations please refer to: http://libint.valeyev.net

 Your ORCA version has been built with support for libXC version: 4.2.3
 For citations please refer to: https://tddft.org/programs/libxc/

 This ORCA versions uses:
   CBLAS   interface :  Fast vector & matrix operations
   LAPACKE interface :  Fast linear algebra routines
   SCALAPACK package :  Parallel linear algebra routines


----- Orbital basis set information -----
Your calculation utilizes the basis: def2-SVP
   F. Weigend and R. Ahlrichs, Phys. Chem. Chem. Phys. 7, 3297 (2005).

================================================================================
                                        WARNINGS
                       Please study these warnings very carefully!
================================================================================

INFO   : Checking CIS options ...

WARNING: CIS/ROCIS methods need fully converged wavefunctions
  ===> : Setting SCFConvForced true
         You can overwrite this default with %scf ConvForced false 


INFO   : the flag for use of LIBINT has been found!

================================================================================
                                       INPUT FILE
================================================================================
NAME = M8.inp
|  1> # ORCA input file
|  2> # M8.out: Geometry 83
|  3> ! Engrad Keepdens
|  4> %maxcore 1000
|  5> %tddft
|  6>   nroots 3 
|  7>   # nroots is the number of states to be computed
|  8>   Iroot 1
|  9>   end
| 10> * xyz 0 1
| 11>    C       -0.33965         0.26688        -0.38377
| 12>    C       -0.85681         0.57339         0.92275
| 13>    C       -0.15402         0.16596         2.08311
| 14>    C        0.99235        -0.59849         1.85691
| 15>    C        1.45866        -0.94501         0.54497
| 16>    C        0.78994        -0.50752        -0.61212
| 17>    O        1.26288        -0.87204        -1.82760
| 18>    C        0.34336        -1.37114        -2.82090
| 19>    O       -0.61279         0.45189         3.33344
| 20>    C       -0.22693         1.73078         3.87099
| 21>    O        1.76666        -1.18292         2.83688
| 22>    C        2.70395        -1.93069         2.17409
| 23>    C        2.57406        -1.80181         0.78055
| 24>    O       -1.14410         0.75037        -1.38965
| 25>    C       -2.20204         1.31871        -0.75463
| 26>    C       -2.10222         1.24243         0.64186
| 27>    C       -3.39746         1.94741        -1.09332
| 28>    C       -4.04490         2.22083         0.15361
| 29>    N       -3.23481         1.80266         1.20951
| 30>    S       -4.31090         2.49986        -2.43523
| 31>    C       -5.59781         3.07897        -1.34092
| 32>    C       -5.29752         2.83542         0.01090
| 33>    C        3.71838        -2.86734         2.43315
| 34>    C        4.19008        -3.25595         1.13716
| 35>    N        3.49428        -2.59438         0.14142
| 36>    S        4.57016        -3.72944         3.67275
| 37>    C        5.54242        -4.60167         2.44950
| 38>    C        5.20426        -4.20968         1.14845
| 39>    C       -6.64141         3.76418        -2.00814
| 40>    C       -7.84883         4.29395        -1.59855
| 41>    C        6.38800        -5.65233         2.87268
| 42>    C        7.26382        -6.48553         2.19601
| 43>    C       -8.53068         4.06441        -0.29723
| 44>    C       -9.91253         4.59413        -0.46603
| 45>    C      -10.04092         5.18948        -1.73627
| 46>    C       -8.75087         5.06813        -2.45363
| 47>    C        7.56546        -7.80400         2.84945
| 48>    C        8.18401        -8.64830         1.79276
| 49>    C        8.35809        -7.88292         0.62262
| 50>    C        7.90350        -6.48948         0.89224
| 51>    C      -10.96924         4.52868         0.43604
| 52>    C      -12.18822         5.06935         0.03853
| 53>    C      -12.32554         5.67684        -1.22203
| 54>    C      -11.26552         5.74911        -2.11958
| 55>    C        8.55431        -9.98584         1.87645
| 56>    C        9.11128       -10.57230         0.74501
| 57>    C        9.29839        -9.82199        -0.42935
| 58>    C        8.93079        -8.47983        -0.50951
| 59>    F      -13.25315         5.02089         0.83405
| 60>    F      -13.50935         6.18280        -1.55300
| 61>    O       -8.09343         3.53033         0.70868
| 62>    C       -8.47025         5.64617        -3.67998
| 63>    C       -7.19284         5.57495        -4.32056
| 64>    C       -9.42475         6.41004        -4.42191
| 65>    C       -3.67061         1.69442         2.59877
| 66>    C       -4.08166         0.27469         2.97689
| 67>    C        3.76677        -2.72753        -1.28693
| 68>    C        3.34938        -4.09017        -1.83526
| 69>    C       -0.54182        -2.48704        -2.29684
| 70>    C        1.23741         1.79656         4.26685
| 71>    O        7.31636        -8.13083         3.99163
| 72>    C        8.23058        -5.39652         0.10045
| 73>    F        9.84640       -10.42850        -1.48108
| 74>    F        9.47941       -11.85050         0.74798
| 75>    N      -10.17037         7.03880        -5.05426
| 76>    N       -6.17075         5.53245        -4.87304
| 77>    C        8.07304        -4.04900         0.53751
| 78>    C        8.84976        -5.53077        -1.18074
| 79>    N        9.33231        -5.62788        -2.23398
| 80>    N        7.95865        -2.94274         0.87689
| 81>    H        1.00082        -1.73636        -3.62293
| 82>    H       -0.25777        -0.54050        -3.21913
| 83>    H       -0.87512         1.86977         4.74885
| 84>    H       -0.47297         2.51928         3.13696
| 85>    H       -5.99469         3.12125         0.79638
| 86>    H        5.63923        -4.66167         0.26219
| 87>    H       -6.42670         3.89051        -3.06983
| 88>    H        6.25439        -5.97271         3.91451
| 89>    H      -10.85652         4.05919         1.41425
| 90>    H      -11.43604         6.22851        -3.08101
| 91>    H        8.41163       -10.55998         2.79357
| 92>    H        9.11080        -7.95552        -1.44611
| 93>    H       -4.50815         2.39561         2.72308
| 94>    H       -2.85838         2.04883         3.24844
| 95>    H       -4.85983        -0.10266         2.29603
| 96>    H       -4.48420         0.25489         4.00168
| 97>    H       -3.21316        -0.39885         2.94014
| 98>    H        4.84525        -2.55812        -1.44119
| 99>    H        3.22587        -1.92043        -1.79325
|100>    H        3.85980        -4.91157        -1.31154
|101>    H        3.60576        -4.16442        -2.90364
|102>    H        2.26440        -4.24090        -1.72316
|103>    H        0.06142        -3.28435        -1.83657
|104>    H       -1.11765        -2.92374        -3.12745
|105>    H       -1.25831        -2.12291        -1.54603
|106>    H        1.49257         0.96852         4.94345
|107>    H        1.44381         2.74863         4.78163
|108>    H        1.89500         1.73658         3.38699
|109> *
|110> 
|111>                          ****END OF INPUT****
================================================================================

                     *******************************
                     * Energy+Gradient Calculation *
                     *******************************

---------------------------------
CARTESIAN COORDINATES (ANGSTROEM)
---------------------------------
  C     -0.339650    0.266880   -0.383770
  C     -0.856810    0.573390    0.922750
  C     -0.154020    0.165960    2.083110
  C      0.992350   -0.598490    1.856910
  C      1.458660   -0.945010    0.544970
  C      0.789940   -0.507520   -0.612120
  O      1.262880   -0.872040   -1.827600
  C      0.343360   -1.371140   -2.820900
  O     -0.612790    0.451890    3.333440
  C     -0.226930    1.730780    3.870990
  O      1.766660   -1.182920    2.836880
  C      2.703950   -1.930690    2.174090
  C      2.574060   -1.801810    0.780550
  O     -1.144100    0.750370   -1.389650
  C     -2.202040    1.318710   -0.754630
  C     -2.102220    1.242430    0.641860
  C     -3.397460    1.947410   -1.093320
  C     -4.044900    2.220830    0.153610
  N     -3.234810    1.802660    1.209510
  S     -4.310900    2.499860   -2.435230
  C     -5.597810    3.078970   -1.340920
  C     -5.297520    2.835420    0.010900
  C      3.718380   -2.867340    2.433150
  C      4.190080   -3.255950    1.137160
  N      3.494280   -2.594380    0.141420
  S      4.570160   -3.729440    3.672750
  C      5.542420   -4.601670    2.449500
  C      5.204260   -4.209680    1.148450
  C     -6.641410    3.764180   -2.008140
  C     -7.848830    4.293950   -1.598550
  C      6.388000   -5.652330    2.872680
  C      7.263820   -6.485530    2.196010
  C     -8.530680    4.064410   -0.297230
  C     -9.912530    4.594130   -0.466030
  C    -10.040920    5.189480   -1.736270
  C     -8.750870    5.068130   -2.453630
  C      7.565460   -7.804000    2.849450
  C      8.184010   -8.648300    1.792760
  C      8.358090   -7.882920    0.622620
  C      7.903500   -6.489480    0.892240
  C    -10.969240    4.528680    0.436040
  C    -12.188220    5.069350    0.038530
  C    -12.325540    5.676840   -1.222030
  C    -11.265520    5.749110   -2.119580
  C      8.554310   -9.985840    1.876450
  C      9.111280  -10.572300    0.745010
  C      9.298390   -9.821990   -0.429350
  C      8.930790   -8.479830   -0.509510
  F    -13.253150    5.020890    0.834050
  F    -13.509350    6.182800   -1.553000
  O     -8.093430    3.530330    0.708680
  C     -8.470250    5.646170   -3.679980
  C     -7.192840    5.574950   -4.320560
  C     -9.424750    6.410040   -4.421910
  C     -3.670610    1.694420    2.598770
  C     -4.081660    0.274690    2.976890
  C      3.766770   -2.727530   -1.286930
  C      3.349380   -4.090170   -1.835260
  C     -0.541820   -2.487040   -2.296840
  C      1.237410    1.796560    4.266850
  O      7.316360   -8.130830    3.991630
  C      8.230580   -5.396520    0.100450
  F      9.846400  -10.428500   -1.481080
  F      9.479410  -11.850500    0.747980
  N    -10.170370    7.038800   -5.054260
  N     -6.170750    5.532450   -4.873040
  C      8.073040   -4.049000    0.537510
  C      8.849760   -5.530770   -1.180740
  N      9.332310   -5.627880   -2.233980
  N      7.958650   -2.942740    0.876890
  H      1.000820   -1.736360   -3.622930
  H     -0.257770   -0.540500   -3.219130
  H     -0.875120    1.869770    4.748850
  H     -0.472970    2.519280    3.136960
  H     -5.994690    3.121250    0.796380
  H      5.639230   -4.661670    0.262190
  H     -6.426700    3.890510   -3.069830
  H      6.254390   -5.972710    3.914510
  H    -10.856520    4.059190    1.414250
  H    -11.436040    6.228510   -3.081010
  H      8.411630  -10.559980    2.793570
  H      9.110800   -7.955520   -1.446110
  H     -4.508150    2.395610    2.723080
  H     -2.858380    2.048830    3.248440
  H     -4.859830   -0.102660    2.296030
  H     -4.484200    0.254890    4.001680
  H     -3.213160   -0.398850    2.940140
  H      4.845250   -2.558120   -1.441190
  H      3.225870   -1.920430   -1.793250
  H      3.859800   -4.911570   -1.311540
  H      3.605760   -4.164420   -2.903640
  H      2.264400   -4.240900   -1.723160
  H      0.061420   -3.284350   -1.836570
  H     -1.117650   -2.923740   -3.127450
  H     -1.258310   -2.122910   -1.546030
  H      1.492570    0.968520    4.943450
  H      1.443810    2.748630    4.781630
  H      1.895000    1.736580    3.386990

----------------------------
CARTESIAN COORDINATES (A.U.)
----------------------------
  NO LB      ZA    FRAG     MASS         X           Y           Z
   0 C     6.0000    0    12.011   -0.641845    0.504330   -0.725220
   1 C     6.0000    0    12.011   -1.619136    1.083550    1.743745
   2 C     6.0000    0    12.011   -0.291056    0.313619    3.936507
   3 C     6.0000    0    12.011    1.875270   -1.130982    3.509051
   4 C     6.0000    0    12.011    2.756468   -1.785810    1.029844
   5 C     6.0000    0    12.011    1.492770   -0.959074   -1.156739
   6 O     8.0000    0    15.999    2.386497   -1.647917   -3.453663
   7 C     6.0000    0    12.011    0.648856   -2.591079   -5.330728
   8 O     8.0000    0    15.999   -1.158005    0.853948    6.299289
   9 C     6.0000    0    12.011   -0.428836    3.270700    7.315111
  10 O     8.0000    0    15.999    3.338504   -2.235395    5.360926
  11 C     6.0000    0    12.011    5.109725   -3.648475    4.108435
  12 C     6.0000    0    12.011    4.864268   -3.404927    1.475026
  13 O     8.0000    0    15.999   -2.162036    1.417994   -2.626058
  14 C     6.0000    0    12.011   -4.161253    2.492001   -1.426044
  15 C     6.0000    0    12.011   -3.972620    2.347852    1.212940
  16 C     6.0000    0    12.011   -6.420269    3.680072   -2.066075
  17 C     6.0000    0    12.011   -7.643753    4.196760    0.290281
  18 N     7.0000    0    14.007   -6.112905    3.406534    2.285643
  19 S    16.0000    0    32.060   -8.146420    4.724051   -4.601918
  20 C     6.0000    0    12.011  -10.578328    5.818410   -2.533972
  21 C     6.0000    0    12.011  -10.010862    5.358167    0.020598
  22 C     6.0000    0    12.011    7.026720   -5.418487    4.597987
  23 C     6.0000    0    12.011    7.918104   -6.152854    2.148921
  24 N     7.0000    0    14.007    6.603232   -4.902668    0.267245
  25 S    16.0000    0    32.060    8.636351   -7.047620    6.940492
  26 C     6.0000    0    12.011   10.473656   -8.695896    4.628884
  27 C     6.0000    0    12.011    9.834626   -7.955142    2.170256
  28 C     6.0000    0    12.011  -12.550446    7.113269   -3.794835
  29 C     6.0000    0    12.011  -14.832139    8.114390   -3.020822
  30 C     6.0000    0    12.011   12.071571  -10.681356    5.428578
  31 C     6.0000    0    12.011   13.726630  -12.255876    4.149857
  32 C     6.0000    0    12.011  -16.120649    7.680622   -0.561683
  33 C     6.0000    0    12.011  -18.731967    8.681648   -0.880669
  34 C     6.0000    0    12.011  -18.974589    9.806696   -3.281075
  35 C     6.0000    0    12.011  -16.536748    9.577378   -4.636689
  36 C     6.0000    0    12.011   14.296647  -14.747423    5.384680
  37 C     6.0000    0    12.011   15.465538  -16.342919    3.387825
  38 C     6.0000    0    12.011   15.794501  -14.896560    1.176581
  39 C     6.0000    0    12.011   14.935450  -12.263340    1.686089
  40 C     6.0000    0    12.011  -20.728859    8.557965    0.823996
  41 C     6.0000    0    12.011  -23.032398    9.579683    0.072811
  42 C     6.0000    0    12.011  -23.291895   10.727673   -2.309302
  43 C     6.0000    0    12.011  -21.288748   10.864243   -4.005426
  44 C     6.0000    0    12.011   16.165303  -18.870503    3.545977
  45 C     6.0000    0    12.011   17.217824  -19.978752    1.407865
  46 C     6.0000    0    12.011   17.571411  -18.560871   -0.811354
  47 C     6.0000    0    12.011   16.876747  -16.024556   -0.962834
  48 F     9.0000    0    18.998  -25.044824    9.488107    1.576126
  49 F     9.0000    0    18.998  -25.528972   11.683799   -2.934745
  50 O     8.0000    0    15.999  -15.294366    6.671357    1.339211
  51 C     6.0000    0    12.011  -16.006453   10.669715   -6.954154
  52 C     6.0000    0    12.011  -13.592498   10.535129   -8.164675
  53 C     6.0000    0    12.011  -17.810196   12.113220   -8.356199
  54 C     6.0000    0    12.011   -6.936448    3.201990    4.910964
  55 C     6.0000    0    12.011   -7.713220    0.519089    5.625507
  56 C     6.0000    0    12.011    7.118164   -5.154285   -2.431945
  57 C     6.0000    0    12.011    6.329411   -7.729301   -3.468139
  58 C     6.0000    0    12.011   -1.023891   -4.699824   -4.340399
  59 C     6.0000    0    12.011    2.338366    3.395006    8.063178
  60 O     8.0000    0    15.999   13.825917  -15.365042    7.543088
  61 C     6.0000    0    12.011   15.553542  -10.197945    0.189823
  62 F     9.0000    0    18.998   18.606999  -19.707009   -2.798836
  63 F     9.0000    0    18.998   17.913489  -22.394200    1.413477
  64 N     7.0000    0    14.007  -19.219214   13.301404   -9.551167
  65 N     7.0000    0    14.007  -11.661028   10.454815   -9.208711
  66 C     6.0000    0    12.011   15.255835   -7.651501    1.015747
  67 C     6.0000    0    12.011   16.723623  -10.451641   -2.231275
  68 N     7.0000    0    14.007   17.635510  -10.635152   -4.221610
  69 N     7.0000    0    14.007   15.039669   -5.560973    1.657082
  70 H     1.0000    0     1.008    1.891276   -3.281245   -6.846346
  71 H     1.0000    0     1.008   -0.487115   -1.021397   -6.083274
  72 H     1.0000    0     1.008   -1.653737    3.533353    8.974026
  73 H     1.0000    0     1.008   -0.893784    4.760749    5.927995
  74 H     1.0000    0     1.008  -11.328322    5.898308    1.504940
  75 H     1.0000    0     1.008   10.656600   -8.809280    0.495467
  76 H     1.0000    0     1.008  -12.144703    7.351998   -5.801138
  77 H     1.0000    0     1.008   11.819084  -11.286786    7.397352
  78 H     1.0000    0     1.008  -20.515850    7.670757    2.672545
  79 H     1.0000    0     1.008  -21.610984   11.770178   -5.822265
  80 H     1.0000    0     1.008   15.895677  -19.955470    5.279082
  81 H     1.0000    0     1.008   17.216917  -15.033754   -2.732752
  82 H     1.0000    0     1.008   -8.519169    4.527047    5.145875
  83 H     1.0000    0     1.008   -5.401555    3.871728    6.138662
  84 H     1.0000    0     1.008   -9.183748   -0.193999    4.338868
  85 H     1.0000    0     1.008   -8.473910    0.481672    7.562079
  86 H     1.0000    0     1.008   -6.071992   -0.753717    5.556059
  87 H     1.0000    0     1.008    9.156196   -4.834146   -2.723454
  88 H     1.0000    0     1.008    6.096011   -3.629087   -3.388751
  89 H     1.0000    0     1.008    7.293965   -9.281522   -2.478451
  90 H     1.0000    0     1.008    6.813899   -7.869613   -5.487084
  91 H     1.0000    0     1.008    4.279096   -8.014140   -3.256300
  92 H     1.0000    0     1.008    0.116067   -6.206522   -3.470614
  93 H     1.0000    0     1.008   -2.112052   -5.525068   -5.910024
  94 H     1.0000    0     1.008   -2.377861   -4.011719   -2.921573
  95 H     1.0000    0     1.008    2.820549    1.830238    9.341767
  96 H     1.0000    0     1.008    2.728405    5.194158    9.035971
  97 H     1.0000    0     1.008    3.581031    3.281661    6.400484

--------------------------------
INTERNAL COORDINATES (ANGSTROEM)
--------------------------------
 C      0   0   0     0.000000000000     0.00000000     0.00000000
 C      1   0   0     1.438192391893     0.00000000     0.00000000
 C      2   1   0     1.416456253684   120.29692522     0.00000000
 C      3   2   1     1.396321746375   115.60167751   356.33320032
 C      4   3   2     1.434819741326   123.17250333     0.87350133
 C      1   2   3     1.388456931489   124.11253660     4.86977772
 O      6   1   2     1.354229930403   125.58154443   176.36426326
 C      7   6   1     1.442658216765   119.24245545   314.40954934
 O      3   2   1     1.362186105751   121.63133871   179.41392742
 C      9   3   2     1.439933183936   116.02992895   273.51033444
 O      4   3   2     1.378932776425   125.30428210   185.17056205
 C     11   4   3     1.370023029405   105.76452305   174.55239977
 C     12  11   4     1.405501760262   111.49307621     1.98936521
 O      1   2   3     1.375753232597   112.27456660   180.62646556
 C     14   1   2     1.358491000927   105.10708553   357.63081284
 C     15  14   1     1.402129448696   112.79055416     1.06627747
 C     15  14   1     1.392481088741   138.05144919   182.68276220
 C     17  15  14     1.431353022458   105.22864413   176.86908025
 N     16  15  14     1.385223550009   109.14324083   181.91953747
 S     17  15  14     1.714729157681   142.47829937   355.83239850
 C     20  17  15     1.785782774108    90.50480965   179.98122110
 C     18  17  15     1.402549063883   113.51812238   181.35647875
 C     12  11   4     1.404810852393   140.23978878   187.48515583
 C     23  12  11     1.432867300974   104.58137313   175.76301434
 N     13  12  11     1.372391784513   110.29289216   182.01419698
 S     23  12  11     1.733595609824   144.90766975   357.53451942
 C     26  23  12     1.789529335608    91.17765387   178.02166573
 C     24  23  12     1.392224640423   114.72510978   180.85276572
 C     21  20  17     1.415555096950   113.54198236   175.59927578
 C     29  21  20     1.380682178273   133.67965144   175.08243921
 C     27  26  23     1.413496828578   118.85928197   187.70377207
 C     31  27  26     1.385339381271   132.76687332   181.32506407
 C     30  29  21     1.486957220804   126.97023671   347.68166016
 C     33  30  29     1.489498620644   105.74375739   192.42484803
 C     34  33  30     1.408699851707   109.69677256   356.06816515
 C     30  29  21     1.464306197624   124.63488432   175.01731227
 C     32  31  27     1.502109737702   116.25600854   203.79528344
 C     37  32  31     1.487292959911   105.82625593   164.32418062
 C     38  37  32     1.409020230657   109.45382586     4.73233239
 C     32  31  27     1.452247333549   135.94058776    15.80637256
 C     34  33  30     1.390916967867   127.92166775   175.07601515
 C     41  34  33     1.391492180862   117.51496156   181.62166905
 C     42  41  34     1.406027167625   120.63402718   358.92369553
 C     43  42  41     1.390849149189   121.77439489     0.70330099
 C     38  37  32     1.390373819410   127.88678164   184.85952127
 C     45  38  37     1.390793797117   117.60278030   179.55503621
 C     46  45  38     1.406092691753   120.51262726     0.60302869
 C     47  46  45     1.393897001647   121.78572553   359.60420236
 F     42  41  34     1.330141476272   121.08765064   178.61231289
 F     43  42  41     1.329263998835   118.33733030   180.24349536
 O     33  30  29     1.219952432269   128.67020943    10.87236010
 C     36  30  29     1.384489851353   127.81598867   345.15418637
 C     52  36  30     1.430800941047   123.83104395   359.62800671
 C     52  36  30     1.430044667764   123.18100589   181.36984356
 C     19  16  15     1.460027700148   127.15649586   166.59955126
 C     55  19  16     1.525637607625   112.65870727   292.98426274
 C     25  13  12     1.460192947901   129.29685469   183.34396772
 C     57  25  13     1.526980016438   112.43449649   248.89154952
 C      8   7   6     1.517700670752   112.85289888   308.94482779
 C     10   9   3     1.518329273774   113.21932819   287.58034729
 O     37  32  31     1.213854938327   127.18940301   346.53396571
 C     40  32  31     1.388695176092   127.84150562    27.56864626
 F     47  46  45     1.332030530093   118.11358173   179.43812815
 F     46  45  38     1.330159297904   120.94514638   180.53830751
 N     54  52  36     1.162391863573   177.88942824   176.96378529
 N     53  52  36     1.162629936179   178.08451151   170.82357257
 C     62  40  32     1.425359760061   122.90149428     5.69173054
 C     62  40  32     1.429284699072   122.62915494   180.71406088
 N     68  62  40     1.162583051743   178.68250463   119.40034332
 N     67  62  40     1.162787617796   178.85181489   163.22698906
 H      8   7   6     1.099495984940   103.65234639   188.92001501
 H      8   7   6     1.099957826192   109.65461550    73.49258629
 H     10   9   3     1.100048487931   104.60968257   166.86724460
 H     10   9   3     1.105019444399   109.03278647    51.56262078
 H     22  18  17     1.088450103680   127.85676981   178.36653573
 H     28  24  23     1.085794938559   124.77588968   176.22640755
 H     29  21  20     1.090525244595   111.70377444   355.06138406
 H     31  27  26     1.098136933811   115.34751995    10.17501609
 H     41  34  33     1.090881048786   121.55446920     0.74208910
 H     44  43  42     1.087772529208   118.28116413   179.76875095
 H     45  38  37     1.091376844358   121.45589768   359.77694556
 H     48  47  46     1.088358459424   118.01701497   179.51427157
 H     55  19  16     1.099360561326   106.72089231   170.77383915
 H     55  19  16     1.098815330208   108.54434103    55.88947165
 H     56  55  19     1.100687017730   110.86724255   304.57841202
 H     56  55  19     1.101192551600   110.23489584   184.88824682
 H     56  55  19     1.099681292057   110.41995051    65.65266688
 H     57  25  13     1.102549321391   107.78153060   126.55459913
 H     57  25  13     1.095601735303   107.02298350    10.88067429
 H     58  57  25     1.099776875007   111.63125309   301.72269261
 H     58  57  25     1.101217322466   110.17671954   182.14061721
 H     58  57  25     1.101121039350   110.78941115    61.94402551
 H     59   8   7     1.100658987425   110.93785416   307.62536753
 H     59   8   7     1.100999569028   109.64374769   187.99123973
 H     59   8   7     1.099847368093   111.85389996    68.46813289
 H     60  10   9     1.099338176905   110.59018464   306.82756477
 H     60  10   9     1.101833332814   109.87127228   186.89048438
 H     60  10   9     1.100079918960   111.44572169    67.23629329

---------------------------
INTERNAL COORDINATES (A.U.)
---------------------------
 C      0   0   0     0.000000000000     0.00000000     0.00000000
 C      1   0   0     2.717789748568     0.00000000     0.00000000
 C      2   1   0     2.676714400143   120.29692522     0.00000000
 C      3   2   1     2.638665695488   115.60167751   356.33320032
 C      4   3   2     2.711416362651   123.17250333     0.87350133
 C      1   2   3     2.623803349259   124.11253660     4.86977772
 O      6   1   2     2.559123690821   125.58154443   176.36426326
 C      7   6   1     2.726228934537   119.24245545   314.40954934
 O      3   2   1     2.574158683301   121.63133871   179.41392742
 C      9   3   2     2.721079368784   116.02992895   273.51033444
 O      4   3   2     2.605805304531   125.30428210   185.17056205
 C     11   4   3     2.588968322741   105.76452305   174.55239977
 C     12  11   4     2.656013407640   111.49307621     1.98936521
 O      1   2   3     2.599796837464   112.27456660   180.62646556
 C     14   1   2     2.567175947149   105.10708553   357.63081284
 C     15  14   1     2.649640662341   112.79055416     1.06627747
 C     15  14   1     2.631407904384   138.05144919   182.68276220
 C     17  15  14     2.704865213406   105.22864413   176.86908025
 N     16  15  14     2.617693143775   109.14324083   181.91953747
 S     17  15  14     3.240368501866   142.47829937   355.83239850
 C     20  17  15     3.374640377738    90.50480965   179.98122110
 C     18  17  15     2.650433620127   113.51812238   181.35647875
 C     12  11   4     2.654707780982   140.23978878   187.48515583
 C     23  12  11     2.707726785091   104.58137313   175.76301434
 N     13  12  11     2.593444621174   110.29289216   182.01419698
 S     23  12  11     3.276020929535   144.90766975   357.53451942
 C     26  23  12     3.381720352916    91.17765387   178.02166573
 C     24  23  12     2.630923287296   114.72510978   180.85276572
 C     21  20  17     2.675011460711   113.54198236   175.59927578
 C     29  21  20     2.609111194921   133.67965144   175.08243921
 C     27  26  23     2.671121897179   118.85928197   187.70377207
 C     31  27  26     2.617912033138   132.76687332   181.32506407
 C     30  29  21     2.809941920175   126.97023671   347.68166016
 C     33  30  29     2.814744469870   105.74375739   192.42484803
 C     34  33  30     2.662056924622   109.69677256   356.06816515
 C     30  29  21     2.767137689713   124.63488432   175.01731227
 C     32  31  27     2.838576027354   116.25600854   203.79528344
 C     37  32  31     2.810576375140   105.82625593   164.32418062
 C     38  37  32     2.662662353096   109.45382586     4.73233239
 C     32  31  27     2.744349739125   135.94058776    15.80637256
 C     34  33  30     2.628452144293   127.92166775   175.07601515
 C     41  34  33     2.629539139322   117.51496156   181.62166905
 C     42  41  34     2.657006283665   120.63402718   358.92369553
 C     43  42  41     2.628323985565   121.77439489     0.70330099
 C     38  37  32     2.627425742458   127.88678164   184.85952127
 C     45  38  37     2.628219385308   117.60278030   179.55503621
 C     46  45  38     2.657130106321   120.51262726     0.60302869
 C     47  46  45     2.634083592006   121.78572553   359.60420236
 F     42  41  34     2.513603109524   121.08765064   178.61231289
 F     43  42  41     2.511944917480   118.33733030   180.24349536
 O     33  30  29     2.305375993400   128.67020943    10.87236010
 C     36  30  29     2.616306654251   127.81598867   345.15418637
 C     52  36  30     2.703821930735   123.83104395   359.62800671
 C     52  36  30     2.702392781348   123.18100589   181.36984356
 C     19  16  15     2.759052501219   127.15649586   166.59955126
 C     55  19  16     2.883037258022   112.65870727   292.98426274
 C     25  13  12     2.759364774216   129.29685469   183.34396772
 C     57  25  13     2.885574043038   112.43449649   248.89154952
 C      8   7   6     2.868038620989   112.85289888   308.94482779
 C     10   9   3     2.869226508549   113.21932819   287.58034729
 O     37  32  31     2.293853399745   127.18940301   346.53396571
 C     40  32  31     2.624253566311   127.84150562    27.56864626
 F     47  46  45     2.517172903898   118.11358173   179.43812815
 F     46  45  38     2.513636787527   120.94514638   180.53830751
 N     54  52  36     2.196602282451   177.88942824   176.96378529
 N     53  52  36     2.197052174477   178.08451151   170.82357257
 C     62  40  32     2.693539588826   122.90149428     5.69173054
 C     62  40  32     2.700956648649   122.62915494   180.71406088
 N     68  62  40     2.196963575733   178.68250463   119.40034332
 N     67  62  40     2.197350149549   178.85181489   163.22698906
 H      8   7   6     2.077746296883   103.65234639   188.92001501
 H      8   7   6     2.078619050365   109.65461550    73.49258629
 H     10   9   3     2.078790376224   104.60968257   166.86724460
 H     10   9   3     2.088184122572   109.03278647    51.56262078
 H     22  18  17     2.056872606393   127.85676981   178.36653573
 H     28  24  23     2.051855071474   124.77588968   176.22640755
 H     29  21  20     2.060794054413   111.70377444   355.06138406
 H     31  27  26     2.075178062447   115.34751995    10.17501609
 H     41  34  33     2.061466426890   121.55446920     0.74208910
 H     44  43  42     2.055592176206   118.28116413   179.76875095
 H     45  38  37     2.062403344739   121.45589768   359.77694556
 H     48  47  46     2.056699423848   118.01701497   179.51427157
 H     55  19  16     2.077490383341   106.72089231   170.77383915
 H     55  19  16     2.076460045847   108.54434103    55.88947165
 H     56  55  19     2.079997022673   110.86724255   304.57841202
 H     56  55  19     2.080952343239   110.23489584   184.88824682
 H     56  55  19     2.078096476584   110.41995051    65.65266688
 H     57  25  13     2.083516266570   107.78153060   126.55459913
 H     57  25  13     2.070387231572   107.02298350    10.88067429
 H     58  57  25     2.078277102183   111.63125309   301.72269261
 H     58  57  25     2.080999153391   110.17671954   182.14061721
 H     58  57  25     2.080817204671   110.78941115    61.94402551
 H     59   8   7     2.079944053073   110.93785416   307.62536753
 H     59   8   7     2.080587659028   109.64374769   187.99123973
 H     59   8   7     2.078410314809   111.85389996    68.46813289
 H     60  10   9     2.077448082914   110.59018464   306.82756477
 H     60  10   9     2.082163244244   109.87127228   186.89048438
 H     60  10   9     2.078849772262   111.44572169    67.23629329

---------------------
BASIS SET INFORMATION
---------------------
There are 6 groups of distinct atoms

 Group   1 Type C   : 7s4p1d contracted to 3s2p1d pattern {511/31/1}
 Group   2 Type O   : 7s4p1d contracted to 3s2p1d pattern {511/31/1}
 Group   3 Type N   : 7s4p1d contracted to 3s2p1d pattern {511/31/1}
 Group   4 Type S   : 10s7p1d contracted to 4s3p1d pattern {5311/511/1}
 Group   5 Type F   : 7s4p1d contracted to 3s2p1d pattern {511/31/1}
 Group   6 Type H   : 4s1p contracted to 2s1p pattern {31/1}

Atom   0C    basis set group =>   1
Atom   1C    basis set group =>   1
Atom   2C    basis set group =>   1
Atom   3C    basis set group =>   1
Atom   4C    basis set group =>   1
Atom   5C    basis set group =>   1
Atom   6O    basis set group =>   2
Atom   7C    basis set group =>   1
Atom   8O    basis set group =>   2
Atom   9C    basis set group =>   1
Atom  10O    basis set group =>   2
Atom  11C    basis set group =>   1
Atom  12C    basis set group =>   1
Atom  13O    basis set group =>   2
Atom  14C    basis set group =>   1
Atom  15C    basis set group =>   1
Atom  16C    basis set group =>   1
Atom  17C    basis set group =>   1
Atom  18N    basis set group =>   3
Atom  19S    basis set group =>   4
Atom  20C    basis set group =>   1
Atom  21C    basis set group =>   1
Atom  22C    basis set group =>   1
Atom  23C    basis set group =>   1
Atom  24N    basis set group =>   3
Atom  25S    basis set group =>   4
Atom  26C    basis set group =>   1
Atom  27C    basis set group =>   1
Atom  28C    basis set group =>   1
Atom  29C    basis set group =>   1
Atom  30C    basis set group =>   1
Atom  31C    basis set group =>   1
Atom  32C    basis set group =>   1
Atom  33C    basis set group =>   1
Atom  34C    basis set group =>   1
Atom  35C    basis set group =>   1
Atom  36C    basis set group =>   1
Atom  37C    basis set group =>   1
Atom  38C    basis set group =>   1
Atom  39C    basis set group =>   1
Atom  40C    basis set group =>   1
Atom  41C    basis set group =>   1
Atom  42C    basis set group =>   1
Atom  43C    basis set group =>   1
Atom  44C    basis set group =>   1
Atom  45C    basis set group =>   1
Atom  46C    basis set group =>   1
Atom  47C    basis set group =>   1
Atom  48F    basis set group =>   5
Atom  49F    basis set group =>   5
Atom  50O    basis set group =>   2
Atom  51C    basis set group =>   1
Atom  52C    basis set group =>   1
Atom  53C    basis set group =>   1
Atom  54C    basis set group =>   1
Atom  55C    basis set group =>   1
Atom  56C    basis set group =>   1
Atom  57C    basis set group =>   1
Atom  58C    basis set group =>   1
Atom  59C    basis set group =>   1
Atom  60O    basis set group =>   2
Atom  61C    basis set group =>   1
Atom  62F    basis set group =>   5
Atom  63F    basis set group =>   5
Atom  64N    basis set group =>   3
Atom  65N    basis set group =>   3
Atom  66C    basis set group =>   1
Atom  67C    basis set group =>   1
Atom  68N    basis set group =>   3
Atom  69N    basis set group =>   3
Atom  70H    basis set group =>   6
Atom  71H    basis set group =>   6
Atom  72H    basis set group =>   6
Atom  73H    basis set group =>   6
Atom  74H    basis set group =>   6
Atom  75H    basis set group =>   6
Atom  76H    basis set group =>   6
Atom  77H    basis set group =>   6
Atom  78H    basis set group =>   6
Atom  79H    basis set group =>   6
Atom  80H    basis set group =>   6
Atom  81H    basis set group =>   6
Atom  82H    basis set group =>   6
Atom  83H    basis set group =>   6
Atom  84H    basis set group =>   6
Atom  85H    basis set group =>   6
Atom  86H    basis set group =>   6
Atom  87H    basis set group =>   6
Atom  88H    basis set group =>   6
Atom  89H    basis set group =>   6
Atom  90H    basis set group =>   6
Atom  91H    basis set group =>   6
Atom  92H    basis set group =>   6
Atom  93H    basis set group =>   6
Atom  94H    basis set group =>   6
Atom  95H    basis set group =>   6
Atom  96H    basis set group =>   6
Atom  97H    basis set group =>   6
------------------------------------------------------------------------------
                           ORCA GTO INTEGRAL CALCULATION
------------------------------------------------------------------------------

                         BASIS SET STATISTICS AND STARTUP INFO

 # of primitive gaussian shells          ...  992
 # of primitive gaussian functions       ... 1900
 # of contracted shells                  ...  508
 # of contracted basis functions         ... 1128
 Highest angular momentum                ...    2
 Maximum contraction depth               ...    5
 Integral package used                   ... LIBINT
 Integral threshhold            Thresh   ...  2.500e-11
 Primitive cut-off              TCut     ...  2.500e-12


------------------------------ INTEGRAL EVALUATION ----------------------------


 * One electron integrals 
 Pre-screening matrix                    ... done
 Shell pair data                         ... done (   0.016 sec)

-------------------------------------------------------------------------------
                                 ORCA SCF
-------------------------------------------------------------------------------

------------
SCF SETTINGS
------------
Hamiltonian:
 Ab initio Hamiltonian  Method          .... Hartree-Fock(GTOs)


General Settings:
 Integral files         IntName         .... M8
 Hartree-Fock type      HFTyp           .... RHF
 Total Charge           Charge          ....    0
 Multiplicity           Mult            ....    1
 Number of Electrons    NEL             ....  498
 Basis Dimension        Dim             .... 1128
 Nuclear Repulsion      ENuc            ....   9788.0410811109 Eh

Convergence Acceleration:
 DIIS                   CNVDIIS         .... on
   Start iteration      DIISMaxIt       ....    12
   Startup error        DIISStart       ....  0.200000
   # of expansion vecs  DIISMaxEq       ....     5
   Bias factor          DIISBfac        ....   1.050
   Max. coefficient     DIISMaxC        ....  10.000
 Newton-Raphson         CNVNR           .... off
 SOSCF                  CNVSOSCF        .... on
   Start iteration      SOSCFMaxIt      ....   150
   Startup grad/error   SOSCFStart      ....  0.003300
 Level Shifting         CNVShift        .... on
   Level shift para.    LevelShift      ....    0.2500
   Turn off err/grad.   ShiftErr        ....    0.0010
 Zerner damping         CNVZerner       .... off
 Static damping         CNVDamp         .... on
   Fraction old density DampFac         ....    0.7000
   Max. Damping (<1)    DampMax         ....    0.9800
   Min. Damping (>=0)   DampMin         ....    0.0000
   Turn off err/grad.   DampErr         ....    0.1000
 Fernandez-Rico         CNVRico         .... off

SCF Procedure:
 Maximum # iterations   MaxIter         ....   125
 SCF integral mode      SCFMode         .... Direct
   Integral package                     .... LIBINT
 Reset frequency        DirectResetFreq ....    20
 Integral Threshold     Thresh          ....  2.500e-11 Eh
 Primitive CutOff       TCut            ....  2.500e-12 Eh

Convergence Tolerance:
 Convergence Check Mode ConvCheckMode   .... Total+1el-Energy
 Convergence forced     ConvForced      .... 1
 Energy Change          TolE            ....  1.000e-08 Eh
 1-El. energy change                    ....  1.000e-05 Eh
 Orbital Gradient       TolG            ....  1.000e-05
 Orbital Rotation angle TolX            ....  1.000e-05
 DIIS Error             TolErr          ....  5.000e-07


Diagonalization of the overlap matrix:
Smallest eigenvalue                        ... 9.940e-05
Time for diagonalization                   ...    0.512 sec
Threshold for overlap eigenvalues          ... 1.000e-08
Number of eigenvalues below threshold      ... 0
Time for construction of square roots      ...    0.122 sec
Total time needed                          ...    0.638 sec

-------------------
DFT GRID GENERATION
-------------------

General Integration Accuracy     IntAcc      ...  4.340
Radial Grid Type                 RadialGrid  ... Gauss-Chebyshev
Angular Grid (max. acc.)         AngularGrid ... Lebedev-110
Angular grid pruning method      GridPruning ... 3 (G Style)
Weight generation scheme         WeightScheme... Becke
Basis function cutoff            BFCut       ...    1.0000e-11
Integration weight cutoff        WCut        ...    1.0000e-14
Grids for H and He will be reduced by one unit

# of grid points (after initial pruning)     ... 139424 (   0.2 sec)
# of grid points (after weights+screening)   ... 122462 (   3.9 sec)
nearest neighbour list constructed           ...    0.0 sec
Grid point re-assignment to atoms done       ...    0.0 sec
Grid point division into batches done        ...    0.1 sec
Reduced shell lists constructed in    2.2 sec

Total number of grid points                  ...   122462
Total number of batches                      ...     1964
Average number of points per batch           ...       62
Average number of grid points per atom       ...     1250
Average number of shells per batch           ...   105.65 (20.80%)
Average number of basis functions per batch  ...   219.44 (19.45%)
Average number of large shells per batch     ...    63.79 (60.38%)
Average number of large basis fcns per batch ...   134.63 (61.35%)
Maximum spatial batch extension              ...  27.31, 24.20, 19.90 au
Average spatial batch extension              ...   3.31,  3.54,  3.29 au

Time for grid setup =    6.290 sec

------------------------------
INITIAL GUESS: MODEL POTENTIAL
------------------------------
Loading Hartree-Fock densities                     ... done
Calculating cut-offs                               ... done
Setting up the integral package                    ... done
Initializing the effective Hamiltonian             ... done
Starting the Coulomb interaction                   ... done (   7.8 sec)
Reading the grid                                   ... done
Mapping shells                                     ... done
Starting the XC term evaluation                    ... done (   2.0 sec)
Transforming the Hamiltonian                       ... done (   0.1 sec)
Diagonalizing the Hamiltonian                      ... done (   0.3 sec)
Back transforming the eigenvectors                 ... done (   0.0 sec)
Now organizing SCF variables                       ... done
                      ------------------
                      INITIAL GUESS DONE (  16.7 sec)
                      ------------------
--------------
SCF ITERATIONS
--------------
ITER       Energy         Delta-E        Max-DP      RMS-DP      [F,P]     Damp
               ***  Starting incremental Fock matrix formation  ***
  0  -3949.2888709667   0.000000000000 0.09702754  0.00133167  0.2405441 0.7000
  1  -3949.9359160636  -0.647045096915 0.07075085  0.00102573  0.1462116 0.7000
                               ***Turning on DIIS***
  2  -3950.3330085889  -0.397092525342 0.17133741  0.00239393  0.0820177 0.0000
  3  -3948.3977990712   1.935209517753 0.05484262  0.00049486  0.0507017 0.0000
  4  -3951.5790799799  -3.181280908764 0.01281879  0.00019977  0.0192894 0.0000
  5  -3951.3710779127   0.208002067184 0.00636162  0.00009748  0.0078679 0.0000
  6  -3951.1386274660   0.232450446791 0.00499241  0.00006194  0.0024989 0.0000
  7  -3951.2261081336  -0.087480667638 0.00319120  0.00003816  0.0018813 0.0000
                      *** Initiating the SOSCF procedure ***
                           *** Shutting down DIIS ***
                      *** Re-Reading the Fockian *** 
                      *** Removing any level shift *** 
ITER      Energy       Delta-E        Grad      Rot      Max-DP    RMS-DP
  8  -3951.19556266   0.0305454703  0.002717  0.002717  0.002469  0.000028
               *** Restarting incremental Fock matrix formation ***
  9  -3951.21347007  -0.0179074046  0.001362  0.005634  0.001600  0.000016
 10  -3951.21354145  -0.0000713805  0.000468  0.005570  0.002079  0.000022
 11  -3951.21356990  -0.0000284483  0.000220  0.000662  0.000430  0.000005
 12  -3951.21357424  -0.0000043427  0.000104  0.000492  0.000172  0.000002
 13  -3951.21357501  -0.0000007658  0.000022  0.000069  0.000084  0.000001
 14  -3951.21357513  -0.0000001267  0.000014  0.000056  0.000047  0.000000
 15  -3951.21357516  -0.0000000277  0.000005  0.000028  0.000016  0.000000
                  ***Gradient check signals convergence***
              ***Rediagonalizing the Fockian in SOSCF/NRSCF***

               *****************************************************
               *                     SUCCESS                       *
               *           SCF CONVERGED AFTER  16 CYCLES          *
               *****************************************************


----------------
TOTAL SCF ENERGY
----------------

Total Energy       :        -3951.21357515 Eh         -107517.98749 eV

Components:
Nuclear Repulsion  :         9788.04108111 Eh          266346.13859 eV
Electronic Energy  :       -13739.25465626 Eh         -373864.12608 eV
One Electron Energy:       -24907.43946263 Eh         -677765.88473 eV
Two Electron Energy:        11168.18480637 Eh          303901.75865 eV

Virial components:
Potential Energy   :        -7888.32700610 Eh         -214652.29055 eV
Kinetic Energy     :         3937.11343095 Eh          107134.30306 eV
Virial Ratio       :            2.00358134


---------------
SCF CONVERGENCE
---------------

  Last Energy change         ...    1.1494e-08  Tolerance :   1.0000e-08
  Last MAX-Density change    ...    9.3158e-06  Tolerance :   1.0000e-07
  Last RMS-Density change    ...    1.0898e-07  Tolerance :   5.0000e-09
  Last Orbital Gradient      ...    1.6191e-06  Tolerance :   1.0000e-05
  Last Orbital Rotation      ...    1.7535e-05  Tolerance :   1.0000e-05

             **** THE GBW FILE WAS UPDATED (M8.gbw) ****
             **** DENSITY FILE WAS UPDATED (M8.scfp) ****
             **** ENERGY FILE WAS UPDATED (M8.en.tmp) ****
             **** THE GBW FILE WAS UPDATED (M8.gbw) ****
             **** DENSITY FILE WAS UPDATED (M8.scfp) ****
----------------
ORBITAL ENERGIES
----------------

  NO   OCC          E(Eh)            E(eV) 
   0   2.0000     -91.982503     -2502.9712 
   1   2.0000     -91.981193     -2502.9355 
   2   2.0000     -26.339974      -716.7471 
   3   2.0000     -26.337443      -716.6783 
   4   2.0000     -26.336598      -716.6553 
   5   2.0000     -26.334880      -716.6085 
   6   2.0000     -20.652001      -561.9695 
   7   2.0000     -20.645354      -561.7886 
   8   2.0000     -20.609939      -560.8249 
   9   2.0000     -20.601853      -560.6049 
  10   2.0000     -20.576785      -559.9228 
  11   2.0000     -20.566209      -559.6350 
  12   2.0000     -15.654017      -425.9675 
  13   2.0000     -15.649743      -425.8512 
  14   2.0000     -15.599033      -424.4713 
  15   2.0000     -15.597884      -424.4400 
  16   2.0000     -15.596887      -424.4129 
  17   2.0000     -15.596532      -424.4032 
  18   2.0000     -11.382109      -309.7229 
  19   2.0000     -11.380143      -309.6694 
  20   2.0000     -11.378599      -309.6274 
  21   2.0000     -11.377496      -309.5974 
  22   2.0000     -11.377169      -309.5885 
  23   2.0000     -11.366451      -309.2968 
  24   2.0000     -11.352505      -308.9174 
  25   2.0000     -11.351816      -308.8986 
  26   2.0000     -11.347906      -308.7922 
  27   2.0000     -11.345484      -308.7263 
  28   2.0000     -11.343644      -308.6763 
  29   2.0000     -11.342807      -308.6535 
  30   2.0000     -11.330896      -308.3293 
  31   2.0000     -11.330850      -308.3281 
  32   2.0000     -11.329732      -308.2977 
  33   2.0000     -11.328863      -308.2740 
  34   2.0000     -11.328300      -308.2587 
  35   2.0000     -11.325952      -308.1948 
  36   2.0000     -11.322781      -308.1085 
  37   2.0000     -11.319130      -308.0092 
  38   2.0000     -11.318257      -307.9854 
  39   2.0000     -11.317645      -307.9688 
  40   2.0000     -11.316139      -307.9278 
  41   2.0000     -11.310899      -307.7852 
  42   2.0000     -11.310692      -307.7796 
  43   2.0000     -11.310620      -307.7776 
  44   2.0000     -11.310520      -307.7749 
  45   2.0000     -11.310155      -307.7650 
  46   2.0000     -11.309367      -307.7435 
  47   2.0000     -11.309162      -307.7379 
  48   2.0000     -11.308727      -307.7261 
  49   2.0000     -11.308349      -307.7158 
  50   2.0000     -11.307547      -307.6940 
  51   2.0000     -11.306231      -307.6582 
  52   2.0000     -11.304622      -307.6144 
  53   2.0000     -11.304399      -307.6083 
  54   2.0000     -11.303269      -307.5776 
  55   2.0000     -11.302615      -307.5598 
  56   2.0000     -11.301627      -307.5329 
  57   2.0000     -11.301563      -307.5312 
  58   2.0000     -11.299954      -307.4874 
  59   2.0000     -11.298262      -307.4413 
  60   2.0000     -11.297530      -307.4214 
  61   2.0000     -11.295373      -307.3627 
  62   2.0000     -11.294784      -307.3467 
  63   2.0000     -11.290994      -307.2436 
  64   2.0000     -11.284449      -307.0655 
  65   2.0000     -11.278775      -306.9111 
  66   2.0000     -11.258573      -306.3614 
  67   2.0000     -11.255288      -306.2720 
  68   2.0000     -11.252187      -306.1876 
  69   2.0000     -11.246874      -306.0430 
  70   2.0000      -9.017122      -245.3684 
  71   2.0000      -9.015052      -245.3120 
  72   2.0000      -6.704673      -182.4434 
  73   2.0000      -6.703583      -182.4138 
  74   2.0000      -6.702596      -182.3869 
  75   2.0000      -6.701627      -182.3605 
  76   2.0000      -6.701502      -182.3571 
  77   2.0000      -6.699463      -182.3017 
  78   2.0000      -1.652800       -44.9750 
  79   2.0000      -1.649198       -44.8770 
  80   2.0000      -1.636644       -44.5353 
  81   2.0000      -1.633093       -44.4387 
  82   2.0000      -1.484669       -40.3999 
  83   2.0000      -1.471968       -40.0543 
  84   2.0000      -1.424902       -38.7736 
  85   2.0000      -1.416462       -38.5439 
  86   2.0000      -1.403379       -38.1879 
  87   2.0000      -1.395669       -37.9781 
  88   2.0000      -1.337091       -36.3841 
  89   2.0000      -1.335953       -36.3531 
  90   2.0000      -1.247956       -33.9586 
  91   2.0000      -1.245824       -33.9006 
  92   2.0000      -1.227825       -33.4108 
  93   2.0000      -1.223990       -33.3065 
  94   2.0000      -1.222928       -33.2776 
  95   2.0000      -1.222520       -33.2665 
  96   2.0000      -1.199461       -32.6390 
  97   2.0000      -1.194996       -32.5175 
  98   2.0000      -1.180368       -32.1195 
  99   2.0000      -1.167649       -31.7734 
 100   2.0000      -1.163257       -31.6538 
 101   2.0000      -1.129930       -30.7469 
 102   2.0000      -1.122890       -30.5554 
 103   2.0000      -1.106337       -30.1050 
 104   2.0000      -1.098995       -29.9052 
 105   2.0000      -1.093800       -29.7638 
 106   2.0000      -1.080126       -29.3917 
 107   2.0000      -1.070719       -29.1357 
 108   2.0000      -1.067496       -29.0480 
 109   2.0000      -1.066199       -29.0127 
 110   2.0000      -1.061118       -28.8745 
 111   2.0000      -1.044347       -28.4181 
 112   2.0000      -1.043046       -28.3827 
 113   2.0000      -1.038557       -28.2606 
 114   2.0000      -1.018287       -27.7090 
 115   2.0000      -1.013310       -27.5736 
 116   2.0000      -1.004734       -27.3402 
 117   2.0000      -1.003220       -27.2990 
 118   2.0000      -0.983475       -26.7617 
 119   2.0000      -0.967110       -26.3164 
 120   2.0000      -0.943480       -25.6734 
 121   2.0000      -0.940610       -25.5953 
 122   2.0000      -0.934075       -25.4175 
 123   2.0000      -0.913947       -24.8698 
 124   2.0000      -0.908870       -24.7316 
 125   2.0000      -0.897522       -24.4228 
 126   2.0000      -0.892879       -24.2965 
 127   2.0000      -0.884500       -24.0685 
 128   2.0000      -0.871416       -23.7124 
 129   2.0000      -0.866530       -23.5795 
 130   2.0000      -0.861566       -23.4444 
 131   2.0000      -0.858892       -23.3716 
 132   2.0000      -0.852538       -23.1987 
 133   2.0000      -0.836124       -22.7521 
 134   2.0000      -0.833735       -22.6871 
 135   2.0000      -0.827480       -22.5169 
 136   2.0000      -0.813569       -22.1383 
 137   2.0000      -0.805577       -21.9209 
 138   2.0000      -0.801492       -21.8097 
 139   2.0000      -0.790526       -21.5113 
 140   2.0000      -0.788082       -21.4448 
 141   2.0000      -0.786459       -21.4006 
 142   2.0000      -0.783748       -21.3269 
 143   2.0000      -0.779034       -21.1986 
 144   2.0000      -0.767605       -20.8876 
 145   2.0000      -0.759283       -20.6611 
 146   2.0000      -0.753520       -20.5043 
 147   2.0000      -0.748746       -20.3744 
 148   2.0000      -0.747257       -20.3339 
 149   2.0000      -0.743977       -20.2446 
 150   2.0000      -0.741519       -20.1778 
 151   2.0000      -0.739401       -20.1201 
 152   2.0000      -0.731539       -19.9062 
 153   2.0000      -0.727967       -19.8090 
 154   2.0000      -0.723773       -19.6949 
 155   2.0000      -0.722272       -19.6540 
 156   2.0000      -0.718767       -19.5586 
 157   2.0000      -0.717701       -19.5296 
 158   2.0000      -0.715626       -19.4732 
 159   2.0000      -0.712045       -19.3757 
 160   2.0000      -0.707863       -19.2619 
 161   2.0000      -0.698770       -19.0145 
 162   2.0000      -0.696710       -18.9584 
 163   2.0000      -0.693832       -18.8801 
 164   2.0000      -0.685506       -18.6536 
 165   2.0000      -0.682411       -18.5694 
 166   2.0000      -0.678527       -18.4637 
 167   2.0000      -0.675693       -18.3865 
 168   2.0000      -0.673052       -18.3147 
 169   2.0000      -0.671532       -18.2733 
 170   2.0000      -0.668541       -18.1919 
 171   2.0000      -0.666756       -18.1434 
 172   2.0000      -0.664293       -18.0763 
 173   2.0000      -0.661395       -17.9975 
 174   2.0000      -0.654329       -17.8052 
 175   2.0000      -0.651638       -17.7320 
 176   2.0000      -0.641602       -17.4589 
 177   2.0000      -0.640966       -17.4416 
 178   2.0000      -0.637487       -17.3469 
 179   2.0000      -0.635257       -17.2862 
 180   2.0000      -0.630413       -17.1544 
 181   2.0000      -0.628004       -17.0889 
 182   2.0000      -0.624088       -16.9823 
 183   2.0000      -0.623230       -16.9590 
 184   2.0000      -0.621779       -16.9195 
 185   2.0000      -0.620683       -16.8896 
 186   2.0000      -0.619655       -16.8617 
 187   2.0000      -0.615839       -16.7578 
 188   2.0000      -0.614063       -16.7095 
 189   2.0000      -0.605997       -16.4900 
 190   2.0000      -0.600770       -16.3478 
 191   2.0000      -0.594534       -16.1781 
 192   2.0000      -0.583570       -15.8797 
 193   2.0000      -0.582722       -15.8567 
 194   2.0000      -0.580943       -15.8083 
 195   2.0000      -0.579753       -15.7759 
 196   2.0000      -0.576111       -15.6768 
 197   2.0000      -0.575175       -15.6513 
 198   2.0000      -0.575021       -15.6471 
 199   2.0000      -0.574369       -15.6294 
 200   2.0000      -0.572093       -15.5674 
 201   2.0000      -0.571742       -15.5579 
 202   2.0000      -0.569582       -15.4991 
 203   2.0000      -0.566691       -15.4205 
 204   2.0000      -0.565147       -15.3784 
 205   2.0000      -0.560070       -15.2403 
 206   2.0000      -0.558346       -15.1934 
 207   2.0000      -0.556473       -15.1424 
 208   2.0000      -0.554468       -15.0878 
 209   2.0000      -0.553807       -15.0699 
 210   2.0000      -0.548132       -14.9154 
 211   2.0000      -0.547151       -14.8887 
 212   2.0000      -0.540445       -14.7063 
 213   2.0000      -0.537572       -14.6281 
 214   2.0000      -0.532438       -14.4884 
 215   2.0000      -0.529755       -14.4154 
 216   2.0000      -0.524652       -14.2765 
 217   2.0000      -0.522016       -14.2048 
 218   2.0000      -0.520083       -14.1522 
 219   2.0000      -0.514292       -13.9946 
 220   2.0000      -0.506789       -13.7904 
 221   2.0000      -0.503917       -13.7123 
 222   2.0000      -0.501078       -13.6350 
 223   2.0000      -0.499181       -13.5834 
 224   2.0000      -0.498237       -13.5577 
 225   2.0000      -0.497508       -13.5379 
 226   2.0000      -0.495784       -13.4910 
 227   2.0000      -0.485068       -13.1994 
 228   2.0000      -0.481248       -13.0954 
 229   2.0000      -0.479675       -13.0526 
 230   2.0000      -0.478485       -13.0202 
 231   2.0000      -0.471923       -12.8417 
 232   2.0000      -0.466398       -12.6913 
 233   2.0000      -0.454710       -12.3733 
 234   2.0000      -0.448188       -12.1958 
 235   2.0000      -0.430609       -11.7175 
 236   2.0000      -0.424668       -11.5558 
 237   2.0000      -0.419856       -11.4249 
 238   2.0000      -0.397117       -10.8061 
 239   2.0000      -0.391305       -10.6480 
 240   2.0000      -0.385474       -10.4893 
 241   2.0000      -0.369271       -10.0484 
 242   2.0000      -0.358885        -9.7658 
 243   2.0000      -0.356760        -9.7079 
 244   2.0000      -0.352931        -9.6037 
 245   2.0000      -0.342596        -9.3225 
 246   2.0000      -0.325859        -8.8671 
 247   2.0000      -0.302997        -8.2450 
 248   2.0000      -0.262219        -7.1354 
 249   0.0000      -0.036974        -1.0061 
 250   0.0000      -0.019763        -0.5378 
 251   0.0000       0.009104         0.2477 
 252   0.0000       0.016670         0.4536 
 253   0.0000       0.052837         1.4378 
 254   0.0000       0.072489         1.9725 
 255   0.0000       0.094704         2.5770 
 256   0.0000       0.119897         3.2626 
 257   0.0000       0.125740         3.4216 
 258   0.0000       0.137255         3.7349 
 259   0.0000       0.137547         3.7429 
 260   0.0000       0.139636         3.7997 
 261   0.0000       0.143345         3.9006 
 262   0.0000       0.150097         4.0844 
 263   0.0000       0.155485         4.2309 
 264   0.0000       0.157238         4.2787 
 265   0.0000       0.158842         4.3223 
 266   0.0000       0.168901         4.5960 
 267   0.0000       0.173227         4.7138 
 268   0.0000       0.173580         4.7234 
 269   0.0000       0.187299         5.0967 
 270   0.0000       0.191855         5.2206 
 271   0.0000       0.195475         5.3192 
 272   0.0000       0.195614         5.3229 
 273   0.0000       0.198444         5.3999 
 274   0.0000       0.199016         5.4155 
 275   0.0000       0.199843         5.4380 
 276   0.0000       0.204024         5.5518 
 277   0.0000       0.204732         5.5711 
 278   0.0000       0.206432         5.6173 
 279   0.0000       0.209585         5.7031 
 280   0.0000       0.212178         5.7736 
 281   0.0000       0.216368         5.8877 
 282   0.0000       0.219195         5.9646 
 283   0.0000       0.219857         5.9826 
 284   0.0000       0.223577         6.0838 
 285   0.0000       0.225489         6.1359 
 286   0.0000       0.228521         6.2184 
 287   0.0000       0.231752         6.3063 
 288   0.0000       0.237789         6.4706 
 289   0.0000       0.239667         6.5217 
 290   0.0000       0.241699         6.5770 
 291   0.0000       0.242669         6.6034 
 292   0.0000       0.244478         6.6526 
 293   0.0000       0.246154         6.6982 
 294   0.0000       0.247768         6.7421 
 295   0.0000       0.250332         6.8119 
 296   0.0000       0.253887         6.9086 
 297   0.0000       0.256815         6.9883 
 298   0.0000       0.257392         7.0040 
 299   0.0000       0.262798         7.1511 
 300   0.0000       0.264207         7.1894 
 301   0.0000       0.269852         7.3431 
 302   0.0000       0.272355         7.4112 
 303   0.0000       0.273689         7.4475 
 304   0.0000       0.277290         7.5455 
 305   0.0000       0.278493         7.5782 
 306   0.0000       0.287881         7.8336 
 307   0.0000       0.289632         7.8813 
 308   0.0000       0.293983         7.9997 
 309   0.0000       0.297626         8.0988 
 310   0.0000       0.307419         8.3653 
 311   0.0000       0.309932         8.4337 
 312   0.0000       0.312162         8.4944 
 313   0.0000       0.321155         8.7391 
 314   0.0000       0.328113         8.9284 
 315   0.0000       0.329392         8.9632 
 316   0.0000       0.329608         8.9691 
 317   0.0000       0.332980         9.0609 
 318   0.0000       0.334880         9.1125 
 319   0.0000       0.337462         9.1828 
 320   0.0000       0.338639         9.2148 
 321   0.0000       0.341249         9.2859 
 322   0.0000       0.341303         9.2873 
 323   0.0000       0.344782         9.3820 
 324   0.0000       0.350505         9.5377 
 325   0.0000       0.353265         9.6128 
 326   0.0000       0.356802         9.7091 
 327   0.0000       0.358031         9.7425 
 328   0.0000       0.361724         9.8430 
 329   0.0000       0.365040         9.9332 
 330   0.0000       0.367760        10.0072 
 331   0.0000       0.376903        10.2560 
 332   0.0000       0.379640        10.3305 
 333   0.0000       0.380924        10.3655 
 334   0.0000       0.382590        10.4108 
 335   0.0000       0.387752        10.5513 
 336   0.0000       0.389684        10.6038 
 337   0.0000       0.391777        10.6608 
 338   0.0000       0.395938        10.7740 
 339   0.0000       0.402948        10.9648 
 340   0.0000       0.407909        11.0998 
 341   0.0000       0.410966        11.1830 
 342   0.0000       0.415001        11.2927 
 343   0.0000       0.417938        11.3727 
 344   0.0000       0.420351        11.4383 
 345   0.0000       0.424991        11.5646 
 346   0.0000       0.427544        11.6341 
 347   0.0000       0.427991        11.6462 
 348   0.0000       0.434973        11.8362 
 349   0.0000       0.436549        11.8791 
 350   0.0000       0.438617        11.9354 
 351   0.0000       0.443724        12.0743 
 352   0.0000       0.445902        12.1336 
 353   0.0000       0.448473        12.2036 
 354   0.0000       0.451206        12.2779 
 355   0.0000       0.455965        12.4074 
 356   0.0000       0.458949        12.4886 
 357   0.0000       0.461115        12.5476 
 358   0.0000       0.464062        12.6278 
 359   0.0000       0.465316        12.6619 
 360   0.0000       0.468855        12.7582 
 361   0.0000       0.471204        12.8221 
 362   0.0000       0.480496        13.0750 
 363   0.0000       0.483239        13.1496 
 364   0.0000       0.485198        13.2029 
 365   0.0000       0.487116        13.2551 
 366   0.0000       0.488499        13.2927 
 367   0.0000       0.492919        13.4130 
 368   0.0000       0.496646        13.5144 
 369   0.0000       0.505479        13.7548 
 370   0.0000       0.507534        13.8107 
 371   0.0000       0.514462        13.9992 
 372   0.0000       0.518509        14.1093 
 373   0.0000       0.529773        14.4159 
 374   0.0000       0.531219        14.4552 
 375   0.0000       0.533284        14.5114 
 376   0.0000       0.538897        14.6641 
 377   0.0000       0.544654        14.8208 
 378   0.0000       0.546529        14.8718 
 379   0.0000       0.546875        14.8812 
 380   0.0000       0.550045        14.9675 
 381   0.0000       0.556878        15.1534 
 382   0.0000       0.563238        15.3265 
 383   0.0000       0.566060        15.4033 
 384   0.0000       0.573102        15.5949 
 385   0.0000       0.576992        15.7008 
 386   0.0000       0.583412        15.8754 
 387   0.0000       0.587243        15.9797 
 388   0.0000       0.588379        16.0106 
 389   0.0000       0.589166        16.0320 
 390   0.0000       0.593648        16.1540 
 391   0.0000       0.594580        16.1793 
 392   0.0000       0.597765        16.2660 
 393   0.0000       0.601164        16.3585 
 394   0.0000       0.604857        16.4590 
 395   0.0000       0.606932        16.5155 
 396   0.0000       0.609737        16.5918 
 397   0.0000       0.613683        16.6992 
 398   0.0000       0.619326        16.8527 
 399   0.0000       0.621664        16.9163 
 400   0.0000       0.623103        16.9555 
 401   0.0000       0.626573        17.0499 
 402   0.0000       0.628722        17.1084 
 403   0.0000       0.629444        17.1280 
 404   0.0000       0.632473        17.2105 
 405   0.0000       0.634634        17.2693 
 406   0.0000       0.641424        17.4540 
 407   0.0000       0.643547        17.5118 
 408   0.0000       0.646359        17.5883 
 409   0.0000       0.649298        17.6683 
 410   0.0000       0.651964        17.7408 
 411   0.0000       0.657515        17.8919 
 412   0.0000       0.660952        17.9854 
 413   0.0000       0.661759        18.0074 
 414   0.0000       0.666105        18.1256 
 415   0.0000       0.673063        18.3150 
 416   0.0000       0.676850        18.4180 
 417   0.0000       0.680790        18.5252 
 418   0.0000       0.684875        18.6364 
 419   0.0000       0.685400        18.6507 
 420   0.0000       0.688814        18.7436 
 421   0.0000       0.690254        18.7828 
 422   0.0000       0.692113        18.8333 
 423   0.0000       0.695631        18.9291 
 424   0.0000       0.696888        18.9633 
 425   0.0000       0.697782        18.9876 
 426   0.0000       0.698130        18.9971 
 427   0.0000       0.702026        19.1031 
 428   0.0000       0.703275        19.1371 
 429   0.0000       0.708925        19.2908 
 430   0.0000       0.710365        19.3300 
 431   0.0000       0.712178        19.3793 
 432   0.0000       0.713850        19.4248 
 433   0.0000       0.717775        19.5317 
 434   0.0000       0.720803        19.6140 
 435   0.0000       0.723215        19.6797 
 436   0.0000       0.724487        19.7143 
 437   0.0000       0.727058        19.7842 
 438   0.0000       0.728950        19.8357 
 439   0.0000       0.730506        19.8781 
 440   0.0000       0.734786        19.9945 
 441   0.0000       0.738898        20.1064 
 442   0.0000       0.743050        20.2194 
 443   0.0000       0.744806        20.2672 
 444   0.0000       0.749446        20.3935 
 445   0.0000       0.750936        20.4340 
 446   0.0000       0.753168        20.4947 
 447   0.0000       0.754289        20.5252 
 448   0.0000       0.756467        20.5845 
 449   0.0000       0.760391        20.6913 
 450   0.0000       0.762853        20.7583 
 451   0.0000       0.763653        20.7801 
 452   0.0000       0.770976        20.9793 
 453   0.0000       0.776533        21.1305 
 454   0.0000       0.778082        21.1727 
 455   0.0000       0.780820        21.2472 
 456   0.0000       0.786001        21.3882 
 457   0.0000       0.788233        21.4489 
 458   0.0000       0.796631        21.6774 
 459   0.0000       0.798099        21.7174 
 460   0.0000       0.802885        21.8476 
 461   0.0000       0.806302        21.9406 
 462   0.0000       0.809196        22.0193 
 463   0.0000       0.814097        22.1527 
 464   0.0000       0.815042        22.1784 
 465   0.0000       0.817667        22.2498 
 466   0.0000       0.818913        22.2838 
 467   0.0000       0.821516        22.3546 
 468   0.0000       0.823489        22.4083 
 469   0.0000       0.825218        22.4553 
 470   0.0000       0.828221        22.5370 
 471   0.0000       0.830671        22.6037 
 472   0.0000       0.836757        22.7693 
 473   0.0000       0.837923        22.8010 
 474   0.0000       0.840132        22.8612 
 475   0.0000       0.843667        22.9573 
 476   0.0000       0.845206        22.9992 
 477   0.0000       0.845547        23.0085 
 478   0.0000       0.848456        23.0877 
 479   0.0000       0.849586        23.1184 
 480   0.0000       0.850506        23.1435 
 481   0.0000       0.854202        23.2440 
 482   0.0000       0.856643        23.3105 
 483   0.0000       0.857249        23.3269 
 484   0.0000       0.859137        23.3783 
 485   0.0000       0.860194        23.4071 
 486   0.0000       0.862450        23.4685 
 487   0.0000       0.863347        23.4929 
 488   0.0000       0.867279        23.5999 
 489   0.0000       0.869932        23.6721 
 490   0.0000       0.873288        23.7634 
 491   0.0000       0.874257        23.7897 
 492   0.0000       0.876239        23.8437 
 493   0.0000       0.877681        23.8829 
 494   0.0000       0.881079        23.9754 
 495   0.0000       0.883194        24.0329 
 496   0.0000       0.883377        24.0379 
 497   0.0000       0.888042        24.1649 
 498   0.0000       0.889028        24.1917 
 499   0.0000       0.890220        24.2241 
 500   0.0000       0.891895        24.2697 
 501   0.0000       0.893276        24.3073 
 502   0.0000       0.895121        24.3575 
 503   0.0000       0.896969        24.4078 
 504   0.0000       0.900253        24.4971 
 505   0.0000       0.900495        24.5037 
 506   0.0000       0.903587        24.5879 
 507   0.0000       0.905238        24.6328 
 508   0.0000       0.907185        24.6858 
 509   0.0000       0.908952        24.7338 
 510   0.0000       0.909476        24.7481 
 511   0.0000       0.912295        24.8248 
 512   0.0000       0.915040        24.8995 
 513   0.0000       0.918459        24.9925 
 514   0.0000       0.920452        25.0468 
 515   0.0000       0.921487        25.0749 
 516   0.0000       0.925057        25.1721 
 517   0.0000       0.925392        25.1812 
 518   0.0000       0.927699        25.2440 
 519   0.0000       0.929940        25.3049 
 520   0.0000       0.930245        25.3133 
 521   0.0000       0.933101        25.3910 
 522   0.0000       0.934713        25.4348 
 523   0.0000       0.937228        25.5033 
 524   0.0000       0.938004        25.5244 
 525   0.0000       0.942581        25.6489 
 526   0.0000       0.943002        25.6604 
 527   0.0000       0.946353        25.7516 
 528   0.0000       0.948110        25.7994 
 529   0.0000       0.949737        25.8436 
 530   0.0000       0.951384        25.8885 
 531   0.0000       0.954198        25.9650 
 532   0.0000       0.956002        26.0141 
 533   0.0000       0.957577        26.0570 
 534   0.0000       0.959288        26.1036 
 535   0.0000       0.960464        26.1356 
 536   0.0000       0.965137        26.2627 
 537   0.0000       0.968512        26.3545 
 538   0.0000       0.970444        26.4071 
 539   0.0000       0.971723        26.4419 
 540   0.0000       0.975388        26.5416 
 541   0.0000       0.978067        26.6145 
 542   0.0000       0.981635        26.7117 
 543   0.0000       0.984719        26.7956 
 544   0.0000       0.986463        26.8430 
 545   0.0000       0.991154        26.9707 
 546   0.0000       0.991574        26.9821 
 547   0.0000       0.994997        27.0752 
 548   0.0000       0.997132        27.1333 
 549   0.0000       0.998713        27.1764 
 550   0.0000       1.005505        27.3612 
 551   0.0000       1.006720        27.3942 
 552   0.0000       1.010579        27.4992 
 553   0.0000       1.011588        27.5267 
 554   0.0000       1.015706        27.6388 
 555   0.0000       1.019600        27.7447 
 556   0.0000       1.021675        27.8012 
 557   0.0000       1.025703        27.9108 
 558   0.0000       1.028367        27.9833 
 559   0.0000       1.031345        28.0643 
 560   0.0000       1.037088        28.2206 
 561   0.0000       1.039952        28.2985 
 562   0.0000       1.043413        28.3927 
 563   0.0000       1.045513        28.4499 
 564   0.0000       1.049674        28.5631 
 565   0.0000       1.056422        28.7467 
 566   0.0000       1.059550        28.8318 
 567   0.0000       1.067698        29.0535 
 568   0.0000       1.068382        29.0722 
 569   0.0000       1.075738        29.2723 
 570   0.0000       1.079863        29.3846 
 571   0.0000       1.080690        29.4071 
 572   0.0000       1.088221        29.6120 
 573   0.0000       1.092099        29.7175 
 574   0.0000       1.097701        29.8700 
 575   0.0000       1.101052        29.9611 
 576   0.0000       1.103790        30.0357 
 577   0.0000       1.107383        30.1334 
 578   0.0000       1.109336        30.1866 
 579   0.0000       1.112570        30.2746 
 580   0.0000       1.119491        30.4629 
 581   0.0000       1.122056        30.5327 
 582   0.0000       1.125285        30.6206 
 583   0.0000       1.130031        30.7497 
 584   0.0000       1.133112        30.8335 
 585   0.0000       1.133628        30.8476 
 586   0.0000       1.140023        31.0216 
 587   0.0000       1.144033        31.1307 
 588   0.0000       1.146948        31.2100 
 589   0.0000       1.151534        31.3348 
 590   0.0000       1.154218        31.4079 
 591   0.0000       1.155729        31.4490 
 592   0.0000       1.160968        31.5916 
 593   0.0000       1.168749        31.8033 
 594   0.0000       1.172046        31.8930 
 595   0.0000       1.177877        32.0517 
 596   0.0000       1.186818        32.2950 
 597   0.0000       1.194926        32.5156 
 598   0.0000       1.202577        32.7238 
 599   0.0000       1.206588        32.8329 
 600   0.0000       1.214534        33.0492 
 601   0.0000       1.222496        33.2658 
 602   0.0000       1.224573        33.3223 
 603   0.0000       1.225019        33.3345 
 604   0.0000       1.232300        33.5326 
 605   0.0000       1.233436        33.5635 
 606   0.0000       1.237558        33.6757 
 607   0.0000       1.239925        33.7401 
 608   0.0000       1.249600        34.0033 
 609   0.0000       1.253775        34.1170 
 610   0.0000       1.254622        34.1400 
 611   0.0000       1.263634        34.3852 
 612   0.0000       1.265209        34.4281 
 613   0.0000       1.273639        34.6575 
 614   0.0000       1.281115        34.8609 
 615   0.0000       1.281376        34.8680 
 616   0.0000       1.282778        34.9062 
 617   0.0000       1.290396        35.1135 
 618   0.0000       1.293441        35.1963 
 619   0.0000       1.297487        35.3064 
 620   0.0000       1.301655        35.4198 
 621   0.0000       1.310064        35.6486 
 622   0.0000       1.316507        35.8240 
 623   0.0000       1.319881        35.9158 
 624   0.0000       1.321940        35.9718 
 625   0.0000       1.327672        36.1278 
 626   0.0000       1.328356        36.1464 
 627   0.0000       1.332559        36.2608 
 628   0.0000       1.335974        36.3537 
 629   0.0000       1.339481        36.4491 
 630   0.0000       1.340426        36.4748 
 631   0.0000       1.346808        36.6485 
 632   0.0000       1.350059        36.7370 
 633   0.0000       1.352117        36.7930 
 634   0.0000       1.356206        36.9043 
 635   0.0000       1.362479        37.0749 
 636   0.0000       1.363252        37.0960 
 637   0.0000       1.366601        37.1871 
 638   0.0000       1.373375        37.3714 
[...]
   Maximum residual norm  :     0.000039802378

                       ****Iteration    6****
   Time for densities:     1.028
   Using LibInt in JK Direct
   Time for J+K (Direct):  1105.470
   Time for Sigma-Completion:     7.245
   Size of expansion space: 27
   Lowest Energy          :     0.096554775463
   Maximum Energy change  :     0.000120962815 (vector 2)
   Maximum residual norm  :     0.000013076135

                       ****Iteration    7****
   Time for densities:     1.047
   Using LibInt in JK Direct
   Time for J+K (Direct):  1143.751
   Time for Sigma-Completion:     7.137
   Size of expansion space: 30
   Lowest Energy          :     0.096554437267
   Maximum Energy change  :     0.000039427455 (vector 2)
   Maximum residual norm  :     0.000006450472
   Rebuilding the expansion space

                       ****Iteration    8****
   Time for densities:     2.061
   Using LibInt in JK Direct
   Time for J+K (Direct):  2231.593
   Time for Sigma-Completion:    14.606
   Size of expansion space: 6
   Lowest Energy          :     0.096554388851
   Maximum Energy change  :     0.000010515629 (vector 2)
   Maximum residual norm  :     0.000001815684

                       ****Iteration    9****
   Time for densities:     1.030
   Using LibInt in JK Direct
   Time for J+K (Direct):  1123.125
   Time for Sigma-Completion:     6.873
   Size of expansion space: 9
   Lowest Energy          :     0.096554372776
   Maximum Energy change  :     0.000007293613 (vector 2)
   Maximum residual norm  :     0.000001342157

                       ****Iteration   10****
   Time for densities:     1.033
   Using LibInt in JK Direct
   Time for J+K (Direct):  1124.148
   Time for Sigma-Completion:     6.591
   Size of expansion space: 12
   Lowest Energy          :     0.096554367653
   Maximum Energy change  :     0.000007222549 (vector 2)
   Maximum residual norm  :     0.000001989926

                       ****Iteration   11****
   Time for densities:     1.035
   Using LibInt in JK Direct
   Time for J+K (Direct):  1133.187
   Time for Sigma-Completion:     5.925
   Size of expansion space: 15
   Lowest Energy          :     0.096554366444
   Maximum Energy change  :     0.000006060020 (vector 2)
   Maximum residual norm  :     0.000001009560

                       ****Iteration   12****
   Time for densities:     1.006
   Using LibInt in JK Direct
   Time for J+K (Direct):  1113.565
   Time for Sigma-Completion:     6.455
   Size of expansion space: 18
   Lowest Energy          :     0.096554366192
   Maximum Energy change  :     0.000003102298 (vector 2)
   Maximum residual norm  :     0.000000471997

                       ****Iteration   13****
   Time for densities:     1.046
   Using LibInt in JK Direct
   Time for J+K (Direct):  1098.807
   Time for Sigma-Completion:     6.029
   Size of expansion space: 21
   Lowest Energy          :     0.096554366140
   Maximum Energy change  :     0.000001246990 (vector 2)
   Maximum residual norm  :     0.000000238007

      *** CONVERGENCE OF RESIDUAL NORM REACHED ***

Storing the converged CI vectors               ... M8.cis1

                 *** DAVIDSON DONE ***

Total time for solving the CIS problem: 18919.176sec

-----------------------------
CIS-EXCITED STATES (SINGLETS)
-----------------------------

the weight of the individual excitations are printed if larger than 1.0e-02

STATE  1:  E=   0.096554 au      2.627 eV    21191.2 cm**-1
   247a -> 250a  :     0.186536 (c=  0.43189782)
   248a -> 249a  :     0.655328 (c=  0.80952340)
   248a -> 250a  :     0.025698 (c= -0.16030483)
   248a -> 251a  :     0.010273 (c= -0.10135475)

STATE  2:  E=   0.118320 au      3.220 eV    25968.3 cm**-1
   241a -> 250a  :     0.019157 (c=  0.13840741)
   244a -> 250a  :     0.032295 (c= -0.17970683)
   246a -> 250a  :     0.012718 (c= -0.11277213)
   247a -> 249a  :     0.384962 (c= -0.62045267)
   248a -> 249a  :     0.012502 (c= -0.11181452)
   248a -> 250a  :     0.403892 (c= -0.63552487)
   248a -> 251a  :     0.011346 (c=  0.10651874)

STATE  3:  E=   0.158077 au      4.301 eV    34693.8 cm**-1
   240a -> 250a  :     0.013983 (c=  0.11824943)
   240a -> 252a  :     0.016780 (c=  0.12953763)
   241a -> 249a  :     0.020843 (c=  0.14437038)
   241a -> 251a  :     0.017516 (c=  0.13234693)
   241a -> 252a  :     0.022894 (c= -0.15130666)
   244a -> 249a  :     0.026856 (c= -0.16387649)
   244a -> 251a  :     0.010693 (c= -0.10340938)
   245a -> 249a  :     0.014112 (c=  0.11879571)
   246a -> 249a  :     0.017357 (c= -0.13174419)
   247a -> 249a  :     0.010222 (c= -0.10110209)
   247a -> 250a  :     0.096843 (c= -0.31119583)
   247a -> 252a  :     0.134175 (c= -0.36629963)
   248a -> 251a  :     0.236605 (c= -0.48642027)
   248a -> 252a  :     0.179221 (c=  0.42334508)
   248a -> 253a  :     0.019381 (c=  0.13921528)


----------------------
CIS-EXCITATION SPECTRA
----------------------

Center of mass = ( -0.5355, -1.6316,  0.1642)
Calculating the Dipole integrals                  ... done
Transforming integrals                            ... done
Calculating the Linear Momentum integrals         ... done
Transforming integrals                            ... done
Calculating angular momentum integrals            ... done
Transforming integrals                            ... done

-----------------------------------------------------------------------------
         ABSORPTION SPECTRUM VIA TRANSITION ELECTRIC DIPOLE MOMENTS
-----------------------------------------------------------------------------
State   Energy    Wavelength  fosc         T2        TX        TY        TZ  
        (cm-1)      (nm)                 (au**2)    (au)      (au)      (au) 
-----------------------------------------------------------------------------
   1   21191.2    471.9   3.117823344  48.43629   5.64070  -3.88411   1.23790
   2   25968.3    385.1   0.342060480   4.33645  -1.25212   0.63463  -1.53815
   3   34693.8    288.2   0.140156948   1.32996   0.73595  -0.72822   0.50797

-----------------------------------------------------------------------------
         ABSORPTION SPECTRUM VIA TRANSITION VELOCITY DIPOLE MOMENTS
-----------------------------------------------------------------------------
State   Energy    Wavelength   fosc        P2         PX        PY        PZ  
        (cm-1)      (nm)                 (au**2)     (au)      (au)      (au) 
-----------------------------------------------------------------------------
   1   21191.2    471.9   1.974709077   0.28600  -0.44059   0.30100  -0.03575
   2   25968.3    385.1   0.175459822   0.03114   0.13573  -0.07462   0.08456
   3   34693.8    288.2   0.039281358   0.00931  -0.06777   0.03480   0.05924

-------------------------------------------------------------------
                             CD SPECTRUM
-------------------------------------------------------------------
State  Energy     Wavelength     R         MX        MY        MZ   
       (cm-1)       (nm)     (1e40*cgs)   (au)      (au)      (au)  
-------------------------------------------------------------------
   1   21191.2    471.9    191.95146   0.73405   0.79338  -0.52656
   2   25968.3    385.1    -196.00410   0.23540   0.34003   0.21896
   3   34693.8    288.2    -15.19312   0.05885  -0.22074  -0.46516

Total run time:    18959.843 sec

           *** ORCA-CIS/TD-DFT FINISHED WITHOUT ERROR ***

-----------------------
CIS/TD-DFT TOTAL ENERGY
-----------------------

    E(SCF)  =  -3951.213575148 Eh
    DE(CIS) =      0.096554366 Eh (Root  1)
    ----------------------------- ---------
    E(tot)  =  -3951.117020782 Eh


-------------------------   --------------------
FINAL SINGLE POINT ENERGY     -3951.117020781854
-------------------------   --------------------

------------------------------------------------------------------------------
                         ORCA SCF GRADIENT CALCULATION
------------------------------------------------------------------------------


------------
CIS GRADIENT
------------

Reference wavefunction             ... RHF
State of interest                  ... 1
Basis dimension                    ... 1128
DFT-XC contribution needed         ... NO
RI-approximation                   ... OFF
CIS-vectors being read from        ... M8.cis

 => Number of Vectors found: 3
 => Orbital Window: 78...248 -> 249...1127

Reading the CIS file                     ... done
Norm of the CI vector                    ... 1.000000000
Making the CIS (pseudo)densities         ... done
Making operators G(D) and Q(T)           ... done
Transforming the Fock operators          ... done
Making the frozen-core relaxed density   ... done
Constructing the G(H) operator           ... done
Transforming the G(H) operator           ... done
Calculating the CIS Lagrangian           ... done
Solving the Z-vector equations           ... done
Finalizing the relaxed density           ... done
Storing the relaxed density              ... done
Constructing the G(Z) operator           ... done
Transforming the G(Z) operator           ... done
Making the W-matrix                      ... done
Finalizing the W-matrix                  ... done
Transforming the W-matrix                ... done
Nuclear repulsion gradient               ... done
One-Electron gradient                    ... done
Prescreening matrices                    ... done
Two-Electron gradient (4-center)         ... done
                 ---------------------------
                 EXCITED STATE GRADIENT DONE
                 ---------------------------


------------------
CARTESIAN GRADIENT
------------------

   1   C   :   -0.005166593    0.003169348    0.007960504
   2   C   :    0.005789905   -0.002862924    0.008924284
   3   C   :   -0.012149102    0.011303261   -0.009891013
   4   C   :    0.007616831   -0.001929852   -0.007930251
   5   C   :   -0.007660590    0.006205361   -0.008796474
   6   C   :    0.010917611   -0.009032176    0.009521718
   7   O   :    0.018348838   -0.001549132   -0.007867003
   8   C   :   -0.006006855   -0.004838378    0.004040793
   9   O   :   -0.011099271   -0.009242853    0.013516744
  10   C   :    0.006804219    0.001786496   -0.000170946
  11   O   :   -0.004498768    0.003997123    0.021299123
  12   C   :   -0.000890108    0.004887785   -0.003774543
  13   C   :   -0.001916855    0.002975932   -0.000714824
  14   O   :    0.005919710   -0.003304808   -0.022635041
  15   C   :   -0.002899637    0.001901474   -0.002958623
  16   C   :    0.004580142   -0.001626761    0.009749140
  17   C   :   -0.005436688    0.002612349   -0.016179472
  18   C   :   -0.011167449    0.004864989    0.007958586
  19   N   :   -0.003220063    0.002669718    0.008600730
  20   S   :    0.002602146   -0.000332362   -0.005336526
  21   C   :   -0.008980580    0.004043078   -0.000573620
  22   C   :    0.001881616   -0.001772385    0.001434871
  23   C   :    0.011351220   -0.011498615    0.014529302
  24   C   :    0.001335196   -0.002610193   -0.004564157
  25   N   :    0.003752393   -0.003192062   -0.009101768
  26   S   :   -0.002833784    0.001320874    0.001044284
  27   C   :    0.002031610    0.002911080   -0.005655391
  28   C   :    0.008971734   -0.001549011    0.006235146
  29   C   :    0.003430787   -0.002713288    0.004458900
  30   C   :   -0.001266939    0.002790937   -0.003223087
  31   C   :    0.006686632   -0.004284327   -0.008984819
  32   C   :   -0.003213465    0.009236216    0.004291042
  33   C   :   -0.016331523    0.018663199   -0.031676504
  34   C   :    0.007607680   -0.006109171    0.007345713
  35   C   :    0.010636091    0.003396016   -0.015230635
  36   C   :   -0.009656672   -0.006022446    0.016485980
  37   C   :    0.011289120    0.007226190   -0.036833539
  38   C   :   -0.004999550    0.001935489    0.010693802
  39   C   :   -0.003390770    0.016902612   -0.006374296
  40   C   :   -0.001497359   -0.013134588   -0.001277213
  41   C   :    0.003157193   -0.000710855    0.000718410
  42   C   :    0.006672455   -0.003222036    0.002793640
  43   C   :    0.005476560    0.001188551   -0.005547587
  44   C   :    0.003199463    0.000084013   -0.001912066
  45   C   :   -0.000725210    0.000814147    0.001786398
  46   C   :   -0.003293168    0.001734316    0.007810361
  47   C   :   -0.001505248    0.008315543   -0.002524585
  48   C   :   -0.001062351    0.003342788    0.000256716
  49   F   :   -0.017645468   -0.000463218    0.010661166
  50   F   :   -0.018121260    0.007540997   -0.004661444
  51   O   :    0.018878683   -0.022426440    0.040169268
  52   C   :    0.004354012    0.009311992   -0.019062191
  53   C   :   -0.066464819    0.001472933    0.037364980
  54   C   :    0.048686851   -0.041405226    0.042141040
  55   C   :   -0.000025274   -0.004895860   -0.004646002
  56   C   :    0.001305107    0.003774031   -0.001808857
  57   C   :   -0.003170866   -0.004396151    0.005104713
  58   C   :    0.001861836    0.003629459    0.002058668
  59   C   :    0.002908623    0.004276318   -0.002425013
  60   C   :   -0.004608493    0.001161294   -0.000809290
  61   O   :   -0.010313510   -0.013032735    0.046179522
  62   C   :    0.004894910    0.011226382   -0.007129240
  63   F   :    0.009610509   -0.011163453   -0.016309323
  64   F   :    0.005627733   -0.018718323   -0.001149592
  65   N   :   -0.045883750    0.038797157   -0.038822607
  66   N   :    0.062935340   -0.003195954   -0.033661904
  67   C   :    0.004047328   -0.071896497   -0.022484378
  68   C   :   -0.030017685    0.005292217    0.066216352
  69   N   :    0.028812197   -0.007137994   -0.062559936
  70   N   :   -0.009727788    0.065755523    0.021384213
  71   H   :    0.005362371   -0.003100629   -0.006454890
  72   H   :   -0.006343993    0.006832882   -0.003598438
  73   H   :   -0.005540591    0.001773759    0.006896359
  74   H   :   -0.002223567    0.006278099   -0.005813254
  75   H   :   -0.007611949    0.003047785    0.005034576
  76   H   :    0.003792262   -0.003912842   -0.006784488
  77   H   :    0.001539464    0.001784392   -0.010374299
  78   H   :   -0.001314430   -0.004681854    0.008640559
  79   H   :    0.001276621   -0.003570285    0.006904005
  80   H   :   -0.000316343    0.003933260   -0.008042851
  81   H   :   -0.001509106   -0.003990393    0.006924609
  82   H   :    0.001737213    0.005120995   -0.007623571
  83   H   :   -0.006048875    0.005349763    0.000942960
  84   H   :    0.007167601    0.002848451    0.005270789
  85   H   :   -0.004800169   -0.002324458   -0.004338477
  86   H   :   -0.003040512   -0.000503474    0.006411690
  87   H   :    0.006669327   -0.003862346   -0.000423717
  88   H   :    0.007987144    0.001467983   -0.001335975
  89   H   :   -0.005908206    0.007108692   -0.004074902
  90   H   :    0.003851577   -0.004993717    0.004134821
  91   H   :    0.002036604   -0.001129160   -0.006866116
  92   H   :   -0.007909390   -0.000594576    0.001128489
  93   H   :    0.004533706   -0.004768586    0.003712051
  94   H   :   -0.003958912   -0.003209480   -0.004980582
  95   H   :   -0.004402179    0.003029486    0.005680428
  96   H   :    0.001866025   -0.005479987    0.003929255
  97   H   :    0.002160438    0.006063736    0.003862295
  98   H   :    0.003813098   -0.000764607   -0.006233680

Difference to translation invariance:
           :    0.0000000001   -0.0000000000   -0.0000000002

Norm of the cartesian gradient     ...    0.2494881050
RMS gradient                       ...    0.0145504418
MAX gradient                       ...    0.0718964970

-------
TIMINGS
-------

Total CIS gradient time            ...    16534.470 sec

Fock matrix formation       ....    1259.756 sec  (  7.6%)
  Coulomb formation         ....    1259.756 sec  (100.0% of F)
Z-vector equation           ....   13752.404 sec  ( 83.2%)
One electron gradient       ....      10.925 sec  (  0.1%)
Prescreening matrices       ....       1.016 sec  (  0.0%)
Two electron gradient       ....    1508.221 sec  (  9.1%)

                            ***************************************
                            *     ORCA property calculations      *
                            ***************************************

                                    ---------------------
                                    Active property flags
                                    ---------------------
   (+) Dipole Moment


------------------------------------------------------------------------------
                       ORCA ELECTRIC PROPERTIES CALCULATION
------------------------------------------------------------------------------

Dipole Moment Calculation                       ... on
Quadrupole Moment Calculation                   ... off
Polarizability Calculation                      ... off
GBWName                                         ... M8.gbw
Electron density file                           ... M8.scfp
The origin for moment calculation is the CENTER OF MASS  = (-0.535524, -1.631574  0.164235)

-------------
DIPOLE MOMENT
-------------
                                X             Y             Z
Electronic contribution:     -9.42111      -6.17774     -11.67540
Nuclear contribution   :      8.14077       5.17742      13.72406
                        -----------------------------------------
Total Dipole Moment    :     -1.28034      -1.00032       2.04866
                        -----------------------------------------
Magnitude (a.u.)       :      2.61475
Magnitude (Debye)      :      6.64616



--------------------
Rotational spectrum 
--------------------
 
Rotational constants in cm-1:     0.002906     0.000233     0.000226 
Rotational constants in MHz :    87.122068     6.991327     6.780976 

 Dipole components along the rotational axes: 
x,y,z [a.u.] :     0.230271     2.085687     1.560063 
x,y,z [Debye]:     0.585301     5.301395     3.965365 

 

                        *** CIS RELAXED DENSITY ***

------------------------------------------------------------------------------
                       ORCA ELECTRIC PROPERTIES CALCULATION
------------------------------------------------------------------------------

Dipole Moment Calculation                       ... on
Quadrupole Moment Calculation                   ... off
Polarizability Calculation                      ... off
GBWName                                         ... M8.gbw
Electron density file                           ... M8.cisp
The origin for moment calculation is the CENTER OF MASS  = (-0.535524, -1.631574  0.164235)

-------------
DIPOLE MOMENT
-------------
                                X             Y             Z
Electronic contribution:     -9.83416      -5.74499     -11.44691
Nuclear contribution   :      8.14077       5.17742      13.72406
                        -----------------------------------------
Total Dipole Moment    :     -1.69339      -0.56757       2.27715
                        -----------------------------------------
Magnitude (a.u.)       :      2.89397
Magnitude (Debye)      :      7.35590



--------------------
Rotational spectrum 
--------------------
 
Rotational constants in cm-1:     0.002906     0.000233     0.000226 
Rotational constants in MHz :    87.122068     6.991327     6.780976 

 Dipole components along the rotational axes: 
x,y,z [a.u.] :     0.787362     2.380095     1.445784 
x,y,z [Debye]:     2.001315     6.049720     3.674892 

 

Timings for individual modules:

Sum of individual times         ...    40254.823 sec (= 670.914 min)
GTO integral calculation        ...        3.639 sec (=   0.061 min)   0.0 %
SCF iterations                  ...     4756.259 sec (=  79.271 min)  11.8 %
CIS module                      ...    18960.159 sec (= 316.003 min)  47.1 %
SCF Gradient evaluation         ...    16534.766 sec (= 275.579 min)  41.1 %
                             ****ORCA TERMINATED NORMALLY****
TOTAL RUN TIME: 0 days 11 hours 10 minutes 55 seconds 921 msec
