
                                 *****************
                                 * O   R   C   A *
                                 *****************

           --- An Ab Initio, DFT and Semiempirical electronic structure package ---

                  #######################################################
                  #                        -***-                        #
                  #          Department of theory and spectroscopy      #
                  #               Directorship: Frank Neese             #
                  #        Max Planck Institute fuer Kohlenforschung    #
                  #                Kaiser Wilhelm Platz 1               #
                  #                 D-45470 Muelheim/Ruhr               #
                  #                      Germany                        #
                  #                                                     #
                  #                  All rights reserved                #
                  #                        -***-                        #
                  #######################################################


                         Program Version 4.2.0 -  RELEASE  -


 With contributions from (in alphabetic order):
   Daniel Aravena         : Magnetic Suceptibility
   Michael Atanasov       : Ab Initio Ligand Field Theory (pilot matlab implementation)
   Alexander A. Auer      : GIAO ZORA, VPT2
   Ute Becker             : Parallelization
   Giovanni Bistoni       : ED, misc. LED, open-shell LED, HFLED
   Martin Brehm           : Molecular dynamics
   Dmytro Bykov           : SCF Hessian
   Vijay G. Chilkuri      : MRCI spin determinant printing, contributions to CSF-ICE
   Dipayan Datta          : RHF DLPNO-CCSD density
   Achintya Kumar Dutta   : EOM-CC, STEOM-CC
   Dmitry Ganyushin       : Spin-Orbit,Spin-Spin,Magnetic field MRCI
   Miquel Garcia          : C-PCM Hessian, Gaussian charge scheme
   Yang Guo               : DLPNO-NEVPT2, CIM, IAO-localization
   Andreas Hansen         : Spin unrestricted coupled pair/coupled cluster methods
   Benjamin Helmich-Paris : CASSCF linear response (MC-RPA)
   Lee Huntington         : MR-EOM, pCC
   Robert Izsak           : Overlap fitted RIJCOSX, COSX-SCS-MP3, EOM
   Christian Kollmar      : KDIIS, OOCD, Brueckner-CCSD(T), CCSD density
   Simone Kossmann        : Meta GGA functionals, TD-DFT gradient, OOMP2, MP2 Hessian
   Martin Krupicka        : AUTO-CI
   Lucas Lang             : DCDCAS
   Dagmar Lenk            : GEPOL surface, SMD
   Dimitrios Liakos       : Extrapolation schemes; Compound Job, initial MDCI parallelization
   Dimitrios Manganas     : Further ROCIS development; embedding schemes
   Dimitrios Pantazis     : SARC Basis sets
   Taras Petrenko         : DFT Hessian,TD-DFT gradient, ASA, ECA, R-Raman, ABS, FL, XAS/XES, NRVS
   Peter Pinski           : DLPNO-MP2, DLPNO-MP2 Gradient
   Christoph Reimann      : Effective Core Potentials
   Marius Retegan         : Local ZFS, SOC
   Christoph Riplinger    : Optimizer, TS searches, QM/MM, DLPNO-CCSD(T), (RO)-DLPNO pert. Triples
   Tobias Risthaus        : Range-separated hybrids, TD-DFT gradient, RPA, STAB
   Michael Roemelt        : Original ROCIS implementation
   Masaaki Saitow         : Open-shell DLPNO-CCSD energy and density
   Barbara Sandhoefer     : DKH picture change effects
   Avijit Sen             : IP-ROCIS
   Kantharuban Sivalingam : CASSCF convergence, NEVPT2, FIC-MRCI
   Bernardo de Souza      : ESD, SOC TD-DFT
   Georgi Stoychev        : AutoAux, RI-MP2 NMR
   Willem Van den Heuvel  : Paramagnetic NMR
   Boris Wezisla          : Elementary symmetry handling
   Frank Wennmohs         : Technical directorship


 We gratefully acknowledge several colleagues who have allowed us to
 interface, adapt or use parts of their codes:
   Stefan Grimme, W. Hujo, H. Kruse,             : VdW corrections, initial TS optimization,
                  C. Bannwarth                     DFT functionals, gCP, sTDA/sTD-DF
   Ed Valeev, F. Pavosevic, A. Kumar             : LibInt (2-el integral package), F12 methods
   Garnet Chan, S. Sharma, J. Yang, R. Olivares  : DMRG
   Ulf Ekstrom                                   : XCFun DFT Library
   Mihaly Kallay                                 : mrcc  (arbitrary order and MRCC methods)
   Andreas Klamt, Michael Diedenhofen            : otool_cosmo (COSMO solvation model)
   Jiri Pittner, Ondrej Demel                    : Mk-CCSD
   Frank Weinhold                                : gennbo (NPA and NBO analysis)
   Christopher J. Cramer and Donald G. Truhlar   : smd solvation model
   Lars Goerigk                                  : TD-DFT with DH, B97 family of functionals
   V. Asgeirsson, H. Jonsson                     : NEB implementation
   FAccTs GmbH                                   : IRC, NEB, NEB-TS, Multilevel, MM, QM/MM, CI optimization
   S Lehtola, MJT Oliveira, MAL Marques          : LibXC Library


 Your calculation uses the libint2 library for the computation of 2-el integrals
 For citations please refer to: http://libint.valeyev.net

 Your ORCA version has been built with support for libXC version: 4.2.3
 For citations please refer to: https://tddft.org/programs/libxc/

 This ORCA versions uses:
   CBLAS   interface :  Fast vector & matrix operations
   LAPACKE interface :  Fast linear algebra routines
   SCALAPACK package :  Parallel linear algebra routines


----- Orbital basis set information -----
Your calculation utilizes the basis: def2-SVP
   F. Weigend and R. Ahlrichs, Phys. Chem. Chem. Phys. 7, 3297 (2005).

================================================================================
                                        WARNINGS
                       Please study these warnings very carefully!
================================================================================

INFO   : Checking CIS options ...

WARNING: CIS/ROCIS methods need fully converged wavefunctions
  ===> : Setting SCFConvForced true
         You can overwrite this default with %scf ConvForced false 


INFO   : the flag for use of LIBINT has been found!

================================================================================
                                       INPUT FILE
================================================================================
NAME = NIBT.inp
|  1> # ORCA input file
|  2> # NIBT.out
|  3> ! Engrad Keepdens
|  4> %maxcore 1000
|  5> %tddft
|  6>   nroots 3 
|  7>   # nroots is the number of states to be computed
|  8>   Iroot 1
|  9>   # first excited state
| 10>   end
| 11> * xyz 0 1
| 12>    C        3.30524         0.87179        -0.93230
| 13>    C        3.34601        -0.54600        -1.06057
| 14>    C        2.19491        -1.29173        -0.98684
| 15>    C        0.99211        -0.61248        -0.79507
| 16>    C        0.94861         0.79945        -0.67635
| 17>    C        2.09630         1.54663        -0.73054
| 18>    C        4.62829         1.40158        -0.92650
| 19>    C        5.54672         0.28076        -1.08758
| 20>    C        4.74787        -1.01521        -1.34396
| 21>    S        5.14640         2.75852        -0.02547
| 22>    C        6.66521         2.19584         0.60371
| 23>    C        7.07074         0.78252         0.32983
| 24>    C       -0.34569        -1.08669        -0.67853
| 25>    C       -1.22301        -0.03055        -0.46207
| 26>    C       -0.47661         1.27969        -0.45062
| 27>    S       -1.14694        -2.60320        -0.76079
| 28>    C       -2.68452        -1.81054        -0.50332
| 29>    C       -2.54601        -0.43626        -0.36396
| 30>    C        7.50906         3.13358         1.20437
| 31>    C        4.81056        -1.69988        -2.67735
| 32>    C        5.76890        -1.52291        -0.29647
| 33>    C       -0.51116         2.00493         0.88121
| 34>    C       -1.02392         2.13367        -1.57844
| 35>    C       -3.88803        -2.58007        -0.47739
| 36>    C        7.12712         4.51004         1.30526
| 37>    C        7.99766         5.51136         1.85707
| 38>    C        9.27969         5.16457         2.35554
| 39>    C        9.57369         3.79415         2.34856
| 40>    C        8.75908         2.83441         1.79189
| 41>    C       -3.85240        -3.98309        -0.69480
| 42>    C       -5.04857        -4.77691        -0.67874
| 43>    C       -6.30726        -4.17924        -0.42037
| 44>    C       -6.30939        -2.79913        -0.26748
| 45>    C       -5.15027        -2.02996        -0.27778
| 46>    N        5.95439         5.00819         0.94416
| 47>    S        5.92657         6.59329         1.28410
| 48>    N        7.40924         6.70465         1.89910
| 49>    N       -2.77398        -4.71076        -0.97214
| 50>    S       -3.22587        -6.23670        -1.21039
| 51>    N       -4.80210        -6.04898        -0.98513
| 52>    C       10.18615         6.10173         2.92729
| 53>    C       10.34701         7.42169         2.64226
| 54>    C       -7.52301        -4.94596        -0.38154
| 55>    C       -7.66457        -6.19751         0.11057
| 56>    C        9.87247         8.24954         1.55208
| 57>    C       10.25988         9.57686         1.85909
| 58>    C       11.00457         9.67809         3.04403
| 59>    C       11.14307         8.28809         3.56546
| 60>    C       -8.83895        -7.04382        -0.04756
| 61>    C       -8.53174        -8.28080         0.55934
| 62>    C       -7.26237        -8.30466         1.15678
| 63>    C       -6.67787        -6.94682         0.96126
| 64>    C        9.27758         8.03713         0.32195
| 65>    C        8.99663         9.12963        -0.51007
| 66>    C        9.32144        10.43440        -0.17052
| 67>    C        9.99829        10.66829         1.04040
| 68>    C       10.46133        11.92766         1.46070
| 69>    C       11.17148        12.03360         2.64623
| 70>    C       11.46354        10.91399         3.44214
| 71>    C        9.03139        11.58339        -1.03177
| 72>    N        9.46744        12.82355        -0.56517
| 73>    C       10.18102        13.08895         0.59867
| 74>    C        9.15193        13.96308        -1.41888
| 75>    C        7.68851        14.40483        -1.28980
| 76>    C        7.35097        14.76814         0.15357
| 77>    C        7.44773        15.59480        -2.21416
| 78>    C       -6.84430        -9.45982         1.77910
| 79>    C       -7.69900       -10.57540         1.78427
| 80>    C       -8.95086       -10.54825         1.19073
| 81>    C       -9.39176        -9.37181         0.55989
| 82>    C      -10.63818        -9.22495        -0.07508
| 83>    C      -10.95059        -8.01039        -0.66613
| 84>    C      -10.06723        -6.91955        -0.66427
| 85>    C      -11.54931       -10.37746        -0.08671
| 86>    N      -11.08560       -11.52401         0.55893
| 87>    C       -9.85822       -11.70969         1.18385
| 88>    C      -11.97939       -12.67733         0.57339
| 89>    C      -12.66648       -12.87274         1.93089
| 90>    C      -13.47056       -11.63582         2.32127
| 91>    C      -13.57007       -14.09999         1.85405
| 92>    C        5.88784        -0.17810         0.37870
| 93>    C        7.07332         0.55438        -1.21829
| 94>    C        8.15512        -0.47938        -1.42976
| 95>    C        8.09036        -1.74885        -0.98778
| 96>    C        6.77875        -2.29504        -0.75106
| 97>    C        4.41440        -3.02465        -2.81071
| 98>    C        4.47331        -3.65033        -4.04078
| 99>    C        4.92537        -2.97079        -5.16533
|100>    C        5.31541        -1.64591        -5.02574
|101>    C        5.25675        -1.01410        -3.79712
|102>    C       -0.79946         1.33168         2.05960
|103>    C       -0.76463         1.99523         3.27272
|104>    C       -0.43495         3.34174         3.34130
|105>    C       -0.14048         4.00949         2.15921
|106>    C       -0.17654         3.35222         0.94478
|107>    C       -0.43303         2.15108        -2.83346
|108>    C       -0.98307         2.90421        -3.85496
|109>    C       -2.13850         3.64692        -3.65492
|110>    C       -2.73508         3.61275        -2.40087
|111>    C       -2.18982         2.86273        -1.37702
|112>    O        8.45437        11.49591        -2.09789
|113>    O       10.54836        14.21448         0.86905
|114>    O       11.76200         7.92352         4.54119
|115>    O       -5.67881        -6.51004         1.48406
|116>    O      -12.63570       -10.35844        -0.62742
|117>    O       -9.57040       -12.77848         1.68193
|118>    C        5.04136        -3.67210        -6.48768
|119>    C        9.40527         0.13881        -1.99795
|120>    C        6.40436        -4.35700        -6.60939
|121>    C       10.63257        -0.76153        -2.03018
|122>    C       -0.34212         4.04762         4.66314
|123>    C        1.08550         3.96700         5.20811
|124>    C       -2.69904         4.50601        -4.75129
|125>    C       -2.05449         5.89357        -4.72163
|126>    H        2.20542        -2.36705        -1.06509
|127>    H        2.08700         2.62028        -0.62628
|128>    H        7.97978         0.50976         0.85876
|129>    H       -3.37380         0.22911        -0.20215
|130>    H       10.51909         3.48311         2.76988
|131>    H        9.09959         1.81152         1.81674
|132>    H       -7.25376        -2.30370        -0.09196
|133>    H       -5.24085        -0.96661        -0.12177
|134>    H       10.82810         5.71813         3.71493
|135>    H       -8.39862        -4.46139        -0.80082
|136>    H        9.04283         7.04418        -0.02645
|137>    H        8.51197         8.96246        -1.46131
|138>    H       11.52149        13.01140         2.94342
|139>    H       12.04680        11.02767         4.34312
|140>    H        9.35334        13.67101        -2.45242
|141>    H        9.81528        14.77877        -1.12656
|142>    H        7.05159        13.57378        -1.60946
|143>    H        8.02753        15.53778         0.51858
|144>    H        7.43767        13.90100         0.80581
|145>    H        6.33100        15.14032         0.21991
|146>    H        8.07146        16.43567        -1.91816
|147>    H        6.40675        15.90540        -2.16740
|148>    H        7.68235        15.33457        -3.24357
|149>    H       -5.87608        -9.51868         2.25235
|150>    H       -7.38353       -11.49150         2.26204
|151>    H      -11.91294        -7.91571        -1.14792
|152>    H      -10.36574        -6.00136        -1.14736
|153>    H      -11.38423       -13.56251         0.33645
|154>    H      -12.72826       -12.51378        -0.20327
|155>    H      -11.89229       -13.05042         2.68412
|156>    H      -14.19589       -11.39569         1.54698
|157>    H      -12.82094       -10.77325         2.45922
|158>    H      -14.00163       -11.81116         3.25403
|159>    H      -14.34953       -13.95031         1.10990
|160>    H      -14.04313       -14.28105         2.81599
|161>    H      -12.99631       -14.98277         1.58257
|162>    H        5.14213        -0.02364         1.15812
|163>    H        7.28389         1.44430        -1.81521
|164>    H        8.92932        -2.41698        -1.09267
|165>    H        6.54707        -3.21530        -1.27246
|166>    H        4.07103        -3.56996        -1.94393
|167>    H        4.16530        -4.68229        -4.13037
|168>    H        5.66903        -1.10071        -5.88933
|169>    H        5.55877         0.01908        -3.70646
|170>    H       -1.05481         0.28237         2.03210
|171>    H       -0.99769         1.45624         4.18011
|172>    H        0.11932         5.05807         2.18992
|173>    H        0.04527         3.89320         0.03621
|174>    H        0.46255         1.57540        -3.01667
|175>    H       -0.50700         2.91071        -4.82523
|176>    H       -3.63889         4.17876        -2.22489
|177>    H       -2.66530         2.85102        -0.40671
|178>    H        4.92629        -2.95250        -7.30042
|179>    H        4.25270        -4.42138        -6.57981
|180>    H        9.63962         1.03850        -1.41766
|181>    H        9.18047         0.47128        -3.01732
|182>    H        7.20461        -3.62449        -6.52918
|183>    H        6.49146        -4.86321        -7.56772
|184>    H        6.53197        -5.09046        -5.81637
|185>    H       10.89632        -1.09314        -1.02885
|186>    H       11.47666        -0.21142        -2.43970
|187>    H       10.45906        -1.63280        -2.65681
|188>    H       -1.02727         3.58900         5.37875
|189>    H       -0.62263         5.09615         4.54431
|190>    H        1.37878         2.92872         5.34720
|191>    H        1.15777         4.47994         6.16432
|192>    H        1.78281         4.42820         4.51223
|193>    H       -3.77902         4.60805        -4.62791
|194>    H       -2.50790         4.04137        -5.72071
|195>    H       -2.24470         6.37821        -3.76655
|196>    H       -2.45806         6.51842        -5.51491
|197>    H       -0.97805         5.81341        -4.85548
|198> *
|199> 
|200>                          ****END OF INPUT****
================================================================================

                     *******************************
                     * Energy+Gradient Calculation *
                     *******************************

---------------------------------
CARTESIAN COORDINATES (ANGSTROEM)
---------------------------------
  C      3.305240    0.871790   -0.932300
  C      3.346010   -0.546000   -1.060570
  C      2.194910   -1.291730   -0.986840
  C      0.992110   -0.612480   -0.795070
  C      0.948610    0.799450   -0.676350
  C      2.096300    1.546630   -0.730540
  C      4.628290    1.401580   -0.926500
  C      5.546720    0.280760   -1.087580
  C      4.747870   -1.015210   -1.343960
  S      5.146400    2.758520   -0.025470
  C      6.665210    2.195840    0.603710
  C      7.070740    0.782520    0.329830
  C     -0.345690   -1.086690   -0.678530
  C     -1.223010   -0.030550   -0.462070
  C     -0.476610    1.279690   -0.450620
  S     -1.146940   -2.603200   -0.760790
  C     -2.684520   -1.810540   -0.503320
  C     -2.546010   -0.436260   -0.363960
  C      7.509060    3.133580    1.204370
  C      4.810560   -1.699880   -2.677350
  C      5.768900   -1.522910   -0.296470
  C     -0.511160    2.004930    0.881210
  C     -1.023920    2.133670   -1.578440
  C     -3.888030   -2.580070   -0.477390
  C      7.127120    4.510040    1.305260
  C      7.997660    5.511360    1.857070
  C      9.279690    5.164570    2.355540
  C      9.573690    3.794150    2.348560
  C      8.759080    2.834410    1.791890
  C     -3.852400   -3.983090   -0.694800
  C     -5.048570   -4.776910   -0.678740
  C     -6.307260   -4.179240   -0.420370
  C     -6.309390   -2.799130   -0.267480
  C     -5.150270   -2.029960   -0.277780
  N      5.954390    5.008190    0.944160
  S      5.926570    6.593290    1.284100
  N      7.409240    6.704650    1.899100
  N     -2.773980   -4.710760   -0.972140
  S     -3.225870   -6.236700   -1.210390
  N     -4.802100   -6.048980   -0.985130
  C     10.186150    6.101730    2.927290
  C     10.347010    7.421690    2.642260
  C     -7.523010   -4.945960   -0.381540
  C     -7.664570   -6.197510    0.110570
  C      9.872470    8.249540    1.552080
  C     10.259880    9.576860    1.859090
  C     11.004570    9.678090    3.044030
  C     11.143070    8.288090    3.565460
  C     -8.838950   -7.043820   -0.047560
  C     -8.531740   -8.280800    0.559340
  C     -7.262370   -8.304660    1.156780
  C     -6.677870   -6.946820    0.961260
  C      9.277580    8.037130    0.321950
  C      8.996630    9.129630   -0.510070
  C      9.321440   10.434400   -0.170520
  C      9.998290   10.668290    1.040400
  C     10.461330   11.927660    1.460700
  C     11.171480   12.033600    2.646230
  C     11.463540   10.913990    3.442140
  C      9.031390   11.583390   -1.031770
  N      9.467440   12.823550   -0.565170
  C     10.181020   13.088950    0.598670
  C      9.151930   13.963080   -1.418880
  C      7.688510   14.404830   -1.289800
  C      7.350970   14.768140    0.153570
  C      7.447730   15.594800   -2.214160
  C     -6.844300   -9.459820    1.779100
  C     -7.699000  -10.575400    1.784270
  C     -8.950860  -10.548250    1.190730
  C     -9.391760   -9.371810    0.559890
  C    -10.638180   -9.224950   -0.075080
  C    -10.950590   -8.010390   -0.666130
  C    -10.067230   -6.919550   -0.664270
  C    -11.549310  -10.377460   -0.086710
  N    -11.085600  -11.524010    0.558930
  C     -9.858220  -11.709690    1.183850
  C    -11.979390  -12.677330    0.573390
  C    -12.666480  -12.872740    1.930890
  C    -13.470560  -11.635820    2.321270
  C    -13.570070  -14.099990    1.854050
  C      5.887840   -0.178100    0.378700
  C      7.073320    0.554380   -1.218290
  C      8.155120   -0.479380   -1.429760
  C      8.090360   -1.748850   -0.987780
  C      6.778750   -2.295040   -0.751060
  C      4.414400   -3.024650   -2.810710
  C      4.473310   -3.650330   -4.040780
  C      4.925370   -2.970790   -5.165330
  C      5.315410   -1.645910   -5.025740
  C      5.256750   -1.014100   -3.797120
  C     -0.799460    1.331680    2.059600
  C     -0.764630    1.995230    3.272720
  C     -0.434950    3.341740    3.341300
  C     -0.140480    4.009490    2.159210
  C     -0.176540    3.352220    0.944780
  C     -0.433030    2.151080   -2.833460
  C     -0.983070    2.904210   -3.854960
  C     -2.138500    3.646920   -3.654920
  C     -2.735080    3.612750   -2.400870
  C     -2.189820    2.862730   -1.377020
  O      8.454370   11.495910   -2.097890
  O     10.548360   14.214480    0.869050
  O     11.762000    7.923520    4.541190
  O     -5.678810   -6.510040    1.484060
  O    -12.635700  -10.358440   -0.627420
  O     -9.570400  -12.778480    1.681930
  C      5.041360   -3.672100   -6.487680
  C      9.405270    0.138810   -1.997950
  C      6.404360   -4.357000   -6.609390
  C     10.632570   -0.761530   -2.030180
  C     -0.342120    4.047620    4.663140
  C      1.085500    3.967000    5.208110
  C     -2.699040    4.506010   -4.751290
  C     -2.054490    5.893570   -4.721630
  H      2.205420   -2.367050   -1.065090
  H      2.087000    2.620280   -0.626280
  H      7.979780    0.509760    0.858760
  H     -3.373800    0.229110   -0.202150
  H     10.519090    3.483110    2.769880
  H      9.099590    1.811520    1.816740
  H     -7.253760   -2.303700   -0.091960
  H     -5.240850   -0.966610   -0.121770
  H     10.828100    5.718130    3.714930
  H     -8.398620   -4.461390   -0.800820
  H      9.042830    7.044180   -0.026450
  H      8.511970    8.962460   -1.461310
  H     11.521490   13.011400    2.943420
  H     12.046800   11.027670    4.343120
  H      9.353340   13.671010   -2.452420
  H      9.815280   14.778770   -1.126560
  H      7.051590   13.573780   -1.609460
  H      8.027530   15.537780    0.518580
  H      7.437670   13.901000    0.805810
  H      6.331000   15.140320    0.219910
  H      8.071460   16.435670   -1.918160
  H      6.406750   15.905400   -2.167400
  H      7.682350   15.334570   -3.243570
  H     -5.876080   -9.518680    2.252350
  H     -7.383530  -11.491500    2.262040
  H    -11.912940   -7.915710   -1.147920
  H    -10.365740   -6.001360   -1.147360
  H    -11.384230  -13.562510    0.336450
  H    -12.728260  -12.513780   -0.203270
  H    -11.892290  -13.050420    2.684120
  H    -14.195890  -11.395690    1.546980
  H    -12.820940  -10.773250    2.459220
  H    -14.001630  -11.811160    3.254030
  H    -14.349530  -13.950310    1.109900
  H    -14.043130  -14.281050    2.815990
  H    -12.996310  -14.982770    1.582570
  H      5.142130   -0.023640    1.158120
  H      7.283890    1.444300   -1.815210
  H      8.929320   -2.416980   -1.092670
  H      6.547070   -3.215300   -1.272460
  H      4.071030   -3.569960   -1.943930
  H      4.165300   -4.682290   -4.130370
  H      5.669030   -1.100710   -5.889330
  H      5.558770    0.019080   -3.706460
  H     -1.054810    0.282370    2.032100
  H     -0.997690    1.456240    4.180110
  H      0.119320    5.058070    2.189920
  H      0.045270    3.893200    0.036210
  H      0.462550    1.575400   -3.016670
  H     -0.507000    2.910710   -4.825230
  H     -3.638890    4.178760   -2.224890
  H     -2.665300    2.851020   -0.406710
  H      4.926290   -2.952500   -7.300420
  H      4.252700   -4.421380   -6.579810
  H      9.639620    1.038500   -1.417660
  H      9.180470    0.471280   -3.017320
  H      7.204610   -3.624490   -6.529180
  H      6.491460   -4.863210   -7.567720
  H      6.531970   -5.090460   -5.816370
  H     10.896320   -1.093140   -1.028850
  H     11.476660   -0.211420   -2.439700
  H     10.459060   -1.632800   -2.656810
  H     -1.027270    3.589000    5.378750
  H     -0.622630    5.096150    4.544310
  H      1.378780    2.928720    5.347200
  H      1.157770    4.479940    6.164320
  H      1.782810    4.428200    4.512230
  H     -3.779020    4.608050   -4.627910
  H     -2.507900    4.041370   -5.720710
  H     -2.244700    6.378210   -3.766550
  H     -2.458060    6.518420   -5.514910
  H     -0.978050    5.813410   -4.855480

----------------------------
CARTESIAN COORDINATES (A.U.)
----------------------------
  NO LB      ZA    FRAG     MASS         X           Y           Z
   0 C     6.0000    0    12.011    6.245998    1.647444   -1.761792
   1 C     6.0000    0    12.011    6.323043   -1.031790   -2.004187
   2 C     6.0000    0    12.011    4.147779   -2.441016   -1.864857
   3 C     6.0000    0    12.011    1.874816   -1.157419   -1.502465
   4 C     6.0000    0    12.011    1.792613    1.510742   -1.278116
   5 C     6.0000    0    12.011    3.961433    2.922707   -1.380521
   6 C     6.0000    0    12.011    8.746201    2.648602   -1.750831
   7 C     6.0000    0    12.011   10.481782    0.530560   -2.055228
   8 C     6.0000    0    12.011    8.972174   -1.918469   -2.539716
   9 S    16.0000    0    32.060    9.725287    5.212847   -0.048131
  10 C     6.0000    0    12.011   12.595422    4.149536    1.140847
  11 C     6.0000    0    12.011   13.361762    1.478748    0.623288
  12 C     6.0000    0    12.011   -0.653259   -2.053546   -1.282236
  13 C     6.0000    0    12.011   -2.311154   -0.057731   -0.873186
  14 C     6.0000    0    12.011   -0.900662    2.418264   -0.851548
  15 S    16.0000    0    32.060   -2.167402   -4.919335   -1.437685
  16 C     6.0000    0    12.011   -5.073008   -3.421425   -0.951137
  17 C     6.0000    0    12.011   -4.811262   -0.824412   -0.687785
  18 C     6.0000    0    12.011   14.190067    5.921608    2.275929
  19 C     6.0000    0    12.011    9.090641   -3.212308   -5.059458
  20 C     6.0000    0    12.011   10.901641   -2.877883   -0.560247
  21 C     6.0000    0    12.011   -0.965952    3.788769    1.665246
  22 C     6.0000    0    12.011   -1.934928    4.032052   -2.982819
  23 C     6.0000    0    12.011   -7.347312   -4.875626   -0.902136
  24 C     6.0000    0    12.011   13.468305    8.522740    2.466584
  25 C     6.0000    0    12.011   15.113387   10.414961    3.509354
  26 C     6.0000    0    12.011   17.536073    9.759623    4.451325
  27 C     6.0000    0    12.011   18.091652    7.169904    4.438135
  28 C     6.0000    0    12.011   16.552262    5.356259    3.386181
  29 C     6.0000    0    12.011   -7.279981   -7.526949   -1.312982
  30 C     6.0000    0    12.011   -9.540415   -9.027052   -1.282633
  31 C     6.0000    0    12.011  -11.918994   -7.897619   -0.794384
  32 C     6.0000    0    12.011  -11.923019   -5.289589   -0.505464
  33 C     6.0000    0    12.011   -9.732600   -3.836068   -0.524928
  34 N     7.0000    0    14.007   11.252166    9.464108    1.784204
  35 S    16.0000    0    32.060   11.199594   12.459512    2.426597
  36 N     7.0000    0    14.007   14.001434   12.669952    3.588779
  37 N     7.0000    0    14.007   -5.242063   -8.902046   -1.837078
  38 S    16.0000    0    32.060   -6.096011  -11.785655   -2.287306
  39 N     7.0000    0    14.007   -9.074654  -11.430916   -1.861626
  40 C     6.0000    0    12.011   19.249034   11.530599    5.531776
  41 C     6.0000    0    12.011   19.553015   14.024962    4.993148
  42 C     6.0000    0    12.011  -14.216429   -9.346510   -0.721006
  43 C     6.0000    0    12.011  -14.483938  -11.711597    0.208947
  44 C     6.0000    0    12.011   18.656265   15.589371    2.933006
  45 C     6.0000    0    12.011   19.388363   18.097643    3.513171
  46 C     6.0000    0    12.011   20.795624   18.288940    5.752383
  47 C     6.0000    0    12.011   21.057351   15.662220    6.737743
  48 C     6.0000    0    12.011  -16.703195  -13.310891   -0.089875
  49 C     6.0000    0    12.011  -16.122652  -15.648444    1.056999
  50 C     6.0000    0    12.011  -13.723890  -15.693533    2.185997
  51 C     6.0000    0    12.011  -12.619345  -13.127587    1.816518
  52 C     6.0000    0    12.011   17.532085   15.187975    0.608397
  53 C     6.0000    0    12.011   17.001167   17.252500   -0.963893
  54 C     6.0000    0    12.011   17.614969   19.718158   -0.322236
  55 C     6.0000    0    12.011   18.894030   20.160146    1.966071
  56 C     6.0000    0    12.011   19.769049   22.540011    2.760323
  57 C     6.0000    0    12.011   21.111038   22.740208    5.000650
  58 C     6.0000    0    12.011   21.662951   20.624452    6.504702
  59 C     6.0000    0    12.011   17.066854   21.889435   -1.949763
  60 N     7.0000    0    14.007   17.890869   24.232998   -1.068017
  61 C     6.0000    0    12.011   19.239340   24.734531    1.131322
  62 C     6.0000    0    12.011   17.294641   26.386397   -2.681295
  63 C     6.0000    0    12.011   14.529178   27.221184   -2.437369
  64 C     6.0000    0    12.011   13.891320   27.907740    0.290205
  65 C     6.0000    0    12.011   14.074170   29.469901   -4.184156
  66 C     6.0000    0    12.011  -12.933853  -17.876469    3.362012
  67 C     6.0000    0    12.011  -14.549002  -19.984610    3.371782
  68 C     6.0000    0    12.011  -16.914674  -19.933304    2.250154
  69 C     6.0000    0    12.011  -17.747854  -17.710154    1.058039
  70 C     6.0000    0    12.011  -20.103247  -17.432629   -0.141881
  71 C     6.0000    0    12.011  -20.693616  -15.137443   -1.258803
  72 C     6.0000    0    12.011  -19.024308  -13.076054   -1.255288
  73 C     6.0000    0    12.011  -21.825033  -19.610557   -0.163858
  74 N     7.0000    0    14.007  -20.948748  -21.777223    1.056225
  75 C     6.0000    0    12.011  -18.629336  -22.128107    2.237152
  76 C     6.0000    0    12.011  -22.637766  -23.956682    1.083550
  77 C     6.0000    0    12.011  -23.936178  -24.325953    3.648853
  78 C     6.0000    0    12.011  -25.455669  -21.988513    4.386565
  79 C     6.0000    0    12.011  -25.643716  -26.645120    3.503647
  80 C     6.0000    0    12.011   11.126405   -0.336560    0.715639
  81 C     6.0000    0    12.011   13.366638    1.047626   -2.302234
  82 C     6.0000    0    12.011   15.410943   -0.905897   -2.701855
  83 C     6.0000    0    12.011   15.288565   -3.304848   -1.866634
  84 C     6.0000    0    12.011   12.809981   -4.336997   -1.419298
  85 C     6.0000    0    12.011    8.342007   -5.715760   -5.311472
  86 C     6.0000    0    12.011    8.453331   -6.898124   -7.635968
  87 C     6.0000    0    12.011    9.307600   -5.613980   -9.761059
  88 C     6.0000    0    12.011   10.044669   -3.110319   -9.497272
  89 C     6.0000    0    12.011    9.933818   -1.916371   -7.175517
  90 C     6.0000    0    12.011   -1.510760    2.516510    3.892080
  91 C     6.0000    0    12.011   -1.444941    3.770438    6.184545
  92 C     6.0000    0    12.011   -0.821936    6.314973    6.314142
  93 C     6.0000    0    12.011   -0.265469    7.576838    4.080316
  94 C     6.0000    0    12.011   -0.333612    6.334778    1.785375
  95 C     6.0000    0    12.011   -0.818308    4.064952   -5.354463
  96 C     6.0000    0    12.011   -1.857733    5.488162   -7.284819
  97 C     6.0000    0    12.011   -4.041179    6.891680   -6.906798
  98 C     6.0000    0    12.011   -5.168552    6.827108   -4.536987
  99 C     6.0000    0    12.011   -4.138160    5.409776   -2.602191
 100 O     8.0000    0    15.999   15.976444   21.724122   -3.964438
 101 O     8.0000    0    15.999   19.933512   26.861474    1.642266
 102 O     8.0000    0    15.999   22.226959   14.973283    8.581605
 103 O     8.0000    0    15.999  -10.731396  -12.302193    2.804467
 104 O     8.0000    0    15.999  -23.878013  -19.574615   -1.185652
 105 O     8.0000    0    15.999  -18.085435  -24.147828    3.178387
 106 C     6.0000    0    12.011    9.526790   -6.939263  -12.259938
 107 C     6.0000    0    12.011   17.773385    0.262313   -3.775578
 108 C     6.0000    0    12.011   12.102486   -8.233537  -12.489937
 109 C     6.0000    0    12.011   20.092645   -1.439083   -3.836484
 110 C     6.0000    0    12.011   -0.646513    7.648893    8.812058
 111 C     6.0000    0    12.011    2.051298    7.496544    9.841902
 112 C     6.0000    0    12.011   -5.100446    8.515125   -8.978637
 113 C     6.0000    0    12.011   -3.882423   11.137233   -8.922588
 114 H     1.0000    0     1.008    4.167640   -4.473076   -2.012728
 115 H     1.0000    0     1.008    3.943858    4.951612   -1.183498
 116 H     1.0000    0     1.008   15.079599    0.963307    1.622821
 117 H     1.0000    0     1.008   -6.375558    0.432955   -0.382008
 118 H     1.0000    0     1.008   19.878199    6.582124    5.234315
 119 H     1.0000    0     1.008   17.195733    3.423277    3.433141
 120 H     1.0000    0     1.008  -13.707620   -4.353362   -0.173779
 121 H     1.0000    0     1.008   -9.903771   -1.826628   -0.230112
 122 H     1.0000    0     1.008   20.462144   10.805700    7.020200
 123 H     1.0000    0     1.008  -15.871092   -8.430805   -1.513330
 124 H     1.0000    0     1.008   17.088472   13.311571   -0.049983
 125 H     1.0000    0     1.008   16.085292   16.936595   -2.761476
 126 H     1.0000    0     1.008   21.772461   24.587983    5.562258
 127 H     1.0000    0     1.008   22.765153   20.839276    8.207307
 128 H     1.0000    0     1.008   17.675251   25.834465   -4.634402
 129 H     1.0000    0     1.008   18.548191   27.927828   -2.128890
 130 H     1.0000    0     1.008   13.325574   25.650727   -3.041439
 131 H     1.0000    0     1.008   15.169833   29.362149    0.979974
 132 H     1.0000    0     1.008   14.055159   26.269083    1.522760
 133 H     1.0000    0     1.008   11.963856   28.611058    0.415570
 134 H     1.0000    0     1.008   15.252849   31.058915   -3.624797
 135 H     1.0000    0     1.008   12.107003   30.056850   -4.095792
 136 H     1.0000    0     1.008   14.517538   28.978138   -6.129459
 137 H     1.0000    0     1.008  -11.104182  -17.987698    4.256325
 138 H     1.0000    0     1.008  -13.952850  -21.715788    4.274636
 139 H     1.0000    0     1.008  -22.512194  -14.958524   -2.169254
 140 H     1.0000    0     1.008  -19.588410  -11.340927   -2.168196
 141 H     1.0000    0     1.008  -21.513077  -25.629430    0.635798
 142 H     1.0000    0     1.008  -24.052926  -23.647617   -0.384125
 143 H     1.0000    0     1.008  -22.473171  -24.661720    5.072252
 144 H     1.0000    0     1.008  -26.826344  -21.534733    2.923369
 145 H     1.0000    0     1.008  -24.228065  -20.358492    4.647252
 146 H     1.0000    0     1.008  -26.459246  -22.319858    6.149226
 147 H     1.0000    0     1.008  -27.116682  -26.362265    2.097407
 148 H     1.0000    0     1.008  -26.537670  -26.987273    5.321450
 149 H     1.0000    0     1.008  -24.559467  -28.313332    2.990624
 150 H     1.0000    0     1.008    9.717217   -0.044673    2.188530
 151 H     1.0000    0     1.008   13.764557    2.729331   -3.430250
 152 H     1.0000    0     1.008   16.873969   -4.567430   -2.064847
 153 H     1.0000    0     1.008   12.372169   -6.076036   -2.404601
 154 H     1.0000    0     1.008    7.693132   -6.746247   -3.673495
 155 H     1.0000    0     1.008    7.871276   -8.848246   -7.805268
 156 H     1.0000    0     1.008   10.712914   -2.080040  -11.129221
 157 H     1.0000    0     1.008   10.504553    0.036056   -7.004194
 158 H     1.0000    0     1.008   -1.993302    0.533602    3.840112
 159 H     1.0000    0     1.008   -1.885361    2.751895    7.899263
 160 H     1.0000    0     1.008    0.225482    9.558367    4.138349
 161 H     1.0000    0     1.008    0.085548    7.357082    0.068427
 162 H     1.0000    0     1.008    0.874093    2.977075   -5.700680
 163 H     1.0000    0     1.008   -0.958091    5.500445   -9.118363
 164 H     1.0000    0     1.008   -6.876506    7.896712   -4.204433
 165 H     1.0000    0     1.008   -5.036687    5.387647   -0.768571
 166 H     1.0000    0     1.008    9.309339   -5.579416  -13.795794
 167 H     1.0000    0     1.008    8.036438   -8.355197  -12.434039
 168 H     1.0000    0     1.008   18.216242    1.962481   -2.678989
 169 H     1.0000    0     1.008   17.348574    0.890590   -5.701908
 170 H     1.0000    0     1.008   13.614740   -6.849293  -12.338362
 171 H     1.0000    0     1.008   12.267082   -9.190135  -14.300918
 172 H     1.0000    0     1.008   12.343634   -9.619575  -10.991346
 173 H     1.0000    0     1.008   20.591061   -2.065735   -1.944245
 174 H     1.0000    0     1.008   21.687744   -0.399526   -4.610365
 175 H     1.0000    0     1.008   19.764759   -3.085545   -5.020643
 176 H     1.0000    0     1.008   -1.941259    6.782227   10.164364
 177 H     1.0000    0     1.008   -1.176600    9.630328    8.587501
 178 H     1.0000    0     1.008    2.605517    5.534479   10.104744
 179 H     1.0000    0     1.008    2.187868    8.465860   11.648877
 180 H     1.0000    0     1.008    3.369023    8.368085    8.526879
 181 H     1.0000    0     1.008   -7.141313    8.707953   -8.745482
 182 H     1.0000    0     1.008   -4.739244    7.637083  -10.810575
 183 H     1.0000    0     1.008   -4.241868   12.053070   -7.117748
 184 H     1.0000    0     1.008   -4.645060   12.318029  -10.421670
 185 H     1.0000    0     1.008   -1.848247   10.985753   -9.175527

--------------------------------
INTERNAL COORDINATES (ANGSTROEM)
--------------------------------
 C      0   0   0     0.000000000000     0.00000000     0.00000000
 C      1   0   0     1.424164270686     0.00000000     0.00000000
 C      2   1   0     1.373528505638   120.77539398     0.00000000
 C      3   2   1     1.394591028008   117.75864143     0.55897641
 C      4   3   2     1.417579984798   121.54051275   359.87554471
 C      5   4   3     1.370549832950   120.92980514   359.20988833
 C      1   2   3     1.425192052532   110.11218918   174.95300508
 C      7   1   2     1.457977333054   107.37165916     1.30277921
 C      2   1   3     1.505217384898   110.72885178   177.02955935
 S      7   1   2     1.709262764059   125.35556656   214.63236395
 C     10   7   1     1.737601815981   101.46400209   136.26440793
 C     11  10   7     1.495639748636   118.46983337   355.84505020
 C      4   3   2     1.424136768608   131.24342072   179.99885228
 C     13   4   3     1.389955759584   110.64969312   178.58331714
 C     14  13   4     1.507969800792   110.42428857     1.22651322
 S     13   4   3     1.717140311739   136.75959036   357.34168224
 C     16  13   4     1.748929081724    90.16654952   181.33858980
 C     14  13   4     1.387283379919   113.00040347   178.95355257
 C     11  10   7     1.397222804602   117.78992048   168.57259465
 C      9   2   1     1.500210630912   110.39676331   241.94967079
 C      9   2   1     1.548385239855   126.08468501    95.76344691
 C     15  14  13     1.516884276733   114.25590800   244.26164110
 C     15  14  13     1.516841464656   107.75424335   119.04666111
 C     17  16  13     1.428735491930   119.94216278   179.09955472
 C     19  11  10     1.432026217393   120.95134466     0.45859672
 C     25  19  11     1.437002404347   122.36100241   183.13138285
 C     26  25  19     1.418568491790   120.80258449   358.72198702
 C     27  26  25     1.401618955637   115.26727069   355.84669616
 C     28  27  26     1.376434454887   124.02944016     5.97725030
 C     24  17  16     1.420211859336   120.54253984   358.31142825
 C     30  24  17     1.435698709653   121.57456197   180.24414521
 C     31  30  24     1.417132669125   120.58792892   358.91204488
 C     32  31  30     1.388554464578   116.14333385     3.59834976
 C     33  32  31     1.391146201267   123.19210787   356.04262625
 N     25  19  11     1.324327106647   125.34718804     4.74072770
 S     35  25  19     1.621380635755   109.01180133   177.74926858
 N     26  25  19     1.331144485546   111.65299214   182.60179691
 N     30  24  17     1.330192016552   126.34712252   357.96387576
 S     38  30  24     1.609180076374   108.78060737   182.86726261
 N     31  30  24     1.331459491648   111.80505588   176.13665580
 C     27  26  25     1.423670137251   123.75329081   180.67351314
 C     41  27  26     1.359931043142   129.05478091   329.11624614
 C     32  31  30     1.437850962305   122.07504186   180.72492591
 C     43  32  31     1.352253263335   126.28992758    37.02137666
 C     42  41  27     1.448798214556   132.34385153   346.89159772
 C     45  42  41     1.416375667187   106.42641446   174.79681513
 C     46  45  42     1.403172659583   113.31690402     2.54130580
 C     47  46  45     1.491030346740   106.10293289     0.85188438
 C     44  43  32     1.456164172544   125.64894176   190.53597637
 C     49  44  43     1.411674578116   106.68286896   177.03277094
 C     50  49  44     1.403140780571   113.25515767     2.41813298
 C     51  50  49     1.491173291740   106.45672314     1.49220807
 C     45  42  41     1.382834746852   136.26239183   348.20258740
 C     53  45  42     1.401694129580   119.63930941   182.43409080
 C     54  53  45     1.386802253928   122.75378589     1.69457085
 C     46  45  42     1.389209159594   123.84898895   179.21102608
 C     56  46  45     1.406083542504   117.74293275   181.02511603
 C     57  56  46     1.386007823571   119.52931335     1.09229718
 C     47  46  45     1.377168777964   119.06063771   178.82855452
 C     55  54  53     1.464943202005   123.20327047   180.05846026
 N     60  55  54     1.394937987188   116.02440617   182.27586371
 C     61  60  55     1.390739775084   127.58746663     2.24377975
 C     61  60  55     1.458388132529   115.54573200   181.06857026
 C     63  61  60     1.534080442904   112.46514269    77.61498456
 C     64  63  61     1.526186215571   111.04511958    58.00443323
 C     64  63  61     1.525924316242   108.91189767   180.07149700
 C     51  50  49     1.377119941363   118.77148496   180.21408153
 C     67  51  50     1.405367409363   118.87434406     0.49250408
 C     68  67  51     1.385705709630   122.16076185   359.61693303
 C     50  49  44     1.389221912799   123.61446111   182.86091316
 C     70  50  49     1.406526777882   117.80205574   359.63890520
 C     71  70  50     1.386396806185   118.92217613   359.94282450
 C     49  44  43     1.380016672146   135.56178828     0.12288669
 C     71  70  50     1.469208097548   118.11385746   179.58238448
 N     74  71  70     1.395154068983   115.77755769     0.67602795
 C     75  74  71     1.389771108205   127.69237962   358.55771112
 C     75  74  71     1.459183565594   116.77873434   179.34250343
 C     77  75  74     1.533976527265   112.57020189   256.50183375
 C     78  77  75     1.526077415205   111.04672837    58.27351296
 C     78  77  75     1.525949486779   108.85182966   180.33107956
 C     21   9   2     1.509475136794    93.57931882   293.78651789
 C      8   7   1     1.556425574353   119.47178717   175.79907123
 C     82   8   7     1.511181835022   126.41554362   181.87731747
 C     83  82   8     1.345769021378   124.39419814   330.15083043
 C     21   9   2     1.350049564831   116.93538077   158.75740613
 C     20   9   2     1.389151967245   120.57327312   279.09186889
 C     86  20   9     1.381310267608   120.35097844   179.96301331
 C     87  86  20     1.389512705124   120.86754774   359.88259663
 C     88  87  86     1.388136731054   118.47616090   359.90260250
 C     89  88  87     1.382798602870   120.89813440     0.00000000
 C     22  15  14     1.387438447139   121.22791569    20.34098753
 C     91  22  15     1.383174560856   120.45671449   176.92522408
 C     92  91  22     1.387977412965   120.97832465   359.64030158
 C     93  92  91     1.389222592496   118.33388057     0.02875213
 C     94  93  92     1.381356000964   120.91961404     0.10851848
 C     23  15  14     1.387274053891   121.73737663   266.14487941
 C     96  23  15     1.383188724831   120.36860272   177.72741405
 C     97  96  23     1.388039131509   121.05980061   359.42885395
 C     98  97  96     1.389142428911   118.32223819   359.78278527
 C     99  98  97     1.381342568120   120.86072880     0.23938295
 O     60  55  54     1.215408032391   123.58961317     1.87550764
 O     62  61  60     1.214438883147   121.22339892   177.11769076
 O     48  47  46     1.211624802775   127.55915861   176.72947905
 O     52  51  50     1.209221853921   126.58898268   169.24655093
 O     74  71  70     1.213660700773   123.11706429   181.28267194
 O     76  75  74     1.213769377971   120.76964123   181.82368502
 C     88  87  86     1.501299077033   120.63245101   177.43822045
 C     83  82   8     1.505946139376   111.48482184   159.34090821
 C    107  88  87     1.530251722463   110.36188554   272.98636332
 C    108  83  82     1.522470419581   115.74896342   170.03057524
 C     93  92  91     1.501381020561   120.95033964   182.54094602
 C    111  93  92     1.530225718546   110.27110183    90.70512914
 C     98  97  96     1.501421958212   120.77720330   177.49821022
 C    113  98  97     1.530244154277   110.32992223   272.87573341
 H      3   2   1     1.078214554252   121.96545136   181.02719169
 H      6   5   4     1.078740450757   122.11056308   181.01756640
 H     12  11  10     1.086516766599   112.02004104   186.21971412
 H     18  14  13     1.074307217280   124.35738038   180.29331776
 H     28  27  26     1.080757874827   117.57680216   183.24594914
 H     29  28  27     1.078363822974   117.72304993   178.14111099
 H     33  32  31     1.080783443711   118.34848194   178.60723490
 H     34  33  32     1.078543962479   118.29866114   181.84656305
 H     41  27  26     1.086105672621   115.79019678   147.81737591
 H     43  32  31     1.085033029636   115.70628986   217.67157191
 H     53  45  42     1.078165026793   121.50606440     1.00755183
 H     54  53  45     1.080601065195   119.46186709   181.33882377
 H     58  57  56     1.080241517532   118.06814014   179.61484112
 H     59  47  46     1.079296219951   121.06056704   180.55656371
 H     63  61  60     1.092737756555   107.75495978   316.94705418
 H     63  61  60     1.091253582354   107.20159391   198.64835646
 H     64  63  61     1.094757372435   108.16961440   298.24419994
 H     65  64  63     1.087801205782   110.37796336    56.22500054
 H     65  64  63     1.088515359193   111.06539616   296.16424915
 H     65  64  63     1.087776516064   110.27371001   176.34765219
 H     66  64  63     1.087987807744   110.33090268   297.82367583
 H     66  64  63     1.087335375126   110.35141159   178.00228963
 H     66  64  63     1.087405694946   110.65819616    58.02637986
 H     67  51  50     1.079296081018   121.07999071   180.13149387
 H     68  67  51     1.080289176008   119.81362384   179.57279284
 H     72  71  70     1.080371893840   117.87955949   180.08276053
 H     73  49  44     1.079609672196   121.51010126   356.65090677
 H     77  75  74     1.092657138173   107.72924138   135.76356334
 H     77  75  74     1.091217501234   107.14819689    17.52262071
 H     78  77  75     1.094666968260   108.22949908   298.47474048
 H     79  78  77     1.087791813676   110.37529362    56.38077173
 H     79  78  77     1.088606150910   111.11385756   296.27789633
 H     79  78  77     1.087575596499   110.24312244   176.46878795
 H     80  78  77     1.087989529591   110.36659678   297.84299102
 H     80  78  77     1.087150886860   110.30729866   178.02795171
 H     80  78  77     1.087291339246   110.67564106    58.09240705
 H     81  21   9     1.089695752079   113.09706839    87.60613022
 H     82   8   7     1.092067222153   112.22750633   321.50079253
 H     84  83  82     1.077614722709   121.02590150   185.44948459
 H     85  21   9     1.082779779087   119.22088900   301.74039735
 H     86  20   9     1.080080330994   119.67634853   359.16584450
 H     87  86  20     1.080665521704   119.61809315   179.79494006
 H     89  88  87     1.080776495164   119.54107430   180.05293196
 H     90  89  88     1.080229710941   119.98111535   180.34203067
 H     91  22  15     1.080282994682   119.92263167   356.82250750
 H     92  91  22     1.080825515891   119.44937455   179.64505290
 H     94  93  92     1.080721592502   119.54754908   180.03650550
 H     95  94  93     1.080443650266   119.71615243   179.32181327
 H     96  23  15     1.080294822213   119.98968825   357.63836950
 H     97  96  23     1.080790806678   119.41311488   179.67490906
 H     99  98  97     1.080837081433   119.55259890   180.37618228
 H    100  99  98     1.080610869185   119.85063591   179.75888147
 H    107  88  87     1.091609624591   109.85880887   152.45689392
 H    107  88  87     1.091738545120   109.82336050    33.47982712
 H    108  83  82     1.095946395906   108.34434080    47.39759831
 H    108  83  82     1.095530254169   107.77639194   292.29118836
 H    109 107  88     1.087844017633   110.36412911   300.32278591
 H    109 107  88     1.087304632106   110.47670808   180.16047290
 H    109 107  88     1.087717152618   110.38417756    60.00753357
 H    110 108  83     1.087286081719   110.87996182   300.42166748
 H    110 108  83     1.087573248384   109.54213552   181.04031379
 H    110 108  83     1.087144098039   110.94572053    61.66065097
 H    111  93  92     1.091723636732   109.92509455   330.17518341
 H    111  93  92     1.091889000723   109.86372886   211.12784554
 H    112 111  93     1.087834796695   110.32488183   300.00074974
 H    112 111  93     1.087505384171   110.50501682   179.82360295
 H    112 111  93     1.087747971959   110.35886877    59.61840003
 H    113  98  97     1.091783671979   109.89270394   152.34511794
 H    113  98  97     1.091879098435   109.84519822    33.34721433
 H    114 113  98     1.087765406740   110.32585115   300.14743677
 H    114 113  98     1.087473873617   110.52157299   179.97747531
 H    114 113  98     1.087687694929   110.34306936    59.77734064

---------------------------
INTERNAL COORDINATES (A.U.)
---------------------------
 C      0   0   0     0.000000000000     0.00000000     0.00000000
 C      1   0   0     2.691280441313     0.00000000     0.00000000
 C      2   1   0     2.595592712790   120.77539398     0.00000000
 C      3   2   1     2.635395111759   117.75864143     0.55897641
 C      4   3   2     2.678837944197   121.54051275   359.87554471
 C      5   4   3     2.589963837168   120.92980514   359.20988833
 C      1   2   3     2.693222667526   110.11218918   174.95300508
 C      7   1   2     2.755177868937   107.37165916     1.30277921
 C      2   1   3     2.844448629475   110.72885178   177.02955935
 S      7   1   2     3.230038514982   125.35556656   214.63236395
 C     10   7   1     3.283591562008   101.46400209   136.26440793
 C     11  10   7     2.826349519929   118.46983337   355.84505020
 C      4   3   2     2.691228469916   131.24342072   179.99885228
 C     13   4   3     2.626635723880   110.64969312   178.58331714
 C     14  13   4     2.849649941720   110.42428857     1.22651322
 S     13   4   3     3.244924922703   136.75959036   357.34168224
 C     16  13   4     3.304996992109    90.16654952   181.33858980
 C     14  13   4     2.621585658188   113.00040347   178.95355257
 C     11  10   7     2.640368448767   117.78992048   168.57259465
 C      9   2   1     2.834987235620   110.39676331   241.94967079
 C      9   2   1     2.926024053131   126.08468501    95.76344691
 C     15  14  13     2.866495859877   114.25590800   244.26164110
 C     15  14  13     2.866414956776   107.75424335   119.04666111
 C     17  16  13     2.699918797561   119.94216278   179.09955472
 C     19  11  10     2.706137367467   120.95134466     0.45859672
 C     25  19  11     2.715540998003   122.36100241   183.13138285
 C     26  25  19     2.680705951693   120.80258449   358.72198702
 C     27  26  25     2.648675970266   115.26727069   355.84669616
 C     28  27  26     2.601084161030   124.02944016     5.97725030
 C     24  17  16     2.683811466293   120.54253984   358.31142825
 C     30  24  17     2.713077372069   121.57456197   180.24414521
 C     31  30  24     2.677992640078   120.58792892   358.91204488
 C     32  31  30     2.623987660086   116.14333385     3.59834976
 C     33  32  31     2.628885332640   123.19210787   356.04262625
 N     25  19  11     2.502615543291   125.34718804     4.74072770
 S     35  25  19     3.063965360419   109.01180133   177.74926858
 N     26  25  19     2.515498522362   111.65299214   182.60179691
 N     30  24  17     2.513698616813   126.34712252   357.96387576
 S     38  30  24     3.040909644510   108.78060737   182.86726261
 N     31  30  24     2.516093797625   111.80505588   176.13665580
 C     27  26  25     2.690346664446   123.75329081   180.67351314
 C     41  27  26     2.569897232555   129.05478091   329.11624614
 C     32  31  30     2.717144540151   122.07504186   180.72492591
 C     43  32  31     2.555388331404   126.28992758    37.02137666
 C     42  41  27     2.737831848824   132.34385153   346.89159772
 C     45  42  41     2.676562113734   106.42641446   174.79681513
 C     46  45  42     2.651612045217   113.31690402     2.54130580
 C     47  46  45     2.817639012704   106.10293289     0.85188438
 C     44  43  32     2.751751492136   125.64894176   190.53597637
 C     49  44  43     2.667678342859   106.68286896   177.03277094
 C     50  49  44     2.651551802615   113.25515767     2.41813298
 C     51  50  49     2.817909139607   106.45672314     1.49220807
 C     45  42  41     2.613178960020   136.26239183   348.20258740
 C     53  45  42     2.648818028432   119.63930941   182.43409080
 C     54  53  45     2.620676461829   122.75378589     1.69457085
 C     46  45  42     2.625224854368   123.84898895   179.21102608
 C     56  46  45     2.657112816746   117.74293275   181.02511603
 C     57  56  46     2.619175206021   119.52931335     1.09229718
 C     47  46  45     2.602471830540   119.06063771   178.82855452
 C     55  54  53     2.768341453539   123.20327047   180.05846026
 N     60  55  54     2.636050769589   116.02440617   182.27586371
 C     61  60  55     2.628117298460   127.58746663     2.24377975
 C     61  60  55     2.755954167440   115.54573200   181.06857026
 C     63  61  60     2.898991904493   112.46514269    77.61498456
 C     64  63  61     2.884073976796   111.04511958    58.00443323
 C     64  63  61     2.883579058789   108.91189767   180.07149700
 C     51  50  49     2.602379542738   118.77148496   180.21408153
 C     67  51  50     2.655759521235   118.87434406     0.49250408
 C     68  67  51     2.618604293411   122.16076185   359.61693303
 C     50  49  44     2.625248954432   123.61446111   182.86091316
 C     70  50  49     2.657950410224   117.80205574   359.63890520
 C     71  70  50     2.619910276633   118.92217613   359.94282450
 C     49  44  43     2.607853570601   135.56178828     0.12288669
 C     71  70  50     2.776400938105   118.11385746   179.58238448
 N     74  71  70     2.636459105004   115.77755769     0.67602795
 C     75  74  71     2.626286783343   127.69237962   358.55771112
 C     75  74  71     2.757457318092   116.77873434   179.34250343
 C     77  75  74     2.898795532394   112.57020189   256.50183375
 C     78  77  75     2.883868373901   111.04672837    58.27351296
 C     78  77  75     2.883626624209   108.85182966   180.33107956
 C     21   9   2     2.852494614504    93.57931882   293.78651789
 C      8   7   1     2.941218083358   119.47178717   175.79907123
 C     82   8   7     2.855719806748   126.41554362   181.87731747
 C     83  82   8     2.543134889919   124.39419814   330.15083043
 C     21   9   2     2.551223944750   116.93538077   158.75740613
 C     20   9   2     2.625116776491   120.57327312   279.09186889
 C     86  20   9     2.610298111753   120.35097844   179.96301331
 C     87  86  20     2.625798472288   120.86754774   359.88259663
 C     88  87  86     2.623198258128   118.47616090   359.90260250
 C     89  88  87     2.613110657794   120.89813440     0.00000000
 C     22  15  14     2.621878692766   121.22791569    20.34098753
 C     91  22  15     2.613821115425   120.45671449   176.92522408
 C     92  91  22     2.622897190572   120.97832465   359.64030158
 C     93  92  91     2.625250238873   118.33388057     0.02875213
 C     94  93  92     2.610384535271   120.91961404     0.10851848
 C     23  15  14     2.621568034549   121.73737663   266.14487941
 C     96  23  15     2.613847881459   120.36860272   177.72741405
 C     97  96  23     2.623013821718   121.05980061   359.42885395
 C     98  97  96     2.625098751651   118.32223819   359.78278527
 C     99  98  97     2.610359150874   120.86072880     0.23938295
 O     60  55  54     2.296788322187   123.58961317     1.87550764
 O     62  61  60     2.294956895534   121.22339892   177.11769076
 O     48  47  46     2.289639054311   127.55915861   176.72947905
 O     52  51  50     2.285098139063   126.58898268   169.24655093
 O     74  71  70     2.293486343963   123.11706429   181.28267194
 O     76  75  74     2.293691714105   120.76964123   181.82368502
 C     88  87  86     2.837044100701   120.63245101   177.43822045
 C     83  82   8     2.845825775856   111.48482184   159.34090821
 C    107  88  87     2.891756671416   110.36188554   272.98636332
 C    108  83  82     2.877052140005   115.74896342   170.03057524
 C     93  92  91     2.837198951527   120.95033964   182.54094602
 C    111  93  92     2.891707531135   110.27110183    90.70512914
 C     98  97  96     2.837276312476   120.77720330   177.49821022
 C    113  98  97     2.891742369618   110.32992223   272.87573341
 H      3   2   1     2.037530221144   121.96545136   181.02719169
 H      6   5   4     2.038524021514   122.11056308   181.01756640
 H     12  11  10     2.053219128785   112.02004104   186.21971412
 H     18  14  13     2.030146424354   124.35738038   180.29331776
 H     28  27  26     2.042336400501   117.57680216   183.24594914
 H     29  28  27     2.037812298150   117.72304993   178.14111099
 H     33  32  31     2.042384718690   118.34848194   178.60723490
 H     34  33  32     2.038152712480   118.29866114   181.84656305
 H     41  27  26     2.052442273752   115.79019678   147.81737591
 H     43  32  31     2.050415272270   115.70628986   217.67157191
 H     53  45  42     2.037436627811   121.50606440     1.00755183
 H     54  53  45     2.042040073242   119.46186709   181.33882377
 H     58  57  56     2.041360626627   118.06814014   179.61484112
 H     59  47  46     2.039574273083   121.06056704   180.55656371
 H     63  61  60     2.064975096084   107.75495978   316.94705418
 H     63  61  60     2.062170413309   107.20159391   198.64835646
 H     64  63  61     2.068791616993   108.16961440   298.24419994
 H     65  64  63     2.055646367077   110.37796336    56.22500054
 H     65  64  63     2.056995921443   111.06539616   296.16424915
 H     65  64  63     2.055599710272   110.27371001   176.34765219
 H     66  64  63     2.055998993682   110.33090268   297.82367583
 H     66  64  63     2.054766074712   110.35141159   178.00228963
 H     66  64  63     2.054898959913   110.65819616    58.02637986
 H     67  51  50     2.039574010538   121.07999071   180.13149387
 H     68  67  51     2.041450688095   119.81362384   179.57279284
 H     72  71  70     2.041607002144   117.87955949   180.08276053
 H     73  49  44     2.040166611984   121.51010126   356.65090677
 H     77  75  74     2.064822749421   107.72924138   135.76356334
 H     77  75  74     2.062102229875   107.14819689    17.52262071
 H     78  77  75     2.068620777862   108.22949908   298.47474048
 H     79  78  77     2.055628618569   110.37529362    56.38077173
 H     79  78  77     2.057167492923   111.11385756   296.27789633
 H     79  78  77     2.055220027319   110.24312244   176.46878795
 H     80  78  77     2.056002247501   110.36659678   297.84299102
 H     80  78  77     2.054417442415   110.30729866   178.02795171
 H     80  78  77     2.054682858960   110.67564106    58.09240705
 H     81  21   9     2.059226540728   113.09706839    87.60613022
 H     82   8   7     2.063707969700   112.22750633   321.50079253
 H     84  83  82     2.036396703802   121.02590150   185.44948459
 H     85  21   9     2.046157245822   119.22088900   301.74039735
 H     86  20   9     2.041056028214   119.67634853   359.16584450
 H     87  86  20     2.042161878392   119.61809315   179.79494006
 H     89  88  87     2.042371587840   119.54107430   180.05293196
 H     90  89  88     2.041338315404   119.98111535   180.34203067
 H     91  22  15     2.041439007082   119.92263167   356.82250750
 H     92  91  22     2.042464223587   119.44937455   179.64505290
 H     94  93  92     2.042267836844   119.54754908   180.03650550
 H     95  94  93     2.041742602137   119.71615243   179.32181327
 H     96  23  15     2.041461357876   119.98968825   357.63836950
 H     97  96  23     2.042398632682   119.41311488   179.67490906
 H     99  98  97     2.042486079295   119.55259890   180.37618228
 H    100  99  98     2.042058600098   119.85063591   179.75888147
 H    107  88  87     2.062843235630   109.85880887   152.45689392
 H    107  88  87     2.063086860122   109.82336050    33.47982712
 H    108  83  82     2.071038545721   108.34434080    47.39759831
 H    108  83  82     2.070252151805   107.77639194   292.29118836
 H    109 107  88     2.055727269751   110.36412911   300.32278591
 H    109 107  88     2.054707978825   110.47670808   180.16047290
 H    109 107  88     2.055487529617   110.38417756    60.00753357
 H    110 108  83     2.054672923673   110.87996182   300.42166748
 H    110 108  83     2.055215590024   109.54213552   181.04031379
 H    110 108  83     2.054404613402   110.94572053    61.66065097
 H    111  93  92     2.063058687353   109.92509455   330.17518341
 H    111  93  92     2.063371180008   109.86372886   211.12784554
 H    112 111  93     2.055709844703   110.32488183   300.00074974
 H    112 111  93     2.055087345247   110.50501682   179.82360295
 H    112 111  93     2.055545769730   110.35886877    59.61840003
 H    113  98  97     2.063172137527   109.89270394   152.34511794
 H    113  98  97     2.063352467396   109.84519822    33.34721433
 H    114 113  98     2.055578716692   110.32585115   300.14743677
 H    114 113  98     2.055027798931   110.52157299   179.97747531
 H    114 113  98     2.055431862652   110.34306936    59.77734064

---------------------
BASIS SET INFORMATION
---------------------
There are 5 groups of distinct atoms

 Group   1 Type C   : 7s4p1d contracted to 3s2p1d pattern {511/31/1}
 Group   2 Type S   : 10s7p1d contracted to 4s3p1d pattern {5311/511/1}
 Group   3 Type N   : 7s4p1d contracted to 3s2p1d pattern {511/31/1}
 Group   4 Type O   : 7s4p1d contracted to 3s2p1d pattern {511/31/1}
 Group   5 Type H   : 4s1p contracted to 2s1p pattern {31/1}

Atom   0C    basis set group =>   1
Atom   1C    basis set group =>   1
Atom   2C    basis set group =>   1
Atom   3C    basis set group =>   1
Atom   4C    basis set group =>   1
Atom   5C    basis set group =>   1
Atom   6C    basis set group =>   1
Atom   7C    basis set group =>   1
Atom   8C    basis set group =>   1
Atom   9S    basis set group =>   2
Atom  10C    basis set group =>   1
Atom  11C    basis set group =>   1
Atom  12C    basis set group =>   1
Atom  13C    basis set group =>   1
Atom  14C    basis set group =>   1
Atom  15S    basis set group =>   2
Atom  16C    basis set group =>   1
Atom  17C    basis set group =>   1
Atom  18C    basis set group =>   1
Atom  19C    basis set group =>   1
Atom  20C    basis set group =>   1
Atom  21C    basis set group =>   1
Atom  22C    basis set group =>   1
Atom  23C    basis set group =>   1
Atom  24C    basis set group =>   1
Atom  25C    basis set group =>   1
Atom  26C    basis set group =>   1
Atom  27C    basis set group =>   1
Atom  28C    basis set group =>   1
Atom  29C    basis set group =>   1
Atom  30C    basis set group =>   1
Atom  31C    basis set group =>   1
Atom  32C    basis set group =>   1
Atom  33C    basis set group =>   1
Atom  34N    basis set group =>   3
Atom  35S    basis set group =>   2
Atom  36N    basis set group =>   3
Atom  37N    basis set group =>   3
Atom  38S    basis set group =>   2
Atom  39N    basis set group =>   3
Atom  40C    basis set group =>   1
Atom  41C    basis set group =>   1
Atom  42C    basis set group =>   1
Atom  43C    basis set group =>   1
Atom  44C    basis set group =>   1
Atom  45C    basis set group =>   1
Atom  46C    basis set group =>   1
Atom  47C    basis set group =>   1
Atom  48C    basis set group =>   1
Atom  49C    basis set group =>   1
Atom  50C    basis set group =>   1
Atom  51C    basis set group =>   1
Atom  52C    basis set group =>   1
Atom  53C    basis set group =>   1
Atom  54C    basis set group =>   1
Atom  55C    basis set group =>   1
Atom  56C    basis set group =>   1
Atom  57C    basis set group =>   1
Atom  58C    basis set group =>   1
Atom  59C    basis set group =>   1
Atom  60N    basis set group =>   3
Atom  61C    basis set group =>   1
Atom  62C    basis set group =>   1
Atom  63C    basis set group =>   1
Atom  64C    basis set group =>   1
Atom  65C    basis set group =>   1
Atom  66C    basis set group =>   1
Atom  67C    basis set group =>   1
Atom  68C    basis set group =>   1
Atom  69C    basis set group =>   1
Atom  70C    basis set group =>   1
Atom  71C    basis set group =>   1
Atom  72C    basis set group =>   1
Atom  73C    basis set group =>   1
Atom  74N    basis set group =>   3
Atom  75C    basis set group =>   1
Atom  76C    basis set group =>   1
Atom  77C    basis set group =>   1
Atom  78C    basis set group =>   1
Atom  79C    basis set group =>   1
Atom  80C    basis set group =>   1
Atom  81C    basis set group =>   1
Atom  82C    basis set group =>   1
Atom  83C    basis set group =>   1
Atom  84C    basis set group =>   1
Atom  85C    basis set group =>   1
Atom  86C    basis set group =>   1
Atom  87C    basis set group =>   1
Atom  88C    basis set group =>   1
Atom  89C    basis set group =>   1
Atom  90C    basis set group =>   1
Atom  91C    basis set group =>   1
Atom  92C    basis set group =>   1
Atom  93C    basis set group =>   1
Atom  94C    basis set group =>   1
Atom  95C    basis set group =>   1
Atom  96C    basis set group =>   1
Atom  97C    basis set group =>   1
Atom  98C    basis set group =>   1
Atom  99C    basis set group =>   1
Atom 100O    basis set group =>   4
Atom 101O    basis set group =>   4
Atom 102O    basis set group =>   4
Atom 103O    basis set group =>   4
Atom 104O    basis set group =>   4
Atom 105O    basis set group =>   4
Atom 106C    basis set group =>   1
Atom 107C    basis set group =>   1
Atom 108C    basis set group =>   1
Atom 109C    basis set group =>   1
Atom 110C    basis set group =>   1
Atom 111C    basis set group =>   1
Atom 112C    basis set group =>   1
Atom 113C    basis set group =>   1
Atom 114H    basis set group =>   5
Atom 115H    basis set group =>   5
Atom 116H    basis set group =>   5
Atom 117H    basis set group =>   5
Atom 118H    basis set group =>   5
Atom 119H    basis set group =>   5
Atom 120H    basis set group =>   5
Atom 121H    basis set group =>   5
Atom 122H    basis set group =>   5
Atom 123H    basis set group =>   5
Atom 124H    basis set group =>   5
Atom 125H    basis set group =>   5
Atom 126H    basis set group =>   5
Atom 127H    basis set group =>   5
Atom 128H    basis set group =>   5
Atom 129H    basis set group =>   5
Atom 130H    basis set group =>   5
Atom 131H    basis set group =>   5
Atom 132H    basis set group =>   5
Atom 133H    basis set group =>   5
Atom 134H    basis set group =>   5
Atom 135H    basis set group =>   5
Atom 136H    basis set group =>   5
Atom 137H    basis set group =>   5
Atom 138H    basis set group =>   5
Atom 139H    basis set group =>   5
Atom 140H    basis set group =>   5
Atom 141H    basis set group =>   5
Atom 142H    basis set group =>   5
Atom 143H    basis set group =>   5
Atom 144H    basis set group =>   5
Atom 145H    basis set group =>   5
Atom 146H    basis set group =>   5
Atom 147H    basis set group =>   5
Atom 148H    basis set group =>   5
Atom 149H    basis set group =>   5
Atom 150H    basis set group =>   5
Atom 151H    basis set group =>   5
Atom 152H    basis set group =>   5
Atom 153H    basis set group =>   5
Atom 154H    basis set group =>   5
Atom 155H    basis set group =>   5
Atom 156H    basis set group =>   5
Atom 157H    basis set group =>   5
Atom 158H    basis set group =>   5
Atom 159H    basis set group =>   5
Atom 160H    basis set group =>   5
Atom 161H    basis set group =>   5
Atom 162H    basis set group =>   5
Atom 163H    basis set group =>   5
Atom 164H    basis set group =>   5
Atom 165H    basis set group =>   5
Atom 166H    basis set group =>   5
Atom 167H    basis set group =>   5
Atom 168H    basis set group =>   5
Atom 169H    basis set group =>   5
Atom 170H    basis set group =>   5
Atom 171H    basis set group =>   5
Atom 172H    basis set group =>   5
Atom 173H    basis set group =>   5
Atom 174H    basis set group =>   5
Atom 175H    basis set group =>   5
Atom 176H    basis set group =>   5
Atom 177H    basis set group =>   5
Atom 178H    basis set group =>   5
Atom 179H    basis set group =>   5
Atom 180H    basis set group =>   5
Atom 181H    basis set group =>   5
Atom 182H    basis set group =>   5
Atom 183H    basis set group =>   5
Atom 184H    basis set group =>   5
Atom 185H    basis set group =>   5
------------------------------------------------------------------------------
                           ORCA GTO INTEGRAL CALCULATION
------------------------------------------------------------------------------

                         BASIS SET STATISTICS AND STARTUP INFO

 # of primitive gaussian shells          ... 1752
 # of primitive gaussian functions       ... 3288
 # of contracted shells                  ...  908
 # of contracted basis functions         ... 1972
 Highest angular momentum                ...    2
 Maximum contraction depth               ...    5
 Integral package used                   ... LIBINT
 Integral threshhold            Thresh   ...  2.500e-11
 Primitive cut-off              TCut     ...  2.500e-12


------------------------------ INTEGRAL EVALUATION ----------------------------


 * One electron integrals 
 Pre-screening matrix                    ... done
 Shell pair data                         ... done (   0.034 sec)

-------------------------------------------------------------------------------
                                 ORCA SCF
-------------------------------------------------------------------------------

------------
SCF SETTINGS
------------
Hamiltonian:
 Ab initio Hamiltonian  Method          .... Hartree-Fock(GTOs)


General Settings:
 Integral files         IntName         .... NIBT
 Hartree-Fock type      HFTyp           .... RHF
 Total Charge           Charge          ....    0
 Multiplicity           Mult            ....    1
 Number of Electrons    NEL             ....  814
 Basis Dimension        Dim             .... 1972
 Nuclear Repulsion      ENuc            ....  21407.0400909663 Eh

Convergence Acceleration:
 DIIS                   CNVDIIS         .... on
   Start iteration      DIISMaxIt       ....    12
   Startup error        DIISStart       ....  0.200000
   # of expansion vecs  DIISMaxEq       ....     5
   Bias factor          DIISBfac        ....   1.050
   Max. coefficient     DIISMaxC        ....  10.000
 Newton-Raphson         CNVNR           .... off
 SOSCF                  CNVSOSCF        .... on
   Start iteration      SOSCFMaxIt      ....   150
   Startup grad/error   SOSCFStart      ....  0.003300
 Level Shifting         CNVShift        .... on
   Level shift para.    LevelShift      ....    0.2500
   Turn off err/grad.   ShiftErr        ....    0.0010
 Zerner damping         CNVZerner       .... off
 Static damping         CNVDamp         .... on
   Fraction old density DampFac         ....    0.7000
   Max. Damping (<1)    DampMax         ....    0.9800
   Min. Damping (>=0)   DampMin         ....    0.0000
   Turn off err/grad.   DampErr         ....    0.1000
 Fernandez-Rico         CNVRico         .... off

SCF Procedure:
 Maximum # iterations   MaxIter         ....   125
 SCF integral mode      SCFMode         .... Direct
   Integral package                     .... LIBINT
 Reset frequency        DirectResetFreq ....    20
 Integral Threshold     Thresh          ....  2.500e-11 Eh
 Primitive CutOff       TCut            ....  2.500e-12 Eh

Convergence Tolerance:
 Convergence Check Mode ConvCheckMode   .... Total+1el-Energy
 Convergence forced     ConvForced      .... 1
 Energy Change          TolE            ....  1.000e-08 Eh
 1-El. energy change                    ....  1.000e-05 Eh
 Orbital Gradient       TolG            ....  1.000e-05
 Orbital Rotation angle TolX            ....  1.000e-05
 DIIS Error             TolErr          ....  5.000e-07


Diagonalization of the overlap matrix:
Smallest eigenvalue                        ... 1.590e-04
Time for diagonalization                   ...    1.323 sec
Threshold for overlap eigenvalues          ... 1.000e-08
Number of eigenvalues below threshold      ... 0
Time for construction of square roots      ...    0.506 sec
Total time needed                          ...    1.839 sec

-------------------
DFT GRID GENERATION
-------------------

General Integration Accuracy     IntAcc      ...  4.340
Radial Grid Type                 RadialGrid  ... Gauss-Chebyshev
Angular Grid (max. acc.)         AngularGrid ... Lebedev-110
Angular grid pruning method      GridPruning ... 3 (G Style)
Weight generation scheme         WeightScheme... Becke
Basis function cutoff            BFCut       ...    1.0000e-11
Integration weight cutoff        WCut        ...    1.0000e-14
Grids for H and He will be reduced by one unit

# of grid points (after initial pruning)     ... 247188 (   0.6 sec)
# of grid points (after weights+screening)   ... 212634 (  17.1 sec)
nearest neighbour list constructed           ...    0.0 sec
Grid point re-assignment to atoms done       ...    0.0 sec
Grid point division into batches done        ...    0.2 sec
Reduced shell lists constructed in    4.2 sec

Total number of grid points                  ...   212634
Total number of batches                      ...     3420
Average number of points per batch           ...       62
Average number of grid points per atom       ...     1143
Average number of shells per batch           ...   124.71 (13.73%)
Average number of basis functions per batch  ...   252.87 (12.82%)
Average number of large shells per batch     ...    73.02 (58.55%)
Average number of large basis fcns per batch ...   150.94 (59.69%)
Maximum spatial batch extension              ...  20.85, 20.05, 24.04 au
Average spatial batch extension              ...   3.14,  2.96,  3.25 au

Time for grid setup =   21.851 sec

------------------------------
INITIAL GUESS: MODEL POTENTIAL
------------------------------
Loading Hartree-Fock densities                     ... done
Calculating cut-offs                               ... done
Setting up the integral package                    ... done
Initializing the effective Hamiltonian             ... done
Starting the Coulomb interaction                   ... done (  27.8 sec)
Reading the grid                                   ... done
Mapping shells                                     ... done
Starting the XC term evaluation                    ... done (   3.9 sec)
Transforming the Hamiltonian                       ... done (   0.5 sec)
Diagonalizing the Hamiltonian                      ... done (   1.4 sec)
Back transforming the eigenvectors                 ... done (   0.2 sec)
Now organizing SCF variables                       ... done
                      ------------------
                      INITIAL GUESS DONE (  56.3 sec)
                      ------------------
--------------
SCF ITERATIONS
--------------
ITER       Energy         Delta-E        Max-DP      RMS-DP      [F,P]     Damp
               ***  Starting incremental Fock matrix formation  ***
  0  -6111.0576168020   0.000000000000 0.34876226  0.00120340  0.2426279 0.7000
  1  -6112.3584431681  -1.300826366169 0.26729113  0.00092836  0.1463994 0.7000
                               ***Turning on DIIS***
  2  -6113.1538993825  -0.795456214393 0.62922855  0.00216750  0.0818104 0.0000
  3  -6108.1876457206   4.966253661951 0.11284104  0.00045783  0.0606582 0.0000
  4  -6115.1410843210  -6.953438600456 0.07596428  0.00017992  0.0100195 0.0000
  5  -6114.9896912327   0.151393088327 0.02027849  0.00008600  0.0074995 0.0000
  6  -6114.7715747280   0.218116504748 0.02071704  0.00005682  0.0041840 0.0000
  7  -6114.9002717518  -0.128697023847 0.01269754  0.00004188  0.0033365 0.0000
  8  -6114.8729334458   0.027338306027 0.01121070  0.00003937  0.0026119 0.0000
  9  -6114.8524335614   0.020499884391 0.00625557  0.00002661  0.0024232 0.0000
 10  -6114.8672002791  -0.014766717690 0.00662434  0.00002207  0.0016818 0.0000
 11  -6114.8718910552  -0.004690776081 0.00442664  0.00001888  0.0015849 0.0000
 12  -6114.8709594384   0.000931616760 0.00476693  0.00001735  0.0011770 0.0000
                      *** Initiating the SOSCF procedure ***
                           *** Shutting down DIIS ***
                      *** Re-Reading the Fockian *** 
                      *** Removing any level shift *** 
ITER      Energy       Delta-E        Grad      Rot      Max-DP    RMS-DP
 13  -6114.87288535  -0.0019259131  0.003169  0.003169  0.006529  0.000028
               *** Restarting incremental Fock matrix formation ***
 14  -6114.86268828   0.0101970752  0.000605  0.003479  0.004844  0.000012
 15  -6114.86271759  -0.0000293126  0.000796  0.011585  0.004768  0.000022
 16  -6114.86276758  -0.0000499922  0.000308  0.008550  0.004016  0.000017
 17  -6114.86278397  -0.0000163935  0.000104  0.000510  0.000623  0.000003
 18  -6114.86278588  -0.0000019074  0.000053  0.000545  0.000208  0.000001
 19  -6114.86278659  -0.0000007101  0.000021  0.000207  0.000128  0.000001
 20  -6114.86278671  -0.0000001163  0.000011  0.000078  0.000042  0.000000
 21  -6114.86278675  -0.0000000413  0.000007  0.000085  0.000034  0.000000
                  ***Gradient check signals convergence***
              ***Rediagonalizing the Fockian in SOSCF/NRSCF***

               *****************************************************
               *                     SUCCESS                       *
               *           SCF CONVERGED AFTER  22 CYCLES          *
[...]
Calculating the Linear Momentum integrals         ... done
Transforming integrals                            ... done
Calculating angular momentum integrals            ... done
Transforming integrals                            ... done

-----------------------------------------------------------------------------
         ABSORPTION SPECTRUM VIA TRANSITION ELECTRIC DIPOLE MOMENTS
-----------------------------------------------------------------------------
State   Energy    Wavelength  fosc         T2        TX        TY        TZ  
        (cm-1)      (nm)                 (au**2)    (au)      (au)      (au) 
-----------------------------------------------------------------------------
   1   13408.0    745.8   1.526089119  37.47057  -4.17652  -4.23195  -1.45528
   2   23803.1    420.1   1.416437543  19.59021   3.78310   2.19021  -0.69377
   3   27505.8    363.6   0.552860569   6.61709   0.81478   2.43927   0.05623

-----------------------------------------------------------------------------
         ABSORPTION SPECTRUM VIA TRANSITION VELOCITY DIPOLE MOMENTS
-----------------------------------------------------------------------------
State   Energy    Wavelength   fosc        P2         PX        PY        PZ  
        (cm-1)      (nm)                 (au**2)     (au)      (au)      (au) 
-----------------------------------------------------------------------------
   1   13408.0    745.8   0.814814952   0.07467   0.14273   0.22671  -0.05383
   2   23803.1    420.1   1.109042946   0.18042  -0.33901  -0.25313   0.03767
   3   27505.8    363.6   0.543912228   0.10225  -0.17549  -0.24490  -0.10712

-------------------------------------------------------------------
                             CD SPECTRUM
-------------------------------------------------------------------
State  Energy     Wavelength     R         MX        MY        MZ   
       (cm-1)       (nm)     (1e40*cgs)   (au)      (au)      (au)  
-------------------------------------------------------------------
   1   13408.0    745.8    175.69901   0.46340  -0.16889  -1.09488
   2   23803.1    420.1    922.83159   0.50926  -0.50135  -1.62719
   3   27505.8    363.6    -537.41161  -0.56317  -0.32262   1.88354

Total run time:    80496.521 sec

           *** ORCA-CIS/TD-DFT FINISHED WITHOUT ERROR ***

-----------------------
CIS/TD-DFT TOTAL ENERGY
-----------------------

    E(SCF)  =  -6114.862786800 Eh
    DE(CIS) =      0.061091509 Eh (Root  1)
    ----------------------------- ---------
    E(tot)  =  -6114.801695291 Eh


-------------------------   --------------------
FINAL SINGLE POINT ENERGY     -6114.801695290848
-------------------------   --------------------

------------------------------------------------------------------------------
                         ORCA SCF GRADIENT CALCULATION
------------------------------------------------------------------------------


------------
CIS GRADIENT
------------

Reference wavefunction             ... RHF
State of interest                  ... 1
Basis dimension                    ... 1972
DFT-XC contribution needed         ... NO
RI-approximation                   ... OFF
CIS-vectors being read from        ... NIBT.cis

 => Number of Vectors found: 3
 => Orbital Window: 130...406 -> 407...1971

Reading the CIS file                     ... done
Norm of the CI vector                    ... 1.000000000
Making the CIS (pseudo)densities         ... done
Making operators G(D) and Q(T)           ... done
Transforming the Fock operators          ... done
Making the frozen-core relaxed density   ... done
Constructing the G(H) operator           ... done
Transforming the G(H) operator           ... done
Calculating the CIS Lagrangian           ... done
Solving the Z-vector equations           ... done
Finalizing the relaxed density           ... done
Storing the relaxed density              ... done
Constructing the G(Z) operator           ... done
Transforming the G(Z) operator           ... done
Making the W-matrix                      ... done
Finalizing the W-matrix                  ... done
Transforming the W-matrix                ... done
Nuclear repulsion gradient               ... done
One-Electron gradient                    ... done
Prescreening matrices                    ... done
Two-Electron gradient (4-center)         ... done
                 ---------------------------
                 EXCITED STATE GRADIENT DONE
                 ---------------------------


------------------
CARTESIAN GRADIENT
------------------

   1   C   :   -0.007645768   -0.000760145    0.001127057
   2   C   :    0.006670484   -0.003276239   -0.003504127
   3   C   :   -0.000326757   -0.002179628   -0.001256844
   4   C   :   -0.009472773   -0.006710338    0.000906798
   5   C   :   -0.008889836    0.004669835    0.001913094
   6   C   :    0.007670520    0.001798237   -0.002334728
   7   C   :    0.002798516    0.001614641    0.000975407
   8   C   :    0.005655648    0.003537088   -0.012001354
   9   C   :   -0.003131798    0.002506514    0.007568175
  10   S   :    0.011678854    0.007676829    0.014602110
  11   C   :    0.006309734   -0.005607961   -0.000540500
  12   C   :   -0.008025710    0.002801787   -0.005506554
  13   C   :    0.027932328   -0.008338901   -0.005064707
  14   C   :   -0.026340758    0.021076712    0.003788126
  15   C   :    0.002144937   -0.002152404   -0.000356519
  16   S   :   -0.013776408   -0.016908572   -0.000262534
  17   C   :   -0.015057514   -0.014553295   -0.000112579
  18   C   :    0.009261014    0.017436472    0.000731742
  19   C   :   -0.002768851    0.010299978   -0.003183705
  20   C   :   -0.001033644   -0.001447377    0.004935652
  21   C   :   -0.022878595    0.015084055   -0.008843466
  22   C   :    0.002374456   -0.000160962   -0.005427614
  23   C   :   -0.000814171   -0.002298124    0.005147812
  24   C   :    0.026826173   -0.012005666   -0.004715430
  25   C   :    0.028631816   -0.027557085    0.006306585
  26   C   :    0.026862321   -0.028796006    0.000091401
  27   C   :   -0.004922905    0.013884370    0.001139162
  28   C   :   -0.005309504   -0.012083003   -0.002851949
  29   C   :    0.002922878    0.011358571    0.003869622
  30   C   :   -0.012045616    0.033624078    0.007528972
  31   C   :   -0.021425044    0.025836600    0.012899175
  32   C   :   -0.001367775   -0.028474547   -0.003266513
  33   C   :    0.016269270    0.030317691    0.000818755
  34   C   :   -0.031481986   -0.005015827    0.002354822
  35   N   :   -0.022672498   -0.002366434   -0.012149585
  36   S   :   -0.006286421    0.010449582   -0.000869680
  37   N   :   -0.009505948    0.023026025   -0.003734111
  38   N   :    0.020323844   -0.001201397   -0.003411676
  39   S   :    0.008988640   -0.016417618   -0.003329652
  40   N   :    0.000236928   -0.019701576    0.000387572
  41   C   :   -0.009730730   -0.016119709   -0.003596851
  42   C   :    0.000456037    0.023596924   -0.008832430
  43   C   :    0.013231669    0.021275941   -0.008870435
  44   C   :   -0.004093747   -0.030242995    0.009929057
  45   C   :    0.002349028   -0.010582514    0.014864323
  46   C   :   -0.001839594   -0.002992772   -0.000838886
  47   C   :    0.001227799   -0.015327868    0.006027239
  48   C   :   -0.025052062    0.014992499   -0.038864631
  49   C   :    0.015876212    0.011344687    0.003012097
  50   C   :   -0.001130985    0.002721850   -0.000999192
  51   C   :    0.007614554    0.014427358   -0.002308401
  52   C   :   -0.041832895   -0.015966609   -0.025973465
  53   C   :   -0.007428250    0.006285665   -0.007135965
  54   C   :   -0.000318892   -0.014857873    0.005197942
  55   C   :    0.001493713    0.011384154   -0.000760405
  56   C   :   -0.000973252    0.005536915   -0.003288923
  57   C   :   -0.004997508    0.004196855   -0.011779736
  58   C   :    0.004674636   -0.009174502    0.011581537
  59   C   :   -0.000907691    0.015367031   -0.005887102
  60   C   :    0.015082695   -0.000678968    0.033146496
  61   N   :   -0.001650519   -0.002144395    0.002798407
  62   C   :   -0.011243153   -0.035698096   -0.003192433
  63   C   :    0.003271770   -0.005013633    0.007520643
  64   C   :   -0.002935693   -0.002562274   -0.001009130
  65   C   :    0.000858070    0.001748923    0.003034667
  66   C   :    0.000649668    0.005722887   -0.001314886
  67   C   :   -0.006513150   -0.014721058    0.002323480
  68   C   :    0.011682403    0.009119695    0.002393959
  69   C   :   -0.010647846   -0.005189611   -0.003613413
  70   C   :   -0.004503147   -0.005588520    0.000027957
  71   C   :    0.000363163   -0.011704700    0.003851584
  72   C   :    0.006336462    0.016098227   -0.003284421
  73   C   :   -0.012235393   -0.008898600   -0.003415499
  74   C   :    0.031939932    0.003535843    0.017493165
  75   N   :    0.001463432    0.002362938    0.002357894
  76   C   :   -0.005324088    0.034903965   -0.012496296
  77   C   :    0.003443638    0.009169147   -0.001682432
  78   C   :    0.002197734   -0.000738279    0.003288818
  79   C   :   -0.002290583    0.002567519   -0.000864921
  80   C   :   -0.004867950   -0.002695646   -0.001904934
  81   C   :    0.003230589    0.002526045    0.003776536
  82   C   :   -0.002684003   -0.006967741    0.007423509
  83   C   :   -0.003762740    0.008540253   -0.000348414
  84   C   :   -0.006496154   -0.007026768    0.007400772
  85   C   :    0.023362792    0.001736666   -0.017153322
  86   C   :    0.000268752   -0.000719938    0.001836124
  87   C   :    0.001256188    0.000491880   -0.001597824
  88   C   :    0.003247681   -0.003112555    0.001514633
  89   C   :    0.000743195    0.001111121    0.002094729
  90   C   :    0.000820921    0.000408054   -0.002153184
  91   C   :    0.000567532    0.000319974    0.000673303
  92   C   :   -0.000164042   -0.001348795   -0.001644257
  93   C   :    0.004604247    0.000527345   -0.000235969
  94   C   :   -0.000443137   -0.000457692    0.001140352
  95   C   :   -0.000346701   -0.001594491   -0.002127062
  96   C   :   -0.000622293   -0.000246332   -0.000328854
  97   C   :    0.001790425   -0.000154336    0.001634788
  98   C   :    0.001168709    0.003849228    0.001940191
  99   C   :    0.001465903    0.001142159   -0.000734282
 100   C   :    0.001172550   -0.000976852    0.001583746
 101   O   :   -0.018752382   -0.000669349   -0.035383755
 102   O   :    0.011268009    0.038676890    0.005750557
 103   O   :    0.021126439   -0.014388166    0.033699897
 104   O   :    0.040163244    0.020272024    0.014733423
 105   O   :   -0.036112554   -0.002507499   -0.017595477
 106   O   :    0.006844524   -0.037299220    0.015993732
 107   C   :   -0.006413852    0.003350405    0.000898801
 108   C   :   -0.006455281    0.003358476   -0.001322756
 109   C   :    0.004370639   -0.000447703    0.003424164
 110   C   :    0.002305525   -0.004776204    0.001080043
 111   C   :   -0.006446145    0.000116338   -0.002848877
 112   C   :    0.004548168   -0.002121197   -0.001909221
 113   C   :   -0.003071872   -0.006675264    0.000166682
 114   C   :    0.003942119    0.002299842    0.003143504
 115   H   :   -0.000502776    0.001225109    0.000209005
 116   H   :    0.000727912   -0.000855482   -0.000273132
 117   H   :    0.001912605   -0.002880059    0.001605209
 118   H   :    0.003033495   -0.001391670   -0.000148505
 119   H   :   -0.000454739    0.001413341   -0.001092405
 120   H   :   -0.000745424   -0.000874992   -0.000134102
 121   H   :    0.001000316   -0.001124561    0.000621879
 122   H   :    0.000674795   -0.000530600   -0.000118937
 123   H   :    0.000247081   -0.001675653    0.000293884
 124   H   :    0.000251951    0.002018292    0.000898974
 125   H   :    0.000511826   -0.002154881    0.000034766
 126   H   :    0.000181513    0.000104229    0.000547434
 127   H   :   -0.000092811   -0.000488729   -0.000109662
 128   H   :   -0.000767879    0.000066979   -0.001302166
 129   H   :   -0.000696595   -0.002501470   -0.004555714
 130   H   :    0.003027823    0.004576995    0.003668800
 131   H   :   -0.001479343   -0.002646294   -0.000168483
 132   H   :   -0.000172897   -0.001848874   -0.002498117
 133   H   :    0.001228542   -0.000125006   -0.002621566
 134   H   :    0.002877887   -0.000552513   -0.001743760
 135   H   :   -0.001185458   -0.003792895    0.000409217
 136   H   :    0.002382524   -0.002174999    0.001214739
 137   H   :   -0.000063298   -0.001168887    0.003743394
 138   H   :   -0.001215155   -0.000154144   -0.000807949
 139   H   :   -0.000137772    0.000488374   -0.000226337
 140   H   :    0.000512997    0.000087645    0.000330302
 141   H   :    0.000403719   -0.000804927    0.001161237
 142   H   :    0.003392530   -0.003696235    0.000791991
 143   H   :   -0.005023621    0.002752685   -0.003469394
 144   H   :    0.002359405    0.000357438    0.001899606
 145   H   :    0.002388802   -0.001950368    0.000304132
 146   H   :    0.001022807   -0.002311526   -0.001399753
 147   H   :    0.001474130   -0.001132920   -0.002906881
 148   H   :    0.003235506    0.001180702    0.001914044
 149   H   :    0.002123579    0.002067024   -0.001827458
 150   H   :    0.000007458    0.003878764    0.000630551
 151   H   :   -0.000030327    0.000832130    0.001681205
 152   H   :   -0.000474034    0.003218237   -0.000958679
 153   H   :   -0.003150866   -0.000276230   -0.000259780
 154   H   :    0.000753246   -0.003307254    0.005277486
 155   H   :    0.000430041    0.001882050   -0.000769064
 156   H   :    0.000763530    0.001804715   -0.000121902
 157   H   :   -0.000328965   -0.001172625    0.001396349
 158   H   :   -0.000112393   -0.000901446    0.001068482
 159   H   :    0.000018580   -0.000267214   -0.001019033
 160   H   :    0.000570336    0.001052120   -0.001327131
 161   H   :   -0.000232259   -0.001905766    0.000314518
 162   H   :    0.000148720   -0.001155887   -0.001086238
 163   H   :    0.000773906   -0.001009946    0.001151493
 164   H   :   -0.000914972    0.000307407    0.001585151
 165   H   :    0.001595399   -0.000774671   -0.000586375
 166   H   :    0.000888073   -0.001285155    0.000358540
 167   H   :    0.002288532    0.001269176    0.000316268
 168   H   :    0.000939875   -0.001657542    0.001869132
 169   H   :    0.000611200   -0.000875389    0.002288991
 170   H   :    0.000537803   -0.002023676   -0.001649256
 171   H   :   -0.002720306   -0.000392670    0.000060828
 172   H   :   -0.002083102    0.002247769    0.002568343
 173   H   :   -0.001746922    0.001999639   -0.001112857
 174   H   :   -0.002108200    0.001812987   -0.001427057
 175   H   :   -0.002532470    0.000013598    0.000829671
 176   H   :   -0.001343455    0.002502601    0.000771199
 177   H   :    0.001282123   -0.002215492    0.000379546
 178   H   :    0.002123428    0.000758907   -0.001365858
 179   H   :   -0.002029154    0.001642736   -0.000844377
 180   H   :   -0.002090175   -0.001153918   -0.003008161
 181   H   :   -0.002720095   -0.000675775    0.000335873
 182   H   :    0.000021552    0.001543558    0.002067765
 183   H   :    0.002568804    0.000385193   -0.000125648
 184   H   :   -0.000402785   -0.002392660   -0.001525365
 185   H   :    0.000091037   -0.003394993    0.001894551
 186   H   :   -0.002397712   -0.001497364    0.000267622

Difference to translation invariance:
           :   -0.0000000001    0.0000000001   -0.0000000002

Norm of the cartesian gradient     ...    0.2214647339
RMS gradient                       ...    0.0093753498
MAX gradient                       ...    0.0418328954

-------
TIMINGS
-------

Total CIS gradient time            ...    83777.820 sec

Fock matrix formation       ....    5456.324 sec  (  6.5%)
  Coulomb formation         ....    5456.324 sec  (100.0% of F)
Z-vector equation           ....   72355.468 sec  ( 86.4%)
One electron gradient       ....      52.947 sec  (  0.1%)
Prescreening matrices       ....       2.206 sec  (  0.0%)
Two electron gradient       ....    5898.746 sec  (  7.0%)

                            ***************************************
                            *     ORCA property calculations      *
                            ***************************************

                                    ---------------------
                                    Active property flags
                                    ---------------------
   (+) Dipole Moment


------------------------------------------------------------------------------
                       ORCA ELECTRIC PROPERTIES CALCULATION
------------------------------------------------------------------------------

Dipole Moment Calculation                       ... on
Quadrupole Moment Calculation                   ... off
Polarizability Calculation                      ... off
GBWName                                         ... NIBT.gbw
Electron density file                           ... NIBT.scfp
The origin for moment calculation is the CENTER OF MASS  = ( 2.536871,  1.041530 -0.200791)

-------------
DIPOLE MOMENT
-------------
                                X             Y             Z
Electronic contribution:      5.49543     -25.20930      31.99816
Nuclear contribution   :     -9.48475      20.53178     -34.68143
                        -----------------------------------------
Total Dipole Moment    :     -3.98932      -4.67752      -2.68327
                        -----------------------------------------
Magnitude (a.u.)       :      6.70774
Magnitude (Debye)      :     17.04972



--------------------
Rotational spectrum 
--------------------
 
Rotational constants in cm-1:     0.000771     0.000109     0.000104 
Rotational constants in MHz :    23.126838     3.266746     3.115728 

 Dipole components along the rotational axes: 
x,y,z [a.u.] :     6.159638     1.057389     2.436096 
x,y,z [Debye]:    15.656555     2.687669     6.192064 

 

                        *** CIS RELAXED DENSITY ***

------------------------------------------------------------------------------
                       ORCA ELECTRIC PROPERTIES CALCULATION
------------------------------------------------------------------------------

Dipole Moment Calculation                       ... on
Quadrupole Moment Calculation                   ... off
Polarizability Calculation                      ... off
GBWName                                         ... NIBT.gbw
Electron density file                           ... NIBT.cisp
The origin for moment calculation is the CENTER OF MASS  = ( 2.536871,  1.041530 -0.200791)

-------------
DIPOLE MOMENT
-------------
                                X             Y             Z
Electronic contribution:      8.31675     -22.85534      32.91891
Nuclear contribution   :     -9.48475      20.53178     -34.68143
                        -----------------------------------------
Total Dipole Moment    :     -1.16799      -2.32356      -1.76252
                        -----------------------------------------
Magnitude (a.u.)       :      3.14159
Magnitude (Debye)      :      7.98529



--------------------
Rotational spectrum 
--------------------
 
Rotational constants in cm-1:     0.000771     0.000109     0.000104 
Rotational constants in MHz :    23.126838     3.266746     3.115728 

 Dipole components along the rotational axes: 
x,y,z [a.u.] :     2.488156     1.180060     1.511996 
x,y,z [Debye]:     6.324389     2.999474     3.843189 

 

Timings for individual modules:

Sum of individual times         ...   192634.309 sec (=3210.572 min)
GTO integral calculation        ...        3.702 sec (=   0.062 min)   0.0 %
SCF iterations                  ...    28356.127 sec (= 472.602 min)  14.7 %
CIS module                      ...    80496.626 sec (=1341.610 min)  41.8 %
SCF Gradient evaluation         ...    83777.854 sec (=1396.298 min)  43.5 %
                             ****ORCA TERMINATED NORMALLY****
TOTAL RUN TIME: 2 days 5 hours 30 minutes 36 seconds 105 msec
