
                                 *****************
                                 * O   R   C   A *
                                 *****************

           --- An Ab Initio, DFT and Semiempirical electronic structure package ---

                  #######################################################
                  #                        -***-                        #
                  #          Department of theory and spectroscopy      #
                  #               Directorship: Frank Neese             #
                  #        Max Planck Institute fuer Kohlenforschung    #
                  #                Kaiser Wilhelm Platz 1               #
                  #                 D-45470 Muelheim/Ruhr               #
                  #                      Germany                        #
                  #                                                     #
                  #                  All rights reserved                #
                  #                        -***-                        #
                  #######################################################


                         Program Version 4.2.0 -  RELEASE  -


 With contributions from (in alphabetic order):
   Daniel Aravena         : Magnetic Suceptibility
   Michael Atanasov       : Ab Initio Ligand Field Theory (pilot matlab implementation)
   Alexander A. Auer      : GIAO ZORA, VPT2
   Ute Becker             : Parallelization
   Giovanni Bistoni       : ED, misc. LED, open-shell LED, HFLED
   Martin Brehm           : Molecular dynamics
   Dmytro Bykov           : SCF Hessian
   Vijay G. Chilkuri      : MRCI spin determinant printing, contributions to CSF-ICE
   Dipayan Datta          : RHF DLPNO-CCSD density
   Achintya Kumar Dutta   : EOM-CC, STEOM-CC
   Dmitry Ganyushin       : Spin-Orbit,Spin-Spin,Magnetic field MRCI
   Miquel Garcia          : C-PCM Hessian, Gaussian charge scheme
   Yang Guo               : DLPNO-NEVPT2, CIM, IAO-localization
   Andreas Hansen         : Spin unrestricted coupled pair/coupled cluster methods
   Benjamin Helmich-Paris : CASSCF linear response (MC-RPA)
   Lee Huntington         : MR-EOM, pCC
   Robert Izsak           : Overlap fitted RIJCOSX, COSX-SCS-MP3, EOM
   Christian Kollmar      : KDIIS, OOCD, Brueckner-CCSD(T), CCSD density
   Simone Kossmann        : Meta GGA functionals, TD-DFT gradient, OOMP2, MP2 Hessian
   Martin Krupicka        : AUTO-CI
   Lucas Lang             : DCDCAS
   Dagmar Lenk            : GEPOL surface, SMD
   Dimitrios Liakos       : Extrapolation schemes; Compound Job, initial MDCI parallelization
   Dimitrios Manganas     : Further ROCIS development; embedding schemes
   Dimitrios Pantazis     : SARC Basis sets
   Taras Petrenko         : DFT Hessian,TD-DFT gradient, ASA, ECA, R-Raman, ABS, FL, XAS/XES, NRVS
   Peter Pinski           : DLPNO-MP2, DLPNO-MP2 Gradient
   Christoph Reimann      : Effective Core Potentials
   Marius Retegan         : Local ZFS, SOC
   Christoph Riplinger    : Optimizer, TS searches, QM/MM, DLPNO-CCSD(T), (RO)-DLPNO pert. Triples
   Tobias Risthaus        : Range-separated hybrids, TD-DFT gradient, RPA, STAB
   Michael Roemelt        : Original ROCIS implementation
   Masaaki Saitow         : Open-shell DLPNO-CCSD energy and density
   Barbara Sandhoefer     : DKH picture change effects
   Avijit Sen             : IP-ROCIS
   Kantharuban Sivalingam : CASSCF convergence, NEVPT2, FIC-MRCI
   Bernardo de Souza      : ESD, SOC TD-DFT
   Georgi Stoychev        : AutoAux, RI-MP2 NMR
   Willem Van den Heuvel  : Paramagnetic NMR
   Boris Wezisla          : Elementary symmetry handling
   Frank Wennmohs         : Technical directorship


 We gratefully acknowledge several colleagues who have allowed us to
 interface, adapt or use parts of their codes:
   Stefan Grimme, W. Hujo, H. Kruse,             : VdW corrections, initial TS optimization,
                  C. Bannwarth                     DFT functionals, gCP, sTDA/sTD-DF
   Ed Valeev, F. Pavosevic, A. Kumar             : LibInt (2-el integral package), F12 methods
   Garnet Chan, S. Sharma, J. Yang, R. Olivares  : DMRG
   Ulf Ekstrom                                   : XCFun DFT Library
   Mihaly Kallay                                 : mrcc  (arbitrary order and MRCC methods)
   Andreas Klamt, Michael Diedenhofen            : otool_cosmo (COSMO solvation model)
   Jiri Pittner, Ondrej Demel                    : Mk-CCSD
   Frank Weinhold                                : gennbo (NPA and NBO analysis)
   Christopher J. Cramer and Donald G. Truhlar   : smd solvation model
   Lars Goerigk                                  : TD-DFT with DH, B97 family of functionals
   V. Asgeirsson, H. Jonsson                     : NEB implementation
   FAccTs GmbH                                   : IRC, NEB, NEB-TS, Multilevel, MM, QM/MM, CI optimization
   S Lehtola, MJT Oliveira, MAL Marques          : LibXC Library


 Your calculation uses the libint2 library for the computation of 2-el integrals
 For citations please refer to: http://libint.valeyev.net

 Your ORCA version has been built with support for libXC version: 4.2.3
 For citations please refer to: https://tddft.org/programs/libxc/

 This ORCA versions uses:
   CBLAS   interface :  Fast vector & matrix operations
   LAPACKE interface :  Fast linear algebra routines
   SCALAPACK package :  Parallel linear algebra routines


----- Orbital basis set information -----
Your calculation utilizes the basis: def2-SVP
   F. Weigend and R. Ahlrichs, Phys. Chem. Chem. Phys. 7, 3297 (2005).

================================================================================
                                        WARNINGS
                       Please study these warnings very carefully!
================================================================================

INFO   : Checking CIS options ...

WARNING: CIS/ROCIS methods need fully converged wavefunctions
  ===> : Setting SCFConvForced true
         You can overwrite this default with %scf ConvForced false 


INFO   : the flag for use of LIBINT has been found!

================================================================================
                                       INPUT FILE
================================================================================
NAME = NIDT.inp
|  1> # ORCA input file
|  2> # NIDT.out
|  3> ! Engrad Keepdens
|  4> %maxcore 1000
|  5> %tddft
|  6>   nroots 3 
|  7>   # nroots is the number of states to be computed
|  8>   Iroot 1
|  9>   end
| 10> * xyz 0 1
| 11>    C        3.58249         0.63233        -1.12476
| 12>    C        3.16129        -0.68251        -0.82910
| 13>    C        1.86797        -0.95808        -0.46287
| 14>    C        0.98765         0.12178        -0.40869
| 15>    C        1.40618         1.44127        -0.69231
| 16>    C        2.71327         1.71233        -1.03601
| 17>    C        4.97978         0.57574        -1.50410
| 18>    C        5.37926        -0.73271        -1.64240
| 19>    C        4.32619        -1.62915        -0.96699
| 20>    S        6.14980         1.82922        -1.06014
| 21>    C        7.13634         1.01394         0.18758
| 22>    C        6.76134        -0.01217         1.05651
| 23>    C       -0.40578         0.18152        -0.09858
| 24>    C       -0.86412         1.48500        -0.16094
| 25>    C        0.25217         2.41831        -0.54648
| 26>    S       -1.62703        -0.98275         0.29459
| 27>    C       -2.79777         0.30797         0.35998
| 28>    C       -2.23385         1.57071         0.08944
| 29>    C        3.96900        -2.93485        -1.60233
| 30>    C        5.22958        -1.73155         0.26154
| 31>    C        0.60942         3.42275         0.53340
| 32>    C       -0.15777         3.10363        -1.83713
| 33>    C       10.59405         0.39107         1.38269
| 34>    C       11.58265         1.30352         1.21139
| 35>    C       -6.03252         1.93697         0.70365
| 36>    C       -6.71300         3.11597         0.61195
| 37>    C       11.59787         2.72757         0.91877
| 38>    C       12.96114         3.08964         0.78636
| 39>    C       13.84856         2.02254         0.99870
| 40>    C       13.00693         0.84135         1.32326
| 41>    C       -8.14667         3.25823         0.81205
| 42>    C       -8.45125         4.62000         0.59389
| 43>    C       -7.32363         5.38896         0.27066
| 44>    C       -6.16527         4.45196         0.27612
| 45>    C       10.66626         3.74492         0.83628
| 46>    C       11.08985         5.05578         0.56758
| 47>    C       12.42251         5.39002         0.38975
| 48>    C       13.39543         4.38253         0.51847
| 49>    C       14.78068         4.60010         0.41397
| 50>    C       15.65559         3.54217         0.60036
| 51>    C       15.20392         2.24794         0.90561
| 52>    C       12.87608         6.75745         0.10501
| 53>    N       14.25449         6.93582         0.00376
| 54>    C       15.24583         5.96759         0.11639
| 55>    C       14.69528         8.30255        -0.25399
| 56>    C       14.64864         9.18083         1.00309
| 57>    C       15.49823         8.58405         2.12179
| 58>    C       15.13813        10.58086         0.64449
| 59>    C       -7.48423         6.73617         0.03420
| 60>    C       -8.77279         7.29001         0.12431
| 61>    C       -9.88371         6.52597         0.44423
| 62>    C       -9.73047         5.15015         0.68870
| 63>    C      -10.77932         4.27520         1.02549
| 64>    C      -10.48978         2.93686         1.24376
| 65>    C       -9.19025         2.41641         1.14101
| 66>    C      -12.13518         4.82908         1.12873
| 67>    N      -12.25592         6.19251         0.85479
| 68>    C      -11.24297         7.08901         0.53811
| 69>    C      -13.60018         6.75710         0.91127
| 70>    C      -14.19606         6.98938        -0.48327
| 71>    C      -14.23815         5.69097        -1.28449
| 72>    C      -15.59752         7.57320        -0.33063
| 73>    C        5.44798        -0.57778         0.95329
| 74>    C        6.65261        -1.14851        -2.12120
| 75>    C        7.34236        -2.27065        -1.81029
| 76>    C        7.01797        -3.14704        -0.71019
| 77>    C        6.14493        -2.86727         0.26598
| 78>    C        3.48486        -3.97974        -0.82581
| 79>    C        3.11470        -5.17356        -1.41379
| 80>    C        3.21505        -5.35136        -2.78796
| 81>    C        3.69517        -4.30094        -3.55874
| 82>    C        4.06473        -3.10322        -2.97576
| 83>    C        0.28059         3.19814         1.86215
| 84>    C        0.64619         4.10726         2.83825
| 85>    C        1.35258         5.25702         2.51446
| 86>    C        1.69228         5.46935         1.18425
| 87>    C        1.32795         4.56560         0.20520
| 88>    C        0.26642         2.65352        -3.07921
| 89>    C       -0.18391         3.26902        -4.23162
| 90>    C       -1.07442         4.33683        -4.18370
| 91>    C       -1.50097         4.77391        -2.93711
| 92>    C       -1.05049         4.16526        -1.78029
| 93>    O       12.11967         7.69532        -0.04149
| 94>    O       16.41815         6.24414        -0.03054
| 95>    O       13.37147        -0.27715         1.60629
| 96>    O       -5.00508         4.73733         0.04946
| 97>    O      -13.10252         4.16385         1.43667
| 98>    O      -11.48719         8.26388         0.35578
| 99>    C        2.85851        -6.66618        -3.41911
|100>    C        8.65399        -2.54454        -2.49163
|101>    C        4.08526        -7.57843        -3.48136
|102>    C        9.81551        -2.03776        -1.63217
|103>    C        1.78385         6.22476         3.57859
|104>    C        3.19397         5.88905         4.06774
|105>    C       -1.51990         4.96653        -5.47792
|106>    C       -2.70463         5.91767        -5.36479
|107>    C        8.51030         1.29299         0.24938
|108>    C        9.20335         0.48986         1.12431
|109>    S        8.12987        -0.68209         1.86473
|110>    C       -4.15856         0.35498         0.60448
|111>    C       -4.66728         1.64867         0.51605
|112>    S       -3.41431         2.82251         0.13154
|113>    H        1.53708        -1.95921        -0.23279
|114>    H        3.05206         2.71472        -1.24709
|115>    H       10.92901        -0.57919         1.73785
|116>    H       -6.62885         1.06372         0.94992
|117>    H        9.61532         3.56384         0.99590
|118>    H       10.35552         5.84479         0.49496
|119>    H       16.71476         3.73773         0.51857
|120>    H       15.91264         1.45046         1.06834
|121>    H       14.03861         8.72554        -1.01787
|122>    H       15.71742         8.24584        -0.63172
|123>    H       13.60824         9.24448         1.33752
|124>    H       16.52000         8.43120         1.78147
|125>    H       15.10002         7.62474         2.44801
|126>    H       15.51317         9.25217         2.97986
|127>    H       16.17257        10.54560         0.30918
|128>    H       15.07971        11.23455         1.51123
|129>    H       14.53048        11.00858        -0.14936
|130>    H       -6.64224         7.36307        -0.21677
|131>    H       -8.91753         8.34472        -0.05894
|132>    H      -11.30699         2.27900         1.50158
|133>    H       -9.03200         1.36387         1.32259
|134>    H      -13.54069         7.70848         1.44522
|135>    H      -14.22100         6.05499         1.47011
|136>    H      -13.56620         7.71473        -1.00819
|137>    H      -14.79079         4.92799        -0.74066
|138>    H      -13.23445         5.31461        -1.47477
|139>    H      -14.72392         5.85614        -2.24347
|140>    H      -16.24532         6.87121         0.19019
|141>    H      -16.02855         7.77960        -1.30715
|142>    H      -15.56716         8.50190         0.23410
|143>    H        4.67547         0.18363         0.88949
|144>    H        7.10094        -0.45808        -2.82757
|145>    H        7.62944        -4.03406        -0.61783
|146>    H        6.08158        -3.50902         1.13461
|147>    H        3.39975        -3.85469         0.24450
|148>    H        2.73883        -5.97869        -0.79849
|149>    H        3.77658        -4.42014        -4.62973
|150>    H        4.43006        -2.29188        -3.58857
|151>    H       -0.26889         2.31047         2.14045
|152>    H        0.37335         3.92049         3.86722
|153>    H        2.24468         6.35707         0.91074
|154>    H        1.58958         4.75646        -0.82541
|155>    H        0.94943         1.81945        -3.15060
|156>    H        0.15985         2.90907        -5.19154
|157>    H       -2.19664         5.59242        -2.84960
|158>    H       -1.39758         4.52372        -0.82234
|159>    H        2.48132        -6.50133        -4.43032
|160>    H        2.07507        -7.15606        -2.83756
|161>    H        8.68327        -2.04947        -3.46366
|162>    H        8.76622        -3.61912        -2.65143
|163>    H        4.87335        -7.11253        -4.06872
|164>    H        3.82823        -8.53131        -3.93791
|165>    H        4.46938        -7.76449        -2.48084
|166>    H        9.73640        -0.96186        -1.48810
|167>    H       10.76704        -2.25336        -2.11138
|168>    H        9.80473        -2.51361        -0.65406
|169>    H        1.09069         6.18273         4.42092
|170>    H        1.77503         7.24097         3.17927
|171>    H        3.22116         4.88341         4.48140
|172>    H        3.50716         6.59033         4.83774
|173>    H        3.90207         5.93839         3.24378
|174>    H       -1.77143         4.16472        -6.17827
|175>    H       -0.66878         5.50596        -5.90688
|176>    H       -3.55382         5.42024        -4.90160
|177>    H       -3.00277         6.25320        -6.35585
|178>    H       -2.44763         6.79480        -4.77594
|179>    H        8.98019         2.01357        -0.39437
|180>    H       -4.76974        -0.50066         0.82898
|181> *
|182> 
|183>                          ****END OF INPUT****
================================================================================

                     *******************************
                     * Energy+Gradient Calculation *
                     *******************************

---------------------------------
CARTESIAN COORDINATES (ANGSTROEM)
---------------------------------
  C      3.582490    0.632330   -1.124760
  C      3.161290   -0.682510   -0.829100
  C      1.867970   -0.958080   -0.462870
  C      0.987650    0.121780   -0.408690
  C      1.406180    1.441270   -0.692310
  C      2.713270    1.712330   -1.036010
  C      4.979780    0.575740   -1.504100
  C      5.379260   -0.732710   -1.642400
  C      4.326190   -1.629150   -0.966990
  S      6.149800    1.829220   -1.060140
  C      7.136340    1.013940    0.187580
  C      6.761340   -0.012170    1.056510
  C     -0.405780    0.181520   -0.098580
  C     -0.864120    1.485000   -0.160940
  C      0.252170    2.418310   -0.546480
  S     -1.627030   -0.982750    0.294590
  C     -2.797770    0.307970    0.359980
  C     -2.233850    1.570710    0.089440
  C      3.969000   -2.934850   -1.602330
  C      5.229580   -1.731550    0.261540
  C      0.609420    3.422750    0.533400
  C     -0.157770    3.103630   -1.837130
  C     10.594050    0.391070    1.382690
  C     11.582650    1.303520    1.211390
  C     -6.032520    1.936970    0.703650
  C     -6.713000    3.115970    0.611950
  C     11.597870    2.727570    0.918770
  C     12.961140    3.089640    0.786360
  C     13.848560    2.022540    0.998700
  C     13.006930    0.841350    1.323260
  C     -8.146670    3.258230    0.812050
  C     -8.451250    4.620000    0.593890
  C     -7.323630    5.388960    0.270660
  C     -6.165270    4.451960    0.276120
  C     10.666260    3.744920    0.836280
  C     11.089850    5.055780    0.567580
  C     12.422510    5.390020    0.389750
  C     13.395430    4.382530    0.518470
  C     14.780680    4.600100    0.413970
  C     15.655590    3.542170    0.600360
  C     15.203920    2.247940    0.905610
  C     12.876080    6.757450    0.105010
  N     14.254490    6.935820    0.003760
  C     15.245830    5.967590    0.116390
  C     14.695280    8.302550   -0.253990
  C     14.648640    9.180830    1.003090
  C     15.498230    8.584050    2.121790
  C     15.138130   10.580860    0.644490
  C     -7.484230    6.736170    0.034200
  C     -8.772790    7.290010    0.124310
  C     -9.883710    6.525970    0.444230
  C     -9.730470    5.150150    0.688700
  C    -10.779320    4.275200    1.025490
  C    -10.489780    2.936860    1.243760
  C     -9.190250    2.416410    1.141010
  C    -12.135180    4.829080    1.128730
  N    -12.255920    6.192510    0.854790
  C    -11.242970    7.089010    0.538110
  C    -13.600180    6.757100    0.911270
  C    -14.196060    6.989380   -0.483270
  C    -14.238150    5.690970   -1.284490
  C    -15.597520    7.573200   -0.330630
  C      5.447980   -0.577780    0.953290
  C      6.652610   -1.148510   -2.121200
  C      7.342360   -2.270650   -1.810290
  C      7.017970   -3.147040   -0.710190
  C      6.144930   -2.867270    0.265980
  C      3.484860   -3.979740   -0.825810
  C      3.114700   -5.173560   -1.413790
  C      3.215050   -5.351360   -2.787960
  C      3.695170   -4.300940   -3.558740
  C      4.064730   -3.103220   -2.975760
  C      0.280590    3.198140    1.862150
  C      0.646190    4.107260    2.838250
  C      1.352580    5.257020    2.514460
  C      1.692280    5.469350    1.184250
  C      1.327950    4.565600    0.205200
  C      0.266420    2.653520   -3.079210
  C     -0.183910    3.269020   -4.231620
  C     -1.074420    4.336830   -4.183700
  C     -1.500970    4.773910   -2.937110
  C     -1.050490    4.165260   -1.780290
  O     12.119670    7.695320   -0.041490
  O     16.418150    6.244140   -0.030540
  O     13.371470   -0.277150    1.606290
  O     -5.005080    4.737330    0.049460
  O    -13.102520    4.163850    1.436670
  O    -11.487190    8.263880    0.355780
  C      2.858510   -6.666180   -3.419110
  C      8.653990   -2.544540   -2.491630
  C      4.085260   -7.578430   -3.481360
  C      9.815510   -2.037760   -1.632170
  C      1.783850    6.224760    3.578590
  C      3.193970    5.889050    4.067740
  C     -1.519900    4.966530   -5.477920
  C     -2.704630    5.917670   -5.364790
  C      8.510300    1.292990    0.249380
  C      9.203350    0.489860    1.124310
  S      8.129870   -0.682090    1.864730
  C     -4.158560    0.354980    0.604480
  C     -4.667280    1.648670    0.516050
  S     -3.414310    2.822510    0.131540
  H      1.537080   -1.959210   -0.232790
  H      3.052060    2.714720   -1.247090
  H     10.929010   -0.579190    1.737850
  H     -6.628850    1.063720    0.949920
  H      9.615320    3.563840    0.995900
  H     10.355520    5.844790    0.494960
  H     16.714760    3.737730    0.518570
  H     15.912640    1.450460    1.068340
  H     14.038610    8.725540   -1.017870
  H     15.717420    8.245840   -0.631720
  H     13.608240    9.244480    1.337520
  H     16.520000    8.431200    1.781470
  H     15.100020    7.624740    2.448010
  H     15.513170    9.252170    2.979860
  H     16.172570   10.545600    0.309180
  H     15.079710   11.234550    1.511230
  H     14.530480   11.008580   -0.149360
  H     -6.642240    7.363070   -0.216770
  H     -8.917530    8.344720   -0.058940
  H    -11.306990    2.279000    1.501580
  H     -9.032000    1.363870    1.322590
  H    -13.540690    7.708480    1.445220
  H    -14.221000    6.054990    1.470110
  H    -13.566200    7.714730   -1.008190
  H    -14.790790    4.927990   -0.740660
  H    -13.234450    5.314610   -1.474770
  H    -14.723920    5.856140   -2.243470
  H    -16.245320    6.871210    0.190190
  H    -16.028550    7.779600   -1.307150
  H    -15.567160    8.501900    0.234100
  H      4.675470    0.183630    0.889490
  H      7.100940   -0.458080   -2.827570
  H      7.629440   -4.034060   -0.617830
  H      6.081580   -3.509020    1.134610
  H      3.399750   -3.854690    0.244500
  H      2.738830   -5.978690   -0.798490
  H      3.776580   -4.420140   -4.629730
  H      4.430060   -2.291880   -3.588570
  H     -0.268890    2.310470    2.140450
  H      0.373350    3.920490    3.867220
  H      2.244680    6.357070    0.910740
  H      1.589580    4.756460   -0.825410
  H      0.949430    1.819450   -3.150600
  H      0.159850    2.909070   -5.191540
  H     -2.196640    5.592420   -2.849600
  H     -1.397580    4.523720   -0.822340
  H      2.481320   -6.501330   -4.430320
  H      2.075070   -7.156060   -2.837560
  H      8.683270   -2.049470   -3.463660
  H      8.766220   -3.619120   -2.651430
  H      4.873350   -7.112530   -4.068720
  H      3.828230   -8.531310   -3.937910
  H      4.469380   -7.764490   -2.480840
  H      9.736400   -0.961860   -1.488100
  H     10.767040   -2.253360   -2.111380
  H      9.804730   -2.513610   -0.654060
  H      1.090690    6.182730    4.420920
  H      1.775030    7.240970    3.179270
  H      3.221160    4.883410    4.481400
  H      3.507160    6.590330    4.837740
  H      3.902070    5.938390    3.243780
  H     -1.771430    4.164720   -6.178270
  H     -0.668780    5.505960   -5.906880
  H     -3.553820    5.420240   -4.901600
  H     -3.002770    6.253200   -6.355850
  H     -2.447630    6.794800   -4.775940
  H      8.980190    2.013570   -0.394370
  H     -4.769740   -0.500660    0.828980

----------------------------
CARTESIAN COORDINATES (A.U.)
----------------------------
  NO LB      ZA    FRAG     MASS         X           Y           Z
   0 C     6.0000    0    12.011    6.769925    1.194931   -2.125488
   1 C     6.0000    0    12.011    5.973972   -1.289757   -1.566772
   2 C     6.0000    0    12.011    3.529952   -1.810509   -0.874698
   3 C     6.0000    0    12.011    1.866388    0.230131   -0.772312
   4 C     6.0000    0    12.011    2.657295    2.723606   -1.308276
   5 C     6.0000    0    12.011    5.127337    3.235835   -1.957775
   6 C     6.0000    0    12.011    9.410420    1.087991   -2.842337
   7 C     6.0000    0    12.011   10.165328   -1.384621   -3.103686
   8 C     6.0000    0    12.011    8.175314   -3.078647   -1.827346
   9 S    16.0000    0    32.060   11.621438    3.456725   -2.003374
  10 C     6.0000    0    12.011   13.485728    1.916069    0.354475
  11 C     6.0000    0    12.011   12.777081   -0.022998    1.996515
  12 C     6.0000    0    12.011   -0.766813    0.343023   -0.186289
  13 C     6.0000    0    12.011   -1.632950    2.806243   -0.304133
  14 C     6.0000    0    12.011    0.476532    4.569944   -1.032698
  15 S    16.0000    0    32.060   -3.074641   -1.857128    0.556694
  16 C     6.0000    0    12.011   -5.287019    0.581979    0.680264
  17 C     6.0000    0    12.011   -4.221365    2.968212    0.169017
  18 C     6.0000    0    12.011    7.500323   -5.546063   -3.027965
  19 C     6.0000    0    12.011    9.882474   -3.272155    0.494239
  20 C     6.0000    0    12.011    1.151637    6.468060    1.007980
  21 C     6.0000    0    12.011   -0.298142    5.865011   -3.471673
  22 C     6.0000    0    12.011   20.019853    0.739015    2.612905
  23 C     6.0000    0    12.011   21.888036    2.463296    2.289195
  24 C     6.0000    0    12.011  -11.399811    3.660343    1.329706
  25 C     6.0000    0    12.011  -12.685732    5.888330    1.156418
  26 C     6.0000    0    12.011   21.916798    5.154360    1.736224
  27 C     6.0000    0    12.011   24.493005    5.838573    1.486005
  28 C     6.0000    0    12.011   26.169986    3.822047    1.887269
  29 C     6.0000    0    12.011   24.579536    1.589921    2.500599
  30 C     6.0000    0    12.011  -15.394975    6.157162    1.534552
  31 C     6.0000    0    12.011  -15.970548    8.730535    1.122289
  32 C     6.0000    0    12.011  -13.839655   10.183659    0.511473
  33 C     6.0000    0    12.011  -11.650672    8.412985    0.521791
  34 C     6.0000    0    12.011   20.156310    7.076873    1.580340
  35 C     6.0000    0    12.011   20.956779    9.554040    1.072571
  36 C     6.0000    0    12.011   23.475142   10.185662    0.736521
  37 C     6.0000    0    12.011   25.313694    8.281781    0.979766
  38 C     6.0000    0    12.011   27.931437    8.692929    0.782290
  39 C     6.0000    0    12.011   29.584778    6.693731    1.134516
  40 C     6.0000    0    12.011   28.731245    4.247991    1.711355
  41 C     6.0000    0    12.011   24.332265   12.769730    0.198440
  42 N     7.0000    0    14.007   26.937082   13.106800    0.007105
  43 C     6.0000    0    12.011   28.810443   11.277111    0.219945
  44 C     6.0000    0    12.011   27.770055   15.689546   -0.479972
  45 C     6.0000    0    12.011   27.681918   17.349254    1.895565
  46 C     6.0000    0    12.011   29.287410   16.221504    4.009602
  47 C     6.0000    0    12.011   28.606920   19.994928    1.217910
  48 C     6.0000    0    12.011  -14.143145   12.729516    0.064629
  49 C     6.0000    0    12.011  -16.578171   13.776122    0.234912
  50 C     6.0000    0    12.011  -18.677505   12.332296    0.839473
  51 C     6.0000    0    12.011  -18.387923    9.732373    1.301454
  52 C     6.0000    0    12.011  -20.369963    8.078957    1.937895
  53 C     6.0000    0    12.011  -19.822811    5.549861    2.350366
  54 C     6.0000    0    12.011  -17.367056    4.566353    2.156196
  55 C     6.0000    0    12.011  -22.932167    9.125639    2.132991
  56 N     7.0000    0    14.007  -23.160332   11.702148    1.615319
  57 C     6.0000    0    12.011  -21.246134   13.396287    1.016881
  58 C     6.0000    0    12.011  -25.700616   12.769068    1.722051
  59 C     6.0000    0    12.011  -26.826666   13.208014   -0.913248
  60 C     6.0000    0    12.011  -26.906204   10.754375   -2.427334
  61 C     6.0000    0    12.011  -29.475041   14.311274   -0.624800
  62 C     6.0000    0    12.011   10.295190   -1.091846    1.801457
  63 C     6.0000    0    12.011   12.571611   -2.170369   -4.008487
  64 C     6.0000    0    12.011   13.875050   -4.290907   -3.420952
  65 C     6.0000    0    12.011   13.262041   -5.947044   -1.342065
  66 C     6.0000    0    12.011   11.612235   -5.418355    0.502629
  67 C     6.0000    0    12.011    6.585431   -7.520619   -1.560555
  68 C     6.0000    0    12.011    5.885930   -9.776612   -2.671676
  69 C     6.0000    0    12.011    6.075564  -10.112605   -5.268481
  70 C     6.0000    0    12.011    6.982859   -8.127599   -6.725044
  71 C     6.0000    0    12.011    7.681227   -5.864236   -5.623371
  72 C     6.0000    0    12.011    0.530238    6.043609    3.518954
  73 C     6.0000    0    12.011    1.221122    7.761597    5.363515
  74 C     6.0000    0    12.011    2.556006    9.934328    4.751641
  75 C     6.0000    0    12.011    3.197946   10.335574    2.237908
  76 C     6.0000    0    12.011    2.509462    8.627734    0.387772
  77 C     6.0000    0    12.011    0.503461    5.014426   -5.818864
  78 C     6.0000    0    12.011   -0.347540    6.177553   -7.996603
  79 C     6.0000    0    12.011   -2.030360    8.195421   -7.906047
  80 C     6.0000    0    12.011   -2.836422    9.021382   -5.550334
  81 C     6.0000    0    12.011   -1.985138    7.871201   -3.364261
  82 O     8.0000    0    15.999   22.902857   14.542047   -0.078405
  83 O     8.0000    0    15.999   31.025807   11.799715   -0.057712
  84 O     8.0000    0    15.999   25.268416   -0.523738    3.035448
  85 O     8.0000    0    15.999   -9.458230    8.952256    0.093466
  86 O     8.0000    0    15.999  -24.760174    7.868536    2.714913
  87 O     8.0000    0    15.999  -21.707643   15.616470    0.672327
  88 C     6.0000    0    12.011    5.401801  -12.597255   -6.461182
  89 C     6.0000    0    12.011   16.353671   -4.808484   -4.708498
  90 C     6.0000    0    12.011    7.720023  -14.321157   -6.578817
  91 C     6.0000    0    12.011   18.548626   -3.850808   -3.084354
  92 C     6.0000    0    12.011    3.370988   11.763092    6.762555
  93 C     6.0000    0    12.011    6.035729   11.128692    7.686915
  94 C     6.0000    0    12.011   -2.872195    9.385382  -10.351769
  95 C     6.0000    0    12.011   -5.111010   11.182776  -10.137984
  96 C     6.0000    0    12.011   16.082136    2.443397    0.471260
  97 C     6.0000    0    12.011   17.391811    0.925701    2.124638
  98 S    16.0000    0    32.060   15.363228   -1.288963    3.523829
  99 C     6.0000    0    12.011   -7.858540    0.670815    1.142302
 100 C     6.0000    0    12.011   -8.819881    3.115535    0.975193
 101 S    16.0000    0    32.060   -6.452111    5.333771    0.248575
 102 H     1.0000    0     1.008    2.904660   -3.702370   -0.439909
 103 H     1.0000    0     1.008    5.767558    5.130077   -2.356659
 104 H     1.0000    0     1.008   20.652836   -1.094510    3.284061
 105 H     1.0000    0     1.008  -12.526711    2.010139    1.795089
 106 H     1.0000    0     1.008   18.170321    6.734682    1.881978
 107 H     1.0000    0     1.008   19.569097   11.045052    0.935339
 108 H     1.0000    0     1.008   31.586319    7.063286    0.979955
 109 H     1.0000    0     1.008   30.070532    2.740972    2.018870
 110 H     1.0000    0     1.008   26.529128   16.488881   -1.923496
 111 H     1.0000    0     1.008   29.701619   15.582379   -1.193778
 112 H     1.0000    0     1.008   25.715847   17.469535    2.527546
 113 H     1.0000    0     1.008   31.218276   15.932659    3.366490
 114 H     1.0000    0     1.008   28.534902   14.408670    4.626068
 115 H     1.0000    0     1.008   29.315643   17.484067    5.631119
 116 H     1.0000    0     1.008   30.561728   19.928296    0.584266
 117 H     1.0000    0     1.008   28.496522   21.230223    2.855811
 118 H     1.0000    0     1.008   27.458628   20.803201   -0.282249
 119 H     1.0000    0     1.008  -12.552015   13.914186   -0.409636
 120 H     1.0000    0     1.008  -16.851689   15.769235   -0.111380
 121 H     1.0000    0     1.008  -21.367114    4.306686    2.837575
 122 H     1.0000    0     1.008  -17.068006    2.577341    2.499333
 123 H     1.0000    0     1.008  -25.588196   14.566916    2.731070
 124 H     1.0000    0     1.008  -26.873795   11.442273    2.778105
 125 H     1.0000    0     1.008  -25.636403   14.578727   -1.905203
 126 H     1.0000    0     1.008  -27.950542    9.312551   -1.399645
 127 H     1.0000    0     1.008  -25.009486   10.043157   -2.786911
 128 H     1.0000    0     1.008  -27.824176   11.066501   -4.239544
 129 H     1.0000    0     1.008  -30.699206   12.984705    0.359407
 130 H     1.0000    0     1.008  -30.289570   14.701313   -2.470156
 131 H     1.0000    0     1.008  -29.417669   16.066263    0.442385
 132 H     1.0000    0     1.008    8.835358    0.347010    1.680892
 133 H     1.0000    0     1.008   13.418832   -0.865646   -5.343333
 134 H     1.0000    0     1.008   14.417552   -7.623269   -1.167529
 135 H     1.0000    0     1.008   11.492521   -6.631087    2.144102
 136 H     1.0000    0     1.008    6.424596   -7.284308    0.462038
 137 H     1.0000    0     1.008    5.175639  -11.298087   -1.508927
 138 H     1.0000    0     1.008    7.136702   -8.352854   -8.748922
 139 H     1.0000    0     1.008    8.371600   -4.331026   -6.781415
 140 H     1.0000    0     1.008   -0.508128    4.366156    4.044864
 141 H     1.0000    0     1.008    0.705529    7.408652    7.307987
 142 H     1.0000    0     1.008    4.241830   12.013121    1.721049
 143 H     1.0000    0     1.008    3.003871    8.988407   -1.559799
 144 H     1.0000    0     1.008    1.794163    3.438262   -5.953771
 145 H     1.0000    0     1.008    0.302073    5.497346   -9.810589
 146 H     1.0000    0     1.008   -4.151048   10.568142   -5.384964
 147 H     1.0000    0     1.008   -2.641043    8.548592   -1.553997
 148 H     1.0000    0     1.008    4.689015  -12.285733   -8.372091
 149 H     1.0000    0     1.008    3.921314  -13.522994   -5.362211
 150 H     1.0000    0     1.008   16.409002   -3.872937   -6.545369
 151 H     1.0000    0     1.008   16.565755   -6.839146   -5.010477
 152 H     1.0000    0     1.008    9.209297  -13.440734   -7.688767
 153 H     1.0000    0     1.008    7.234306  -16.121839   -7.441571
 154 H     1.0000    0     1.008    8.445904  -14.672760   -4.688108
 155 H     1.0000    0     1.008   18.399130   -1.817652   -2.812101
 156 H     1.0000    0     1.008   20.346757   -4.258233   -3.989930
 157 H     1.0000    0     1.008   18.528255   -4.750035   -1.235994
 158 H     1.0000    0     1.008    2.061105   11.683666    8.354328
 159 H     1.0000    0     1.008    3.354321   13.683450    6.007950
 160 H     1.0000    0     1.008    6.087110    9.228307    8.468619
 161 H     1.0000    0     1.008    6.627572   12.453919    9.142004
 162 H     1.0000    0     1.008    7.373844   11.221931    6.129856
 163 H     1.0000    0     1.008   -3.347518    7.870180  -11.675238
 164 H     1.0000    0     1.008   -1.263811   10.404757  -11.162386
 165 H     1.0000    0     1.008   -6.715747   10.242769   -9.262682
 166 H     1.0000    0     1.008   -5.674413   11.816835  -12.010816
 167 H     1.0000    0     1.008   -4.625350   12.840311   -9.025219
 168 H     1.0000    0     1.008   16.970100    3.805096   -0.745251
 169 H     1.0000    0     1.008   -9.013502   -0.946110    1.566545

--------------------------------
INTERNAL COORDINATES (ANGSTROEM)
--------------------------------
 C      0   0   0     0.000000000000     0.00000000     0.00000000
 C      1   0   0     1.411959100399     0.00000000     0.00000000
 C      2   1   0     1.372129680533   121.60662630     0.00000000
 C      3   2   1     1.394272711631   116.74017769     0.55747308
 C      4   3   2     1.413032740385   121.89839839   358.88726108
 C      5   4   3     1.378436607792   120.96633000     0.00000000
 C      1   2   3     1.448972259155   107.82554972   181.38347660
 C      7   1   2     1.375046385727   110.09964304     8.75792355
 C      2   1   3     1.507359596015   109.58011290   180.77256672
 S      7   1   2     1.771231038685   122.93917470   217.11295975
 C     10   7   1     1.787385758140   102.51949774   107.72624066
 C     11  10   7     1.395910483161   128.42969314   332.18352969
 C      4   3   2     1.428770186069   131.03982870   178.49151682
 C     13   4   3     1.383121265689   110.65885863   179.56156684
 C     14  13   4     1.505261443006   110.49516359     0.45181178
 S     13   4   3     1.732500748716   135.12338759   358.00230982
 C     16  13   4     1.743807936127    89.10347434   182.27787256
 C     14  13   4     1.395061511690   112.03496070   177.81331773
 C      9   2   1     1.495357516349   113.74268243   220.02000157
 C      9   2   1     1.528360302088   115.17217290    84.06574577
 C     15  14  13     1.517454477241   113.74921575   244.23397786
 C     15  14  13     1.517725841020   107.30594516   120.15461443
 C     11  10   7     3.711066341781   144.64946609   135.17505331
 C     23  11  10     1.356185331177   121.70788211    31.11567507
 C     17  16  13     3.638043104665   158.73514377   176.28996320
 C     25  17  16     1.364369055791   145.49182530   186.85776778
 C     24  23  11     1.453883253669   133.79290252    18.25514778
 C     27  24  23     1.416732926807   106.21288062   183.32236778
 C     28  27  24     1.404031674144   113.56740115   358.63054750
 C     29  28  27     1.486233516847   106.20885254   359.08606815
 C     26  25  17     1.454540335123   124.53185282   176.96721692
 C     31  26  25     1.412366912279   106.59523957   181.52814426
 C     32  31  26     1.402606138194   113.00552383   359.71623935
 C     26  25  17     1.482450411279   127.56865468   358.19686470
 C     27  24  23     1.381919974058   136.55513791     8.42432078
 C     35  27  24     1.403560514442   119.70517108   177.45794122
 C     36  35  27     1.385396175143   122.69774987   359.36582156
 C     28  27  24     1.389941512546   123.80695420   180.76341165
 C     38  28  27     1.406120377990   117.77915813   179.94448701
 C     39  38  28     1.385433009965   119.60258638   358.93154332
 C     29  28  27     1.377124408941   119.17260952   180.35812535
 C     37  36  35     1.468559640396   123.13614967   179.84459269
 N     42  37  36     1.393585859393   116.02458661   177.63227334
 C     43  42  37     1.390291280775   127.60805064     1.28626484
 C     43  42  37     1.459000267135   115.56673314   181.12035855
 C     45  43  42     1.534210277113   112.47775867    77.43582949
 C     46  45  43     1.526250053726   111.08862275    57.34754987
 C     46  45  43     1.525869726091   108.84070043   179.40203362
 C     33  32  31     1.377200230794   118.82359199   180.04738137
 C     49  33  32     1.405434250081   118.77665606   359.93471128
 C     50  49  33     1.385730556205   122.17755265     0.07799320
 C     32  31  26     1.387966774458   123.81290723   179.76887967
 C     52  32  31     1.406787592034   117.77119630     0.17353758
 C     53  52  32     1.386589037927   118.83625788   359.94198527
 C     31  26  25     1.380555978727   135.90680314     1.42603797
 C     53  52  32     1.468263563397   118.07972414   179.95020745
 N     56  53  52     1.395909250668   115.75554922     1.06507889
 C     57  56  53     1.389268215608   127.73111184   357.84715915
 C     57  56  53     1.459104796134   116.74565959   178.19383773
 C     59  57  56     1.534199721158   112.40965617   256.81641287
 C     60  59  57     1.526300620651   111.04317098    57.70663106
 C     60  59  57     1.525855462880   108.88885333   179.78107943
 C     20   9   2     1.362865303469   116.48717029   322.65181306
 C      8   7   1     1.422518647505   124.89340781   174.08016707
 C     64   8   7     1.353372923551   128.40693709   150.34684257
 C     65  64   8     1.443436286852   124.33067921   347.02394681
 C     66  65  64     1.339170625201   125.11496330   348.70651515
 C     19   9   2     1.388945629641   120.17227132   273.65396094
 C     68  19   9     1.381283858734   120.37235859   177.99290065
 C     69  68  19     1.389253811008   120.81785052   359.81601087
 C     70  69  68     1.388524108253   118.50516947   359.94567123
 C     71  70  69     1.382379641198   120.91625207   359.93539585
 C     21  15  14     1.387139280498   121.24465712    21.02924288
 C     73  21  15     1.383088480322   120.45995414   178.22876501
 C     74  73  21     1.387722902384   120.96307634   359.69734770
 C     75  74  73     1.389222359092   118.32782638   359.58433623
 C     76  75  74     1.381317962636   120.94252993     0.51043823
 C     22  15  14     1.387551402507   122.15282935   263.14006006
 C     78  22  15     1.381913950650   120.15811396   176.85330454
 C     79  78  22     1.391230600080   121.44764153   359.39871019
 C     80  79  78     1.388153614338   117.98786836     0.12330782
 C     81  80  79     1.382613310112   120.83983001     0.10261984
 O     42  37  36     1.213762116314   123.39534356   357.46135495
 O     44  43  42     1.213425939149   121.35638635   177.83767374
 O     30  29  28     1.209974232164   127.96227752   181.90810781
 O     34  26  25     1.216080436731   127.31512130   358.36089146
 O     56  53  52     1.213715235177   123.16637007   181.38152085
 O     58  57  56     1.213757452789   120.80807602   181.93234135
 C     70  69  68     1.501406915696   120.71262508   177.80179427
 C     65  64   8     1.503200979444   119.44895050   177.01736088
 C     89  70  69     1.530029636151   110.41621997   270.26287363
 C     90  65  64     1.531217218555   110.31451312    94.94849053
 C     75  74  73     1.501628175482   120.98396294   181.76344318
 C     93  75  74     1.529838991855   110.48050935    92.33038509
 C     80  79  78     1.506645256456   118.71537033   179.69717202
 C     95  80  79     1.523499546899   115.28192841   167.52829478
 C     11  10   7     1.403372446680   118.71287793   144.19073339
 C     97  11  10     1.375077672097   113.91168591   187.96391504
 S     12  11  10     1.724785997073   111.34901808   168.88850361
 C     17  16  13     1.383379779453   133.80346337   178.90554937
 C    100  17  16     1.392928468874   112.30847247   181.38505871
 S     18  14  13     1.721122151853   136.26024616   181.81685078
 H      3   2   1     1.079206317346   122.15434069   180.14394566
 H      6   5   4     1.078943530774   121.95276040   180.55863612
 H     23  11  10     1.086158963872   122.85876479   221.60723086
 H     25  17  16     1.085736590661    98.60633360     4.43279412
 H     35  27  24     1.078305798185   121.63924212   358.88116895
 H     36  35  27     1.080301343793   119.33053948   179.41376217
 H     40  39  38     1.080173322481   118.08575858   180.25142742
 H     41  29  28     1.079230949195   121.00910570   179.66993144
 H     45  43  42     1.092542302797   107.73452626   316.72859228
 H     45  43  42     1.091176501122   107.18593294   198.44890199
 H     46  45  43     1.094681189845   108.20986039   297.56006024
 H     47  46  45     1.087747561615   110.39620353    55.86409110
 H     47  46  45     1.088699393129   111.13487573   295.70945396
 H     47  46  45     1.087608230430   110.22623258   175.93869583
 H     48  46  45     1.087999162362   110.34643371   297.68345430
 H     48  46  45     1.087180638211   110.30907666   177.88671688
 H     48  46  45     1.087373322921   110.68430822    57.93207708
 H     49  33  32     1.079322338785   121.14004478   179.96336909
 H     50  49  33     1.080251551353   119.78334660   180.06179887
 H     54  53  52     1.080316211162   117.86374245   179.99358321
 H     55  31  26     1.079747567953   121.57990336     0.15871001
 H     59  57  56     1.092595793054   107.79939802   136.06592143
 H     59  57  56     1.091181960124   107.15823738    17.77683796
 H     60  59  57     1.094713317951   108.22212243   297.94175061
 H     61  60  59     1.087796175255   110.38006230    56.06994276
 H     61  60  59     1.088699691375   111.12511228   295.94997012
 H     61  60  59     1.087610344839   110.24191689   176.15666630
 H     62  60  59     1.087974389634   110.35826300   297.83461951
 H     62  60  59     1.087188636484   110.29951067   178.02636461
 H     62  60  59     1.087347870969   110.67722289    58.08809682
 H     63  20   9     1.086548355206   116.71221613    26.60167689
 H     64   8   7     1.084735889837   113.77227540   330.09673484
 H     66  65  64     1.081309581434   115.85369437   176.90154285
 H     67  66  65     1.081838417648   119.96859212   189.97169901
 H     68  19   9     1.080946210826   119.60292126   357.92244425
 H     69  68  19     1.080789833316   119.65004578   180.04071760
 H     71  70  69     1.080673775105   119.52071563   180.22375156
 H     72  71  70     1.080404878090   120.12183387   180.43665840
 H     73  21  15     1.080433796815   120.02207952   357.94153907
 H     74  73  21     1.080788582194   119.44467216   179.42508034
 H     76  75  74     1.080740615735   119.52834069   180.16410916
 H     77  76  75     1.080293834380   119.78275584   179.11868421
 H     78  22  15     1.080403608426   120.18834078   356.92669783
 H     79  78  22     1.081286893706   119.23886765   179.71535414
 H     81  80  79     1.077763132186   120.68921415   180.49861487
 H     82  81  80     1.080107977102   119.42379139   180.02155005
 H     89  70  69     1.091784540420   109.82589092   149.74838218
 H     89  70  69     1.091769687480   109.84200122    30.79888812
 H     90  65  64     1.091235054514   110.15104117   334.27940727
 H     90  65  64     1.092178460372   109.58765924   215.28100575
 H     91  89  70     1.087722587657   110.33481716   300.14984427
 H     91  89  70     1.087420166173   110.48910495   179.97409666
 H     91  89  70     1.087753082459   110.34651372    59.79945111
 H     92  90  65     1.088381994982   110.26312069   298.79585596
 H     92  90  65     1.086984326014   110.54444536   178.76775924
 H     92  90  65     1.087772312113   110.63458466    58.47800506
 H     93  75  74     1.091676296069   109.85369021   331.69932839
 H     93  75  74     1.091886907560   109.77390793   212.79721103
 H     94  93  75     1.087734205263   110.33543952   300.11568586
 H     94  93  75     1.087557637323   110.50674317   179.94095114
 H     94  93  75     1.087543161075   110.36178260    59.75275792
 H     95  80  79     1.093918068001   108.15554741    45.20485882
 H     95  80  79     1.095169695024   108.21199203   289.86241507
 H     96  95  80     1.087706411262   110.68468650   304.32020106
 H     96  95  80     1.087964964555   109.75481338   184.75843599
 H     96  95  80     1.087267381742   111.10360431    65.35866462
 H     97  11  10     1.074451586159   122.35296720     3.03625122
 H    100  17  16     1.075202795755   124.68126176     0.82523408

---------------------------
INTERNAL COORDINATES (A.U.)
---------------------------
 C      0   0   0     0.000000000000     0.00000000     0.00000000
 C      1   0   0     2.668216012052     0.00000000     0.00000000
 C      2   1   0     2.592949316433   121.60662630     0.00000000
 C      3   2   1     2.634793580983   116.74017769     0.55747308
 C      4   3   2     2.670244897592   121.89839839   358.88726108
 C      5   4   3     2.604867681698   120.96633000     0.00000000
 C      1   2   3     2.738160745452   107.82554972   181.38347660
 C      7   1   2     2.598461090462   110.09964304     8.75792355
 C      2   1   3     2.848496821807   109.58011290   180.77256672
 S      7   1   2     3.347141583015   122.93917470   217.11295975
 C     10   7   1     3.377669578555   102.51949774   107.72624066
 C     11  10   7     2.637888520645   128.42969314   332.18352969
 C      4   3   2     2.699984359982   131.03982870   178.49151682
 C     13   4   3     2.613720402154   110.65885863   179.56156684
 C     14  13   4     2.844531887232   110.49516359     0.45181178
 S     13   4   3     3.273951941886   135.12338759   358.00230982
 C     16  13   4     3.295319429439    89.10347434   182.27787256
 C     14  13   4     2.636284197069   112.03496070   177.81331773
 C      9   2   1     2.825816178199   113.74268243   220.02000157
 C      9   2   1     2.888182404904   115.17217290    84.06574577
 C     15  14  13     2.867573382679   113.74921575   244.23397786
 C     15  14  13     2.868086185903   107.30594516   120.15461443
 C     11  10   7     7.012899050779   144.64946609   135.17505331
 C     23  11  10     2.562818862766   121.70788211    31.11567507
 C     17  16  13     6.874905131217   158.73514377   176.28996320
 C     25  17  16     2.578283861042   145.49182530   186.85776778
 C     24  23  11     2.747441180129   133.79290252    18.25514778
 C     27  24  23     2.677237236575   106.21288062   183.32236778
 C     28  27  24     2.653235347483   113.56740115   358.63054750
 C     29  28  27     2.808574317896   106.20885254   359.08606815
 C     26  25  17     2.748682884125   124.53185282   176.96721692
 C     31  26  25     2.668986664819   106.59523957   181.52814426
 C     32  31  26     2.650541474944   113.00552383   359.71623935
 C     26  25  17     2.801425284435   127.56865468   358.19686470
 C     27  24  23     2.611450289965   136.55513791     8.42432078
 C     35  27  24     2.652344984681   119.70517108   177.45794122
 C     36  35  27     2.618019358002   122.69774987   359.36582156
 C     28  27  24     2.626608800881   123.80695420   180.76341165
 C     38  28  27     2.657182425728   117.77915813   179.94448701
 C     39  38  28     2.618088965728   119.60258638   358.93154332
 C     29  28  27     2.602387985236   119.17260952   180.35812535
 C     37  36  35     2.775175531678   123.13614967   179.84459269
 N     42  37  36     2.633495618358   116.02458661   177.63227334
 C     43  42  37     2.627269767044   127.60805064     1.28626484
 C     43  42  37     2.757110934203   115.56673314   181.12035855
 C     45  43  42     2.899237255592   112.47775867    77.43582949
 C     46  45  43     2.884194613426   111.08862275    57.34754987
 C     46  45  43     2.883475898353   108.84070043   179.40203362
 C     33  32  31     2.602531267774   118.82359199   180.04738137
 C     49  33  32     2.655885831886   118.77665606   359.93471128
 C     50  49  33     2.618651246634   122.17755265     0.07799320
 C     32  31  26     2.622877086708   123.81290723   179.76887967
 C     52  32  31     2.658443277542   117.77119630     0.17353758
 C     53  52  32     2.620273541980   118.83625788   359.94198527
 C     31  26  25     2.608872712342   135.90680314     1.42603797
 C     53  52  32     2.774616027236   118.07972414   179.95020745
 N     56  53  52     2.637886191569   115.75554922     1.06507889
 C     57  56  53     2.625336454062   127.73111184   357.84715915
 C     57  56  53     2.757308465383   116.74565959   178.19383773
 C     59  57  56     2.899217307726   112.40965617   256.81641287
 C     60  59  57     2.884290171065   111.04317098    57.70663106
 C     60  59  57     2.883448944790   108.88885333   179.78107943
 C     20   9   2     2.575442180980   116.48717029   322.65181306
 C      8   7   1     2.688170664181   124.89340781   174.08016707
 C     64   8   7     2.557504182575   128.40693709   150.34684257
 C     65  64   8     2.727699273914   124.33067921   347.02394681
 C     66  65  64     2.530665728221   125.11496330   348.70651515
 C     19   9   2     2.624726854929   120.17227132   273.65396094
 C     68  19   9     2.610248206214   120.37235859   177.99290065
 C     69  68  19     2.625309233311   120.81785052   359.81601087
 C     70  69  68     2.623930294946   118.50516947   359.94567123
 C     71  70  69     2.612318934973   120.91625207   359.93539585
 C     21  15  14     2.621313349745   121.24465712    21.02924288
 C     73  21  15     2.613658446790   120.45995414   178.22876501
 C     74  73  21     2.622416235275   120.96307634   359.69734770
 C     75  74  73     2.625249797803   118.32782638   359.58433623
 C     76  75  74     2.610312653248   120.94252993     0.51043823
 C     22  15  14     2.622092147477   122.15282935   263.14006006
 C     78  22  15     2.611438907373   120.15811396   176.85330454
 C     79  78  22     2.629044823283   121.44764153   359.39871019
 C     80  79  78     2.623230162912   117.98786836     0.12330782
 C     81  80  79     2.612760505227   120.83983001     0.10261984
 O     42  37  36     2.293677991563   123.39534356   357.46135495
 O     44  43  42     2.293042708788   121.35638635   177.83767374
 O     30  29  28     2.286519927891   127.96227752   181.90810781
 O     34  26  25     2.298058982241   127.31512130   358.36089146
 O     56  53  52     2.293589399052   123.16637007   181.38152085
 O     58  57  56     2.293669178776   120.80807602   181.93234135
 C     70  69  68     2.837247886241   120.71262508   177.80179427
 C     65  64   8     2.840638175390   119.44895050   177.01736088
 C     89  70  69     2.891336989108   110.41621997   270.26287363
 C     90  65  64     2.893581194614   110.31451312    94.94849053
 C     75  74  73     2.837666006640   120.98396294   181.76344318
 C     93  75  74     2.890976723600   110.48050935    92.33038509
 C     80  79  78     2.847146915673   118.71537033   179.69717202
 C     95  80  79     2.878996908791   115.28192841   167.52829478
 C     11  10   7     2.651989588116   118.71287793   144.19073339
 C     97  11  10     2.598520213134   113.91168591   187.96391504
 S     12  11  10     3.259373174091   111.34901808   168.88850361
 C     17  16  13     2.614208922371   133.80346337   178.90554937
 C    100  17  16     2.632253330314   112.30847247   181.38505871
 S     18  14  13     3.252449510028   136.26024616   181.81685078
 H      3   2   1     2.039404381782   122.15434069   180.14394566
 H      6   5   4     2.038907787130   121.95276040   180.55863612
 H     23  11  10     2.052542979622   122.85876479   221.60723086
 H     25  17  16     2.051744809927    98.60633360     4.43279412
 H     35  27  24     2.037702647190   121.63924212   358.88116895
 H     36  35  27     2.041473681875   119.33053948   179.41376217
 H     40  39  38     2.041231756657   118.08575858   180.25142742
 H     41  29  28     2.039450929230   121.00910570   179.66993144
 H     45  43  42     2.064605742009   107.73452626   316.72859228
 H     45  43  42     2.062024750890   107.18593294   198.44890199
 H     46  45  43     2.068647652762   108.20986039   297.56006024
 H     47  46  45     2.055544994294   110.39620353    55.86409110
 H     47  46  45     2.057343695181   111.13487573   295.70945396
 H     47  46  45     2.055281696512   110.22623258   175.93869583
 H     48  46  45     2.056020450800   110.34643371   297.68345430
 H     48  46  45     2.054473664320   110.30907666   177.88671688
 H     48  46  45     2.054837785652   110.68430822    57.93207708
 H     49  33  32     2.039623630527   121.14004478   179.96336909
 H     50  49  33     2.041379587800   119.78334660   180.06179887
 H     54  53  52     2.041501777132   117.86374245   179.99358321
 H     55  31  26     2.040427197198   121.57990336     0.15871001
 H     59  57  56     2.064706823947   107.79939802   136.06592143
 H     59  57  56     2.062035066910   107.15823738    17.77683796
 H     60  59  57     2.068708366084   108.22212243   297.94175061
 H     61  60  59     2.055636860759   110.38006230    56.06994276
 H     61  60  59     2.057344258783   111.12511228   295.94997012
 H     61  60  59     2.055285692165   110.24191689   176.15666630
 H     62  60  59     2.055973637129   110.35826300   297.83461951
 H     62  60  59     2.054488778866   110.29951067   178.02636461
 H     62  60  59     2.054789688433   110.67722289    58.08809682
 H     63  20   9     2.053278822601   116.71221613    26.60167689
 H     64   8   7     2.049853759427   113.77227540   330.09673484
 H     66  65  64     2.043378974894   115.85369437   176.90154285
 H     67  66  65     2.044378330510   119.96859212   189.97169901
 H     68  19   9     2.042692303962   119.60292126   357.92244425
 H     69  68  19     2.042396793294   119.65004578   180.04071760
 H     71  70  69     2.042177475060   119.52071563   180.22375156
 H     72  71  70     2.041669333342   120.12183387   180.43665840
 H     73  21  15     2.041723981813   120.02207952   357.94153907
 H     74  73  21     2.042394429015   119.44467216   179.42508034
 H     76  75  74     2.042303785545   119.52834069   180.16410916
 H     77  76  75     2.041459491142   119.78275584   179.11868421
 H     78  22  15     2.041666934026   120.18834078   356.92669783
 H     79  78  22     2.043336101302   119.23886765   179.71535414
 H     81  80  79     2.036677157069   120.68921415   180.49861487
 H     82  81  80     2.041108271787   119.42379139   180.02155005
 H     89  70  69     2.063173778643   109.82589092   149.74838218
 H     89  70  69     2.063145710654   109.84200122    30.79888812
 H     90  65  64     2.062135400766   110.15104117   334.27940727
 H     90  65  64     2.063918179470   109.58765924   215.28100575
 H     91  89  70     2.055497800353   110.33481716   300.14984427
 H     91  89  70     2.054926306570   110.48910495   179.97409666
 H     91  89  70     2.055555427177   110.34651372    59.79945111
 H     92  90  65     2.056743899606   110.26312069   298.79585596
 H     92  90  65     2.054102688031   110.54444536   178.76775924
 H     92  90  65     2.055591765956   110.63458466    58.47800506
 H     93  75  74     2.062969226465   109.85369021   331.69932839
 H     93  75  74     2.063367224502   109.77390793   212.79721103
 H     94  93  75     2.055519754446   110.33543952   300.11568586
 H     94  93  75     2.055186089395   110.50674317   179.94095114
 H     94  93  75     2.055158733250   110.36178260    59.75275792
 H     95  80  79     2.067205561471   108.15554741    45.20485882
 H     95  80  79     2.069570793766   108.21199203   289.86241507
 H     96  95  80     2.055467231395   110.68468650   304.32020106
 H     96  95  80     2.055955826311   109.75481338   184.75843599
 H     96  95  80     2.054637585838   111.10360431    65.35866462
 H     97  11  10     2.030419241998   122.35296720     3.03625122
 H    100  17  16     2.031838822404   124.68126176     0.82523408

---------------------
BASIS SET INFORMATION
---------------------
There are 5 groups of distinct atoms

 Group   1 Type C   : 7s4p1d contracted to 3s2p1d pattern {511/31/1}
 Group   2 Type S   : 10s7p1d contracted to 4s3p1d pattern {5311/511/1}
 Group   3 Type N   : 7s4p1d contracted to 3s2p1d pattern {511/31/1}
 Group   4 Type O   : 7s4p1d contracted to 3s2p1d pattern {511/31/1}
 Group   5 Type H   : 4s1p contracted to 2s1p pattern {31/1}

Atom   0C    basis set group =>   1
Atom   1C    basis set group =>   1
Atom   2C    basis set group =>   1
Atom   3C    basis set group =>   1
Atom   4C    basis set group =>   1
Atom   5C    basis set group =>   1
Atom   6C    basis set group =>   1
Atom   7C    basis set group =>   1
Atom   8C    basis set group =>   1
Atom   9S    basis set group =>   2
Atom  10C    basis set group =>   1
Atom  11C    basis set group =>   1
Atom  12C    basis set group =>   1
Atom  13C    basis set group =>   1
Atom  14C    basis set group =>   1
Atom  15S    basis set group =>   2
Atom  16C    basis set group =>   1
Atom  17C    basis set group =>   1
Atom  18C    basis set group =>   1
Atom  19C    basis set group =>   1
Atom  20C    basis set group =>   1
Atom  21C    basis set group =>   1
Atom  22C    basis set group =>   1
Atom  23C    basis set group =>   1
Atom  24C    basis set group =>   1
Atom  25C    basis set group =>   1
Atom  26C    basis set group =>   1
Atom  27C    basis set group =>   1
Atom  28C    basis set group =>   1
Atom  29C    basis set group =>   1
Atom  30C    basis set group =>   1
Atom  31C    basis set group =>   1
Atom  32C    basis set group =>   1
Atom  33C    basis set group =>   1
Atom  34C    basis set group =>   1
Atom  35C    basis set group =>   1
Atom  36C    basis set group =>   1
Atom  37C    basis set group =>   1
Atom  38C    basis set group =>   1
Atom  39C    basis set group =>   1
Atom  40C    basis set group =>   1
Atom  41C    basis set group =>   1
Atom  42N    basis set group =>   3
Atom  43C    basis set group =>   1
Atom  44C    basis set group =>   1
Atom  45C    basis set group =>   1
Atom  46C    basis set group =>   1
Atom  47C    basis set group =>   1
Atom  48C    basis set group =>   1
Atom  49C    basis set group =>   1
Atom  50C    basis set group =>   1
Atom  51C    basis set group =>   1
Atom  52C    basis set group =>   1
Atom  53C    basis set group =>   1
Atom  54C    basis set group =>   1
Atom  55C    basis set group =>   1
Atom  56N    basis set group =>   3
Atom  57C    basis set group =>   1
Atom  58C    basis set group =>   1
Atom  59C    basis set group =>   1
Atom  60C    basis set group =>   1
Atom  61C    basis set group =>   1
Atom  62C    basis set group =>   1
Atom  63C    basis set group =>   1
Atom  64C    basis set group =>   1
Atom  65C    basis set group =>   1
Atom  66C    basis set group =>   1
Atom  67C    basis set group =>   1
Atom  68C    basis set group =>   1
Atom  69C    basis set group =>   1
Atom  70C    basis set group =>   1
Atom  71C    basis set group =>   1
Atom  72C    basis set group =>   1
Atom  73C    basis set group =>   1
Atom  74C    basis set group =>   1
Atom  75C    basis set group =>   1
Atom  76C    basis set group =>   1
Atom  77C    basis set group =>   1
Atom  78C    basis set group =>   1
Atom  79C    basis set group =>   1
Atom  80C    basis set group =>   1
Atom  81C    basis set group =>   1
Atom  82O    basis set group =>   4
Atom  83O    basis set group =>   4
Atom  84O    basis set group =>   4
Atom  85O    basis set group =>   4
Atom  86O    basis set group =>   4
Atom  87O    basis set group =>   4
Atom  88C    basis set group =>   1
Atom  89C    basis set group =>   1
Atom  90C    basis set group =>   1
Atom  91C    basis set group =>   1
Atom  92C    basis set group =>   1
Atom  93C    basis set group =>   1
Atom  94C    basis set group =>   1
Atom  95C    basis set group =>   1
Atom  96C    basis set group =>   1
Atom  97C    basis set group =>   1
Atom  98S    basis set group =>   2
Atom  99C    basis set group =>   1
Atom 100C    basis set group =>   1
Atom 101S    basis set group =>   2
Atom 102H    basis set group =>   5
Atom 103H    basis set group =>   5
Atom 104H    basis set group =>   5
Atom 105H    basis set group =>   5
Atom 106H    basis set group =>   5
Atom 107H    basis set group =>   5
Atom 108H    basis set group =>   5
Atom 109H    basis set group =>   5
Atom 110H    basis set group =>   5
Atom 111H    basis set group =>   5
Atom 112H    basis set group =>   5
Atom 113H    basis set group =>   5
Atom 114H    basis set group =>   5
Atom 115H    basis set group =>   5
Atom 116H    basis set group =>   5
Atom 117H    basis set group =>   5
Atom 118H    basis set group =>   5
Atom 119H    basis set group =>   5
Atom 120H    basis set group =>   5
Atom 121H    basis set group =>   5
Atom 122H    basis set group =>   5
Atom 123H    basis set group =>   5
Atom 124H    basis set group =>   5
Atom 125H    basis set group =>   5
Atom 126H    basis set group =>   5
Atom 127H    basis set group =>   5
Atom 128H    basis set group =>   5
Atom 129H    basis set group =>   5
Atom 130H    basis set group =>   5
Atom 131H    basis set group =>   5
Atom 132H    basis set group =>   5
Atom 133H    basis set group =>   5
Atom 134H    basis set group =>   5
Atom 135H    basis set group =>   5
Atom 136H    basis set group =>   5
Atom 137H    basis set group =>   5
Atom 138H    basis set group =>   5
Atom 139H    basis set group =>   5
Atom 140H    basis set group =>   5
Atom 141H    basis set group =>   5
Atom 142H    basis set group =>   5
Atom 143H    basis set group =>   5
Atom 144H    basis set group =>   5
Atom 145H    basis set group =>   5
Atom 146H    basis set group =>   5
Atom 147H    basis set group =>   5
Atom 148H    basis set group =>   5
Atom 149H    basis set group =>   5
Atom 150H    basis set group =>   5
Atom 151H    basis set group =>   5
Atom 152H    basis set group =>   5
Atom 153H    basis set group =>   5
Atom 154H    basis set group =>   5
Atom 155H    basis set group =>   5
Atom 156H    basis set group =>   5
Atom 157H    basis set group =>   5
Atom 158H    basis set group =>   5
Atom 159H    basis set group =>   5
Atom 160H    basis set group =>   5
Atom 161H    basis set group =>   5
Atom 162H    basis set group =>   5
Atom 163H    basis set group =>   5
Atom 164H    basis set group =>   5
Atom 165H    basis set group =>   5
Atom 166H    basis set group =>   5
Atom 167H    basis set group =>   5
Atom 168H    basis set group =>   5
Atom 169H    basis set group =>   5
------------------------------------------------------------------------------
                           ORCA GTO INTEGRAL CALCULATION
------------------------------------------------------------------------------

                         BASIS SET STATISTICS AND STARTUP INFO

 # of primitive gaussian shells          ... 1588
 # of primitive gaussian functions       ... 2972
 # of contracted shells                  ...  824
 # of contracted basis functions         ... 1784
 Highest angular momentum                ...    2
 Maximum contraction depth               ...    5
 Integral package used                   ... LIBINT
 Integral threshhold            Thresh   ...  2.500e-11
 Primitive cut-off              TCut     ...  2.500e-12


------------------------------ INTEGRAL EVALUATION ----------------------------


 * One electron integrals 
 Pre-screening matrix                    ... done
 Shell pair data                         ... done (   0.036 sec)

-------------------------------------------------------------------------------
                                 ORCA SCF
-------------------------------------------------------------------------------

------------
SCF SETTINGS
------------
Hamiltonian:
 Ab initio Hamiltonian  Method          .... Hartree-Fock(GTOs)


General Settings:
 Integral files         IntName         .... NIDT
 Hartree-Fock type      HFTyp           .... RHF
 Total Charge           Charge          ....    0
 Multiplicity           Mult            ....    1
 Number of Electrons    NEL             ....  734
 Basis Dimension        Dim             .... 1784
 Nuclear Repulsion      ENuc            ....  18576.4255069083 Eh

Convergence Acceleration:
 DIIS                   CNVDIIS         .... on
   Start iteration      DIISMaxIt       ....    12
   Startup error        DIISStart       ....  0.200000
   # of expansion vecs  DIISMaxEq       ....     5
   Bias factor          DIISBfac        ....   1.050
   Max. coefficient     DIISMaxC        ....  10.000
 Newton-Raphson         CNVNR           .... off
 SOSCF                  CNVSOSCF        .... on
   Start iteration      SOSCFMaxIt      ....   150
   Startup grad/error   SOSCFStart      ....  0.003300
 Level Shifting         CNVShift        .... on
   Level shift para.    LevelShift      ....    0.2500
   Turn off err/grad.   ShiftErr        ....    0.0010
 Zerner damping         CNVZerner       .... off
 Static damping         CNVDamp         .... on
   Fraction old density DampFac         ....    0.7000
   Max. Damping (<1)    DampMax         ....    0.9800
   Min. Damping (>=0)   DampMin         ....    0.0000
   Turn off err/grad.   DampErr         ....    0.1000
 Fernandez-Rico         CNVRico         .... off

SCF Procedure:
 Maximum # iterations   MaxIter         ....   125
 SCF integral mode      SCFMode         .... Direct
   Integral package                     .... LIBINT
 Reset frequency        DirectResetFreq ....    20
 Integral Threshold     Thresh          ....  2.500e-11 Eh
 Primitive CutOff       TCut            ....  2.500e-12 Eh

Convergence Tolerance:
 Convergence Check Mode ConvCheckMode   .... Total+1el-Energy
 Convergence forced     ConvForced      .... 1
 Energy Change          TolE            ....  1.000e-08 Eh
 1-El. energy change                    ....  1.000e-05 Eh
 Orbital Gradient       TolG            ....  1.000e-05
 Orbital Rotation angle TolX            ....  1.000e-05
 DIIS Error             TolErr          ....  5.000e-07


Diagonalization of the overlap matrix:
Smallest eigenvalue                        ... 1.867e-04
Time for diagonalization                   ...    1.231 sec
Threshold for overlap eigenvalues          ... 1.000e-08
Number of eigenvalues below threshold      ... 0
Time for construction of square roots      ...    0.494 sec
Total time needed                          ...    1.744 sec

-------------------
DFT GRID GENERATION
-------------------

General Integration Accuracy     IntAcc      ...  4.340
Radial Grid Type                 RadialGrid  ... Gauss-Chebyshev
Angular Grid (max. acc.)         AngularGrid ... Lebedev-110
Angular grid pruning method      GridPruning ... 3 (G Style)
Weight generation scheme         WeightScheme... Becke
Basis function cutoff            BFCut       ...    1.0000e-11
Integration weight cutoff        WCut        ...    1.0000e-14
Grids for H and He will be reduced by one unit

# of grid points (after initial pruning)     ... 223956 (   0.5 sec)
# of grid points (after weights+screening)   ... 192418 (  13.7 sec)
nearest neighbour list constructed           ...    0.0 sec
Grid point re-assignment to atoms done       ...    0.0 sec
Grid point division into batches done        ...    0.2 sec
Reduced shell lists constructed in    4.1 sec

Total number of grid points                  ...   192418
Total number of batches                      ...     3089
Average number of points per batch           ...       62
Average number of grid points per atom       ...     1132
Average number of shells per batch           ...   126.82 (15.39%)
Average number of basis functions per batch  ...   256.01 (14.35%)
Average number of large shells per batch     ...    73.79 (58.19%)
Average number of large basis fcns per batch ...   151.88 (59.33%)
Maximum spatial batch extension              ...  25.60, 20.71, 42.40 au
Average spatial batch extension              ...   2.96,  3.04,  3.39 au

Time for grid setup =   18.463 sec

------------------------------
INITIAL GUESS: MODEL POTENTIAL
------------------------------
Loading Hartree-Fock densities                     ... done
Calculating cut-offs                               ... done
Setting up the integral package                    ... done
Initializing the effective Hamiltonian             ... done
Starting the Coulomb interaction                   ... done (  24.4 sec)
Reading the grid                                   ... done
Mapping shells                                     ... done
Starting the XC term evaluation                    ... done (   4.0 sec)
Transforming the Hamiltonian                       ... done (   0.5 sec)
Diagonalizing the Hamiltonian                      ... done (   1.2 sec)
Back transforming the eigenvectors                 ... done (   0.2 sec)
Now organizing SCF variables                       ... done
                      ------------------
                      INITIAL GUESS DONE (  49.3 sec)
                      ------------------
--------------
SCF ITERATIONS
--------------
ITER       Energy         Delta-E        Max-DP      RMS-DP      [F,P]     Damp
               ***  Starting incremental Fock matrix formation  ***
  0  -5589.0634251430   0.000000000000 0.33943300  0.00124920  0.2513668 0.7000
  1  -5590.1842873109  -1.120862167925 0.25945014  0.00096554  0.1531487 0.7000
                               ***Turning on DIIS***
  2  -5590.8801634487  -0.695876137801 0.60964357  0.00225933  0.0869904 0.0000
  3  -5586.5131952628   4.366968185957 0.07081884  0.00042340  0.0496498 0.0000
  4  -5592.6022821229  -6.089086860156 0.02874832  0.00017226  0.0110501 0.0000
  5  -5592.4294878194   0.172794303566 0.01059670  0.00008483  0.0081574 0.0000
  6  -5592.3247630737   0.104724745688 0.00650662  0.00005170  0.0028378 0.0000
                      *** Initiating the SOSCF procedure ***
                           *** Shutting down DIIS ***
                      *** Re-Reading the Fockian *** 
                      *** Removing any level shift *** 
ITER      Energy       Delta-E        Grad      Rot      Max-DP    RMS-DP
  7  -5592.40610982  -0.0813467461  0.003195  0.003195  0.005595  0.000036
               *** Restarting incremental Fock matrix formation ***
  8  -5592.38695870   0.0191511149  0.001694  0.005586  0.003565  0.000024
  9  -5592.38729994  -0.0003412347  0.000939  0.008016  0.007056  0.000043
 10  -5592.38748465  -0.0001847104  0.000358  0.001200  0.001721  0.000009
 11  -5592.38750353  -0.0000188793  0.000213  0.000737  0.000620  0.000004
 12  -5592.38751106  -0.0000075293  0.000125  0.001187  0.001049  0.000005
 13  -5592.38751471  -0.0000036506  0.000072  0.000827  0.000693  0.000003
 14  -5592.38751552  -0.0000008097  0.000028  0.000280  0.000194  0.000001
 15  -5592.38751572  -0.0000001966  0.000010  0.000049  0.000058  0.000000
 16  -5592.38751575  -0.0000000328  0.000006  0.000024  0.000029  0.000000
 17  -5592.38751572   0.0000000317  0.000003  0.000024  0.000020  0.000000
                  ***Gradient check signals convergence***
              ***Rediagonalizing the Fockian in SOSCF/NRSCF***

               *****************************************************
               *                     SUCCESS                       *
               *           SCF CONVERGED AFTER  18 CYCLES          *
               *****************************************************


----------------
TOTAL SCF ENERGY
----------------

Total Energy       :        -5592.38751577 Eh         -152176.60081 eV

Components:
Nuclear Repulsion  :        18576.42550691 Eh          505490.23667 eV
Electronic Energy  :       -24168.81302268 Eh         -657666.83748 eV
One Electron Energy:       -44680.19764287 Eh        -1215809.98845 eV
Two Electron Energy:        20511.38462019 Eh          558143.15096 eV

Virial components:
Potential Energy   :       -11168.42612303 Eh         -303908.32521 eV
Kinetic Energy     :         5576.03860725 Eh          151731.72440 eV
Virial Ratio       :            2.00293199


---------------
SCF CONVERGENCE
---------------

  Last Energy change         ...   -5.6880e-08  Tolerance :   1.0000e-08
  Last MAX-Density change    ...    9.8119e-06  Tolerance :   1.0000e-07
  Last RMS-Density change    ...    6.2174e-08  Tolerance :   5.0000e-09
  Last Orbital Gradient      ...    1.2500e-06  Tolerance :   1.0000e-05
  Last Orbital Rotation      ...    1.4833e-05  Tolerance :   1.0000e-05

             **** THE GBW FILE WAS UPDATED (NIDT.gbw) ****
             **** DENSITY FILE WAS UPDATED (NIDT.scfp) ****
             **** ENERGY FILE WAS UPDATED (NIDT.en.tmp) ****
             **** THE GBW FILE WAS UPDATED (NIDT.gbw) ****
             **** DENSITY FILE WAS UPDATED (NIDT.scfp) ****
----------------
ORBITAL ENERGIES
----------------

  NO   OCC          E(Eh)            E(eV) 
   0   2.0000     -91.972879     -2502.7093 
   1   2.0000     -91.967063     -2502.5510 
   2   2.0000     -91.958494     -2502.3178 
   3   2.0000     -91.950668     -2502.1049 
   4   2.0000     -20.560136      -559.4698 
   5   2.0000     -20.558354      -559.4213 
   6   2.0000     -20.540526      -558.9361 
   7   2.0000     -20.538156      -558.8716 
   8   2.0000     -20.537820      -558.8625 
   9   2.0000     -20.533788      -558.7528 
  10   2.0000     -15.615553      -424.9208 
  11   2.0000     -15.612470      -424.8369 
  12   2.0000     -11.382065      -309.7217 
  13   2.0000     -11.378861      -309.6346 
  14   2.0000     -11.378483      -309.6243 
  15   2.0000     -11.376230      -309.5630 
  16   2.0000     -11.357763      -309.0605 
  17   2.0000     -11.354732      -308.9780 
  18   2.0000     -11.305791      -307.6462 
  19   2.0000     -11.301968      -307.5422 
  20   2.0000     -11.295311      -307.3610 
  21   2.0000     -11.291733      -307.2637 
  22   2.0000     -11.290528      -307.2309 
  23   2.0000     -11.289438      -307.2012 
  24   2.0000     -11.288104      -307.1649 
  25   2.0000     -11.286617      -307.1245 
  26   2.0000     -11.285765      -307.1013 
  27   2.0000     -11.284658      -307.0712 
  28   2.0000     -11.284444      -307.0653 
  29   2.0000     -11.283456      -307.0384 
  30   2.0000     -11.282676      -307.0172 
  31   2.0000     -11.281054      -306.9731 
  32   2.0000     -11.280853      -306.9676 
  33   2.0000     -11.279261      -306.9243 
  34   2.0000     -11.279244      -306.9238 
  35   2.0000     -11.278867      -306.9136 
  36   2.0000     -11.278714      -306.9094 
  37   2.0000     -11.276730      -306.8554 
  38   2.0000     -11.276534      -306.8501 
  39   2.0000     -11.275191      -306.8136 
  40   2.0000     -11.275052      -306.8098 
  41   2.0000     -11.274764      -306.8019 
  42   2.0000     -11.274565      -306.7965 
  43   2.0000     -11.273343      -306.7633 
  44   2.0000     -11.272386      -306.7372 
  45   2.0000     -11.271276      -306.7070 
  46   2.0000     -11.270521      -306.6865 
  47   2.0000     -11.268623      -306.6348 
  48   2.0000     -11.267986      -306.6175 
  49   2.0000     -11.267176      -306.5955 
  50   2.0000     -11.266696      -306.5824 
  51   2.0000     -11.266302      -306.5717 
  52   2.0000     -11.265803      -306.5581 
  53   2.0000     -11.265674      -306.5546 
  54   2.0000     -11.265327      -306.5451 
  55   2.0000     -11.264359      -306.5188 
  56   2.0000     -11.261421      -306.4389 
  57   2.0000     -11.261098      -306.4301 
  58   2.0000     -11.260037      -306.4012 
  59   2.0000     -11.259279      -306.3806 
  60   2.0000     -11.259034      -306.3739 
  61   2.0000     -11.258967      -306.3721 
  62   2.0000     -11.258939      -306.3713 
  63   2.0000     -11.258604      -306.3622 
  64   2.0000     -11.257017      -306.3190 
  65   2.0000     -11.256031      -306.2922 
  66   2.0000     -11.255309      -306.2725 
  67   2.0000     -11.253627      -306.2268 
  68   2.0000     -11.252299      -306.1906 
  69   2.0000     -11.250727      -306.1478 
  70   2.0000     -11.249685      -306.1195 
  71   2.0000     -11.248164      -306.0781 
  72   2.0000     -11.247001      -306.0465 
  73   2.0000     -11.245353      -306.0016 
  74   2.0000     -11.245095      -305.9946 
  75   2.0000     -11.243459      -305.9501 
  76   2.0000     -11.243230      -305.9438 
  77   2.0000     -11.241828      -305.9057 
  78   2.0000     -11.241597      -305.8994 
  79   2.0000     -11.239202      -305.8342 
  80   2.0000     -11.236011      -305.7474 
  81   2.0000     -11.235357      -305.7296 
  82   2.0000     -11.234092      -305.6952 
  83   2.0000     -11.233972      -305.6919 
  84   2.0000     -11.232303      -305.6465 
  85   2.0000     -11.231998      -305.6382 
  86   2.0000     -11.231471      -305.6239 
  87   2.0000     -11.230830      -305.6064 
  88   2.0000     -11.230419      -305.5952 
  89   2.0000     -11.230095      -305.5864 
  90   2.0000     -11.230027      -305.5846 
  91   2.0000     -11.229910      -305.5814 
  92   2.0000     -11.228464      -305.5420 
  93   2.0000     -11.227605      -305.5187 
  94   2.0000     -11.221256      -305.3459 
[...]
   366a -> 371a  :     0.096355 (c=  0.31041176)
   366a -> 372a  :     0.021052 (c=  0.14509222)

STATE  3:  E=   0.132752 au      3.612 eV    29135.6 cm**-1
   349a -> 371a  :     0.018659 (c= -0.13659774)
   360a -> 368a  :     0.016388 (c= -0.12801386)
   360a -> 369a  :     0.013074 (c= -0.11433971)
   364a -> 367a  :     0.207667 (c=  0.45570518)
   364a -> 368a  :     0.114911 (c=  0.33898540)
   364a -> 370a  :     0.053835 (c=  0.23202474)
   365a -> 367a  :     0.100547 (c= -0.31709120)
   365a -> 368a  :     0.147179 (c= -0.38363896)
   365a -> 370a  :     0.050253 (c= -0.22417188)
   365a -> 371a  :     0.066059 (c= -0.25701887)
   366a -> 371a  :     0.036826 (c=  0.19190130)


----------------------
CIS-EXCITATION SPECTRA
----------------------

Center of mass = (  4.0969,  4.7608, -0.2633)
Calculating the Dipole integrals                  ... done
Transforming integrals                            ... done
Calculating the Linear Momentum integrals         ... done
Transforming integrals                            ... done
Calculating angular momentum integrals            ... done
Transforming integrals                            ... done

-----------------------------------------------------------------------------
         ABSORPTION SPECTRUM VIA TRANSITION ELECTRIC DIPOLE MOMENTS
-----------------------------------------------------------------------------
State   Energy    Wavelength  fosc         T2        TX        TY        TZ  
        (cm-1)      (nm)                 (au**2)    (au)      (au)      (au) 
-----------------------------------------------------------------------------
   1   21480.4    465.5   1.017622122  15.59626   3.77006  -1.16817   0.13529
   2   26360.5    379.4   1.601900250  20.00584  -4.02063   1.83793   0.68002
   3   29135.6    343.2   1.220006955  13.78523  -2.71535  -2.51211  -0.31849

-----------------------------------------------------------------------------
         ABSORPTION SPECTRUM VIA TRANSITION VELOCITY DIPOLE MOMENTS
-----------------------------------------------------------------------------
State   Energy    Wavelength   fosc        P2         PX        PY        PZ  
        (cm-1)      (nm)                 (au**2)     (au)      (au)      (au) 
-----------------------------------------------------------------------------
   1   21480.4    465.5   0.656758634   0.09642  -0.30146  -0.00147   0.07440
   2   26360.5    379.4   1.149361072   0.20707   0.42519  -0.16141   0.01519
   3   29135.6    343.2   0.829905519   0.16526   0.34163   0.18637   0.11753

-------------------------------------------------------------------
                             CD SPECTRUM
-------------------------------------------------------------------
State  Energy     Wavelength     R         MX        MY        MZ   
       (cm-1)       (nm)     (1e40*cgs)   (au)      (au)      (au)  
-------------------------------------------------------------------
   1   21480.4    465.5    -651.14648  -0.41829  -0.00832   1.37575
   2   26360.5    379.4    298.91321  -0.59651  -0.27876  -1.84112
   3   29135.6    343.2    -167.14186   0.52268  -0.11995  -2.39688

Total run time:    67645.371 sec

           *** ORCA-CIS/TD-DFT FINISHED WITHOUT ERROR ***

-----------------------
CIS/TD-DFT TOTAL ENERGY
-----------------------

    E(SCF)  =  -5592.387515774 Eh
    DE(CIS) =      0.097871767 Eh (Root  1)
    ----------------------------- ---------
    E(tot)  =  -5592.289644006 Eh


-------------------------   --------------------
FINAL SINGLE POINT ENERGY     -5592.289644006387
-------------------------   --------------------

------------------------------------------------------------------------------
                         ORCA SCF GRADIENT CALCULATION
------------------------------------------------------------------------------


------------
CIS GRADIENT
------------

Reference wavefunction             ... RHF
State of interest                  ... 1
Basis dimension                    ... 1784
DFT-XC contribution needed         ... NO
RI-approximation                   ... OFF
CIS-vectors being read from        ... NIDT.cis

 => Number of Vectors found: 3
 => Orbital Window: 118...366 -> 367...1783

Reading the CIS file                     ... done
Norm of the CI vector                    ... 1.000000000
Making the CIS (pseudo)densities         ... done
Making operators G(D) and Q(T)           ... done
Transforming the Fock operators          ... done
Making the frozen-core relaxed density   ... done
Constructing the G(H) operator           ... done
Transforming the G(H) operator           ... done
Calculating the CIS Lagrangian           ... done
Solving the Z-vector equations           ... done
Finalizing the relaxed density           ... done
Storing the relaxed density              ... done
Constructing the G(Z) operator           ... done
Transforming the G(Z) operator           ... done
Making the W-matrix                      ... done
Finalizing the W-matrix                  ... done
Transforming the W-matrix                ... done
Nuclear repulsion gradient               ... done
One-Electron gradient                    ... done
Prescreening matrices                    ... done
Two-Electron gradient (4-center)         ... done
                 ---------------------------
                 EXCITED STATE GRADIENT DONE
                 ---------------------------


------------------
CARTESIAN GRADIENT
------------------

   1   C   :   -0.022380365    0.004307563    0.014029667
   2   C   :    0.001147402    0.004844992    0.002577198
   3   C   :   -0.000135060   -0.001375545   -0.000153811
   4   C   :   -0.002261911    0.004436538   -0.000380536
   5   C   :   -0.014469347    0.000059502    0.003739669
   6   C   :    0.014637390   -0.005730695   -0.006521543
   7   C   :    0.017307077   -0.021832759   -0.019217636
   8   C   :   -0.006756220    0.033591469    0.017886760
   9   C   :   -0.002186188   -0.009323610    0.005576979
  10   S   :    0.003304480   -0.009347477    0.005631882
  11   C   :    0.005751352    0.009324066   -0.011390558
  12   C   :   -0.012663813   -0.007343186    0.005871233
  13   C   :    0.011261297   -0.012139384   -0.001068896
  14   C   :   -0.012028067    0.022562348   -0.001399227
  15   C   :    0.001528637   -0.004468445    0.000324418
  16   S   :   -0.000981946   -0.000635104    0.000476164
  17   C   :   -0.013507157   -0.009302978    0.003123894
  18   C   :    0.017665210    0.015166979   -0.005312993
  19   C   :    0.002988945    0.004177933    0.004738540
  20   C   :   -0.006093736    0.007146486   -0.008865225
  21   C   :    0.000483866   -0.002034150   -0.005726894
  22   C   :   -0.000214688   -0.001451009    0.004972604
  23   C   :   -0.027169818   -0.006154737   -0.000917592
  24   C   :    0.014447203    0.023598001   -0.006363702
  25   C   :    0.017850273   -0.012852531   -0.000718502
  26   C   :   -0.010101346    0.021913708   -0.002400153
  27   C   :    0.001963602   -0.018276022    0.002487127
  28   C   :   -0.004903258   -0.000531900    0.000492561
  29   C   :   -0.009254121   -0.014045050    0.003393202
  30   C   :   -0.011158641    0.044707169   -0.011203867
  31   C   :    0.014271858   -0.001416394   -0.002083500
  32   C   :    0.001052704   -0.005442431    0.000801467
  33   C   :    0.014750121   -0.008024561   -0.000757127
  34   C   :   -0.044896305   -0.016145961    0.009670491
  35   C   :    0.000678723    0.013904745   -0.002759558
  36   C   :   -0.011748908   -0.014140520    0.003644802
  37   C   :    0.011588186    0.005334229   -0.002706689
  38   C   :    0.002236773    0.007145817   -0.000974318
  39   C   :   -0.003015552    0.012035305   -0.002536357
  40   C   :   -0.000591508   -0.014412568    0.002929834
  41   C   :    0.009456184    0.012524399   -0.003076277
  42   C   :    0.019841047   -0.029543280    0.006329053
  43   N   :   -0.001045602   -0.002086866    0.002782572
  44   C   :   -0.034309728   -0.012228484    0.007894585
  45   C   :    0.000328683   -0.009676412    0.001744061
  46   C   :   -0.003495111    0.000705355    0.001860991
  47   C   :    0.002989804   -0.001601042    0.001022325
  48   C   :    0.004297826    0.003680697   -0.001395166
  49   C   :   -0.012623542    0.009956879    0.000027865
  50   C   :    0.014548784   -0.002099440   -0.001947334
  51   C   :   -0.012110122   -0.001234218    0.002551370
  52   C   :   -0.007940044    0.002954378    0.000286220
  53   C   :   -0.003551868    0.010474615   -0.001016147
  54   C   :    0.012507439   -0.011339794    0.000276835
  55   C   :   -0.013699234    0.001574237    0.001838266
  56   C   :    0.029180693    0.017225748   -0.011428253
  57   N   :    0.002795210   -0.001042942   -0.002649863
  58   C   :    0.011898396   -0.035190630    0.003143838
  59   C   :    0.007210075   -0.006514414    0.000352973
  60   C   :    0.001794663    0.002544575   -0.002569281
  61   C   :   -0.000700542   -0.003477765   -0.000173612
  62   C   :   -0.005669191   -0.000594623    0.001408164
  63   C   :    0.018824148   -0.006252591   -0.008833052
  64   C   :    0.016954238   -0.016997686    0.006166571
  65   C   :   -0.004616977    0.021068734   -0.005565949
  66   C   :   -0.005135257   -0.000045364    0.014297817
  67   C   :    0.008691333   -0.004311377   -0.010688930
  68   C   :    0.000246694   -0.000994804    0.001380946
  69   C   :    0.001759084    0.000565396   -0.000708547
  70   C   :    0.003644433   -0.001727942    0.000548043
  71   C   :    0.001178946    0.000482052    0.000745964
  72   C   :    0.001078950   -0.000859933   -0.000851780
  73   C   :    0.000357545    0.000588363    0.000528289
  74   C   :   -0.000773958   -0.001454739   -0.001323515
  75   C   :    0.004386024   -0.000695497   -0.000625463
  76   C   :   -0.000583547   -0.000010705    0.001450626
  77   C   :   -0.001398855   -0.001764605   -0.001508409
  78   C   :   -0.000267531   -0.000165248    0.001627783
  79   C   :    0.000549352    0.000181307    0.000814560
  80   C   :   -0.002434798    0.002590166    0.001236314
  81   C   :    0.001193761   -0.000772554   -0.000529350
  82   C   :   -0.001495302    0.000155907    0.001778913
  83   O   :   -0.023035290    0.032403544   -0.005131631
  84   O   :    0.038342134    0.012580242   -0.006112214
  85   O   :    0.009876586   -0.039104741    0.009599524
  86   O   :    0.054107189   -0.000334146   -0.008448398
  87   O   :   -0.032905836   -0.019284032    0.010388027
  88   O   :   -0.011380569    0.038870947   -0.005698391
  89   C   :   -0.005608373    0.004596400    0.000532404
  90   C   :   -0.004433596   -0.002516880   -0.001011297
  91   C   :    0.005156882    0.000532486    0.001517866
  92   C   :   -0.000222104    0.001370058    0.004304620
  93   C   :   -0.006328436    0.001084671   -0.002444241
  94   C   :    0.003629266   -0.003559845   -0.001415257
  95   C   :    0.002949517   -0.003805478    0.002941436
  96   C   :   -0.003659893    0.002682372    0.003153375
  97   C   :   -0.012331720    0.005298536   -0.009055871
  98   C   :    0.025476967   -0.001383712    0.002017190
  99   S   :    0.000928304   -0.014058077    0.003618768
 100   C   :    0.009850469   -0.011125889   -0.000222887
 101   C   :   -0.018769996    0.007133160    0.001252754
 102   S   :   -0.015508410    0.016525134   -0.000284766
 103   H   :   -0.000064977    0.000891887    0.000195888
 104   H   :   -0.000226676   -0.000350001    0.000208075
 105   H   :   -0.002324503   -0.001566001    0.001637912
 106   H   :   -0.000650424   -0.001350671    0.000369782
 107   H   :   -0.000601280   -0.000617449    0.000876744
 108   H   :    0.000346530   -0.000626513    0.000052318
 109   H   :   -0.000489596   -0.000167047    0.000095222
 110   H   :   -0.000842012    0.001190556   -0.000276953
 111   H   :   -0.004350365    0.001936535   -0.001956910
 112   H   :    0.006447872   -0.001260069   -0.000288311
 113   H   :   -0.002725812   -0.000646416    0.001116562
 114   H   :   -0.002711710    0.000692947   -0.001326729
 115   H   :   -0.000878932    0.001030678   -0.002498141
 116   H   :   -0.000287927   -0.000524156   -0.003366890
 117   H   :   -0.003293239   -0.001788749    0.001222786
 118   H   :   -0.000459271   -0.003226945   -0.001188001
 119   H   :    0.000707298   -0.003098558    0.002262232
 120   H   :   -0.001191590   -0.000758978    0.000294720
 121   H   :    0.000133784   -0.000552226    0.000098752
 122   H   :    0.000605845    0.000291367   -0.000199001
 123   H   :    0.000197939    0.001292700   -0.000309947
 124   H   :    0.001186002    0.004859665    0.000713627
 125   H   :   -0.003235937   -0.005592057    0.001742118
 126   H   :    0.002349747    0.001334472   -0.001402153
 127   H   :    0.001107076    0.002810305    0.000622997
 128   H   :   -0.000306444    0.001980106    0.002006439
 129   H   :    0.000500000    0.000784657    0.003310279
 130   H   :    0.003527651    0.001062903   -0.001432247
 131   H   :    0.002754379   -0.001294748    0.001714560
 132   H   :    0.002014147   -0.003028073   -0.001436104
 133   H   :   -0.005018237    0.006342073   -0.005498162
 134   H   :   -0.001650168   -0.000553721   -0.002723956
 135   H   :   -0.000050579    0.001178206   -0.001946515
 136   H   :   -0.005036317   -0.000094559   -0.002404693
 137   H   :    0.000111930    0.001143255   -0.001044937
 138   H   :    0.000765138    0.001124797   -0.001258321
 139   H   :   -0.000083014   -0.000138181    0.001879757
 140   H   :    0.000167106    0.000743081    0.000761198
 141   H   :    0.000077920   -0.000681755   -0.000766243
 142   H   :    0.000791267    0.000369515   -0.001500462
 143   H   :   -0.000714452   -0.001536414    0.000909971
 144   H   :   -0.000237186   -0.001511135   -0.000614119
 145   H   :    0.000763654   -0.000916108    0.001358403
 146   H   :   -0.000467306    0.000749176    0.001348071
 147   H   :    0.001100946   -0.000924028   -0.000320167
 148   H   :   -0.000437255   -0.002079489    0.001445776
 149   H   :    0.002238072    0.000695657   -0.001143292
 150   H   :    0.001426289   -0.000630942    0.002096133
 151   H   :    0.000214177    0.002589131    0.000651801
 152   H   :    0.000306392   -0.000402084    0.002589593
 153   H   :   -0.002634968    0.000371076    0.001034478
 154   H   :   -0.001045771    0.003564329    0.001209105
 155   H   :   -0.001989055    0.001388309   -0.001519443
 156   H   :   -0.001048332   -0.000316393   -0.000569686
 157   H   :   -0.003740010    0.000386907    0.000512207
 158   H   :   -0.001603821    0.000081835   -0.001768033
 159   H   :    0.000654923   -0.002301973    0.000979930
 160   H   :    0.002081247   -0.000287918   -0.001621455
 161   H   :   -0.001631973    0.001988794   -0.001218153
 162   H   :   -0.002612370   -0.001276698   -0.002454924
 163   H   :   -0.002878300    0.000255415    0.000748971
 164   H   :   -0.001378949   -0.001420351    0.000317724
 165   H   :    0.000903653    0.001222168    0.001655562
 166   H   :    0.002984531   -0.000620913   -0.000791532
 167   H   :    0.001430431   -0.001650030    0.001367705
 168   H   :    0.001379627   -0.002548213   -0.001122892
 169   H   :   -0.002264136   -0.000933000    0.001753143
 170   H   :    0.003494984    0.002595626   -0.000807003

Difference to translation invariance:
           :   -0.0000000003    0.0000000002   -0.0000000000

Norm of the cartesian gradient     ...    0.2005476462
RMS gradient                       ...    0.0088803990
MAX gradient                       ...    0.0541071893

-------
TIMINGS
-------

Total CIS gradient time            ...    49128.269 sec

Fock matrix formation       ....    4027.410 sec  (  8.2%)
  Coulomb formation         ....    4027.410 sec  (100.0% of F)
Z-vector equation           ....   40312.173 sec  ( 82.1%)
One electron gradient       ....      40.232 sec  (  0.1%)
Prescreening matrices       ....       1.854 sec  (  0.0%)
Two electron gradient       ....    4738.254 sec  (  9.6%)

                            ***************************************
                            *     ORCA property calculations      *
                            ***************************************

                                    ---------------------
                                    Active property flags
                                    ---------------------
   (+) Dipole Moment


------------------------------------------------------------------------------
                       ORCA ELECTRIC PROPERTIES CALCULATION
------------------------------------------------------------------------------

Dipole Moment Calculation                       ... on
Quadrupole Moment Calculation                   ... off
Polarizability Calculation                      ... off
GBWName                                         ... NIDT.gbw
Electron density file                           ... NIDT.scfp
The origin for moment calculation is the CENTER OF MASS  = ( 4.096889,  4.760752 -0.263265)

-------------
DIPOLE MOMENT
-------------
                                X             Y             Z
Electronic contribution:      4.58168     -30.98408      27.84633
Nuclear contribution   :     -4.20332      27.47300     -28.42714
                        -----------------------------------------
Total Dipole Moment    :      0.37836      -3.51109      -0.58081
                        -----------------------------------------
Magnitude (a.u.)       :      3.57886
Magnitude (Debye)      :      9.09674



--------------------
Rotational spectrum 
--------------------
 
Rotational constants in cm-1:     0.000742     0.000160     0.000139 
Rotational constants in MHz :    22.235914     4.796595     4.177220 

 Dipole components along the rotational axes: 
x,y,z [a.u.] :     0.677937    -3.512835     0.092885 
x,y,z [Debye]:     1.723179    -8.928916     0.236096 

 

                        *** CIS RELAXED DENSITY ***

------------------------------------------------------------------------------
                       ORCA ELECTRIC PROPERTIES CALCULATION
------------------------------------------------------------------------------

Dipole Moment Calculation                       ... on
Quadrupole Moment Calculation                   ... off
Polarizability Calculation                      ... off
GBWName                                         ... NIDT.gbw
Electron density file                           ... NIDT.cisp
The origin for moment calculation is the CENTER OF MASS  = ( 4.096889,  4.760752 -0.263265)

-------------
DIPOLE MOMENT
-------------
                                X             Y             Z
Electronic contribution:      3.98265     -30.69341      27.74520
Nuclear contribution   :     -4.20332      27.47300     -28.42714
                        -----------------------------------------
Total Dipole Moment    :     -0.22067      -3.22042      -0.68194
                        -----------------------------------------
Magnitude (a.u.)       :      3.29921
Magnitude (Debye)      :      8.38594



--------------------
Rotational spectrum 
--------------------
 
Rotational constants in cm-1:     0.000742     0.000160     0.000139 
Rotational constants in MHz :    22.235914     4.796595     4.177220 

 Dipole components along the rotational axes: 
x,y,z [a.u.] :     0.055173    -3.298409    -0.047604 
x,y,z [Debye]:     0.140238    -8.383890    -0.120999 

 

Timings for individual modules:

Sum of individual times         ...   139250.715 sec (=2320.845 min)
GTO integral calculation        ...        3.818 sec (=   0.064 min)   0.0 %
SCF iterations                  ...    22473.112 sec (= 374.552 min)  16.1 %
CIS module                      ...    67645.478 sec (=1127.425 min)  48.6 %
SCF Gradient evaluation         ...    49128.307 sec (= 818.805 min)  35.3 %
                             ****ORCA TERMINATED NORMALLY****
TOTAL RUN TIME: 1 days 14 hours 40 minutes 52 seconds 235 msec
