
                                 *****************
                                 * O   R   C   A *
                                 *****************

           --- An Ab Initio, DFT and Semiempirical electronic structure package ---

                  #######################################################
                  #                        -***-                        #
                  #          Department of theory and spectroscopy      #
                  #               Directorship: Frank Neese             #
                  #        Max Planck Institute fuer Kohlenforschung    #
                  #                Kaiser Wilhelm Platz 1               #
                  #                 D-45470 Muelheim/Ruhr               #
                  #                      Germany                        #
                  #                                                     #
                  #                  All rights reserved                #
                  #                        -***-                        #
                  #######################################################


                         Program Version 4.2.0 -  RELEASE  -


 With contributions from (in alphabetic order):
   Daniel Aravena         : Magnetic Suceptibility
   Michael Atanasov       : Ab Initio Ligand Field Theory (pilot matlab implementation)
   Alexander A. Auer      : GIAO ZORA, VPT2
   Ute Becker             : Parallelization
   Giovanni Bistoni       : ED, misc. LED, open-shell LED, HFLED
   Martin Brehm           : Molecular dynamics
   Dmytro Bykov           : SCF Hessian
   Vijay G. Chilkuri      : MRCI spin determinant printing, contributions to CSF-ICE
   Dipayan Datta          : RHF DLPNO-CCSD density
   Achintya Kumar Dutta   : EOM-CC, STEOM-CC
   Dmitry Ganyushin       : Spin-Orbit,Spin-Spin,Magnetic field MRCI
   Miquel Garcia          : C-PCM Hessian, Gaussian charge scheme
   Yang Guo               : DLPNO-NEVPT2, CIM, IAO-localization
   Andreas Hansen         : Spin unrestricted coupled pair/coupled cluster methods
   Benjamin Helmich-Paris : CASSCF linear response (MC-RPA)
   Lee Huntington         : MR-EOM, pCC
   Robert Izsak           : Overlap fitted RIJCOSX, COSX-SCS-MP3, EOM
   Christian Kollmar      : KDIIS, OOCD, Brueckner-CCSD(T), CCSD density
   Simone Kossmann        : Meta GGA functionals, TD-DFT gradient, OOMP2, MP2 Hessian
   Martin Krupicka        : AUTO-CI
   Lucas Lang             : DCDCAS
   Dagmar Lenk            : GEPOL surface, SMD
   Dimitrios Liakos       : Extrapolation schemes; Compound Job, initial MDCI parallelization
   Dimitrios Manganas     : Further ROCIS development; embedding schemes
   Dimitrios Pantazis     : SARC Basis sets
   Taras Petrenko         : DFT Hessian,TD-DFT gradient, ASA, ECA, R-Raman, ABS, FL, XAS/XES, NRVS
   Peter Pinski           : DLPNO-MP2, DLPNO-MP2 Gradient
   Christoph Reimann      : Effective Core Potentials
   Marius Retegan         : Local ZFS, SOC
   Christoph Riplinger    : Optimizer, TS searches, QM/MM, DLPNO-CCSD(T), (RO)-DLPNO pert. Triples
   Tobias Risthaus        : Range-separated hybrids, TD-DFT gradient, RPA, STAB
   Michael Roemelt        : Original ROCIS implementation
   Masaaki Saitow         : Open-shell DLPNO-CCSD energy and density
   Barbara Sandhoefer     : DKH picture change effects
   Avijit Sen             : IP-ROCIS
   Kantharuban Sivalingam : CASSCF convergence, NEVPT2, FIC-MRCI
   Bernardo de Souza      : ESD, SOC TD-DFT
   Georgi Stoychev        : AutoAux, RI-MP2 NMR
   Willem Van den Heuvel  : Paramagnetic NMR
   Boris Wezisla          : Elementary symmetry handling
   Frank Wennmohs         : Technical directorship


 We gratefully acknowledge several colleagues who have allowed us to
 interface, adapt or use parts of their codes:
   Stefan Grimme, W. Hujo, H. Kruse,             : VdW corrections, initial TS optimization,
                  C. Bannwarth                     DFT functionals, gCP, sTDA/sTD-DF
   Ed Valeev, F. Pavosevic, A. Kumar             : LibInt (2-el integral package), F12 methods
   Garnet Chan, S. Sharma, J. Yang, R. Olivares  : DMRG
   Ulf Ekstrom                                   : XCFun DFT Library
   Mihaly Kallay                                 : mrcc  (arbitrary order and MRCC methods)
   Andreas Klamt, Michael Diedenhofen            : otool_cosmo (COSMO solvation model)
   Jiri Pittner, Ondrej Demel                    : Mk-CCSD
   Frank Weinhold                                : gennbo (NPA and NBO analysis)
   Christopher J. Cramer and Donald G. Truhlar   : smd solvation model
   Lars Goerigk                                  : TD-DFT with DH, B97 family of functionals
   V. Asgeirsson, H. Jonsson                     : NEB implementation
   FAccTs GmbH                                   : IRC, NEB, NEB-TS, Multilevel, MM, QM/MM, CI optimization
   S Lehtola, MJT Oliveira, MAL Marques          : LibXC Library


 Your calculation uses the libint2 library for the computation of 2-el integrals
 For citations please refer to: http://libint.valeyev.net

 Your ORCA version has been built with support for libXC version: 4.2.3
 For citations please refer to: https://tddft.org/programs/libxc/

 This ORCA versions uses:
   CBLAS   interface :  Fast vector & matrix operations
   LAPACKE interface :  Fast linear algebra routines
   SCALAPACK package :  Parallel linear algebra routines


----- Orbital basis set information -----
Your calculation utilizes the basis: def2-SVP
   F. Weigend and R. Ahlrichs, Phys. Chem. Chem. Phys. 7, 3297 (2005).

================================================================================
                                        WARNINGS
                       Please study these warnings very carefully!
================================================================================

INFO   : Checking CIS options ...

WARNING: CIS/ROCIS methods need fully converged wavefunctions
  ===> : Setting SCFConvForced true
         You can overwrite this default with %scf ConvForced false 


INFO   : the flag for use of LIBINT has been found!

================================================================================
                                       INPUT FILE
================================================================================
NAME = o-IO2.inp
|  1> # ORCA input file
|  2> # o-IO2.out: Geometry 135
|  3> ! Engrad Keepdens
|  4> %maxcore 1000
|  5> %tddft
|  6>   nroots 3 
|  7>   # nroots is the number of states to be computed
|  8>   Iroot 1
|  9>   end
| 10> * xyz 0 1
| 11>    C        6.00835         3.71512         3.25384
| 12>    O        7.01229         3.04853         3.44875
| 13>    C        5.56541         4.84785         4.11139
| 14>    C        6.23057         5.39764         5.20266
| 15>    C        5.63198         6.47518         5.84947
| 16>    C        4.38557         6.96161         5.41477
| 17>    C        3.72080         6.40510         4.32449
| 18>    C        4.32738         5.33460         3.65382
| 19>    C        3.91681         4.54436         2.46543
| 20>    C        2.69416         4.67277         1.82610
| 21>    C        2.28367         3.87121         0.71454
| 22>    N        1.91932         3.24019        -0.19171
| 23>    C        1.69628         5.60629         2.24813
| 24>    N        0.87162         6.35575         2.57922
| 25>    C        5.00051         3.60488         2.16290
| 26>    F        6.22830         7.06513         6.88418
| 27>    F        3.83527         7.98356         6.06704
| 28>    C       13.77119       -10.58317       -15.30799
| 29>    O       14.31796       -11.05992       -14.33448
| 30>    C       13.77857       -11.12932       -16.68926
| 31>    C       14.42915       -12.26771       -17.15352
| 32>    C       14.28608       -12.58597       -18.49964
| 33>    C       13.49511       -11.78270       -19.34034
| 34>    C       12.85774       -10.63321       -18.87753
| 35>    C       13.01023       -10.29562       -17.52637
| 36>    C       12.57260        -9.10607       -16.74383
| 37>    C       12.13710        -7.91865       -17.31909
| 38>    C       12.13169        -6.67502       -16.62347
| 39>    N       12.13883        -5.64032       -16.09342
| 40>    C       11.77815        -7.80912       -18.69815
| 41>    N       11.45281        -7.69995       -19.80912
| 42>    C       12.90891        -9.35365       -15.35355
| 43>    F       14.88823       -13.65185       -19.02224
| 44>    F       13.37193       -12.14485       -20.61461
| 45>    C        5.09412         2.85101         1.00303
| 46>    C        6.04406         1.90288         0.55243
| 47>    C        7.15279         1.29223         1.15288
| 48>    C        7.82374         0.39958         0.30473
| 49>    C        7.24664         0.29285        -0.98674
| 50>    S        5.84907         1.31586        -1.09884
| 51>    C        7.70101        -0.51304        -2.08020
| 52>    S        6.87787        -0.46859        -3.64922
| 53>    C        7.99126        -1.61954        -4.29661
| 54>    C        8.93862        -2.01687        -3.36090
| 55>    C        8.78320        -1.40090        -2.10724
| 56>    C        8.22703        -2.25201        -5.57768
| 57>    C        9.38328        -3.07382        -5.41699
| 58>    C        9.90104        -3.02288        -3.96924
| 59>    C        7.55587        -2.15161        -6.81160
| 60>    C        8.05896        -2.85994        -7.89769
| 61>    C        9.21457        -3.67980        -7.73358
| 62>    C        9.88817        -3.77828        -6.50265
| 63>    C        7.54014        -2.92880        -9.34739
| 64>    C        8.49705        -3.95191        -9.94566
| 65>    C        9.44684        -4.32772        -9.00417
| 66>    C        8.65468        -4.60142       -11.18623
| 67>    C        9.74193        -5.48384       -11.19081
| 68>    S       10.56204        -5.48943        -9.61985
| 69>    C       10.22839        -6.31473       -12.25255
| 70>    S       11.68145        -7.25421       -12.07327
| 71>    C       11.57791        -7.88322       -13.70985
| 72>    C       10.43212        -7.38865       -14.34061
| 73>    C        9.68260        -6.50472       -13.54545
| 74>    C       12.57258        -8.79458       -14.13326
| 75>    O        8.91612        -0.32016         0.62032
| 76>    C        9.41973        -0.23061         1.95392
| 77>    C       10.63936        -1.13413         2.08064
| 78>    C       11.76625        -0.70050         1.13983
| 79>    C       11.10783        -1.17175         3.53842
| 80>    C       11.36843        -2.54008        -3.87702
| 81>    C       11.59329        -1.09262        -4.30940
| 82>    C        9.71325        -4.37780        -3.22527
| 83>    C       10.53052        -5.57132        -3.71331
| 84>    C        6.06876        -3.39864        -9.42943
| 85>    C        5.83119        -4.83545        -8.96925
| 86>    C        7.73875        -1.58399       -10.10720
| 87>    C        6.93153        -0.37929        -9.62963
| 88>    O        8.56369        -5.85930       -13.92324
| 89>    C        8.14774        -6.00820       -15.28548
| 90>    C        7.03552        -5.01657       -15.59550
| 91>    C        7.52257        -3.57050       -15.46976
| 92>    C        6.48156        -5.29398       -16.99797
| 93>    H        7.18991         5.00485         5.54204
| 94>    H        2.76318         6.83421         4.03980
| 95>    H       15.03673       -12.88687       -16.49135
| 96>    H       12.27267       -10.04789       -19.58487
| 97>    H        4.30467         3.03232         0.27252
| 98>    H        7.43464         1.53418         2.17256
| 99>    H        9.40927        -1.56096        -1.23340
|100>    H        6.66121        -1.53286        -6.90055
|101>    H       10.78266        -4.39713        -6.41410
|102>    H        8.02250        -4.47550       -12.06244
|103>    H       10.14388        -7.69847       -15.33941
|104>    H       13.18465        -9.21627       -13.32466
|105>    H        8.62974        -0.53889         2.66098
|106>    H        9.68331         0.81889         2.18292
|107>    H       10.30846        -2.14832         1.78985
|108>    H       12.12313         0.31089         1.40081
|109>    H       11.43021        -0.68025         0.09179
|110>    H       12.62555        -1.38456         1.21512
|111>    H       11.42670        -0.17169         3.87774
|112>    H       11.96873        -1.84729         3.65432
|113>    H       10.31407        -1.52279         4.21635
|114>    H       11.99984        -3.21004        -4.48133
|115>    H       11.70108        -2.66957        -2.83204
|116>    H       11.26777        -0.92846        -5.34931
|117>    H       12.65925        -0.82568        -4.23994
|118>    H       11.03261        -0.39287        -3.67257
|119>    H        8.64144        -4.63399        -3.25392
|120>    H        9.95526        -4.18701        -2.16550
|121>    H       10.23902        -5.88284        -4.72679
|122>    H       10.36062        -6.43279        -3.04867
|123>    H       11.61241        -5.36591        -3.71620
|124>    H        5.73545        -3.28453       -10.47604
|125>    H        5.44446        -2.71180        -8.83678
|126>    H        6.39087        -5.55148        -9.58835
|127>    H        4.76370        -5.09614        -9.03940
|128>    H        6.14959        -4.98048        -7.92415
|129>    H        7.49511        -1.78365       -11.16499
|130>    H        8.81255        -1.33621       -10.08124
|131>    H        5.84746        -0.57273        -9.62993
|132>    H        7.11314         0.47649       -10.29840
|133>    H        7.22215        -0.06489        -8.61663
|134>    H        7.80137        -7.04583       -15.44551
|135>    H        9.01109        -5.82513       -15.94919
|136>    H        6.23063        -5.19338       -14.85902
|137>    H        8.32841        -3.37092       -16.19484
|138>    H        7.92346        -3.36020       -14.46700
|139>    H        6.70403        -2.86353       -15.67636
|140>    H        7.25527        -5.13137       -17.76689
|141>    H        5.64517        -4.61636       -17.22506
|142>    H        6.11252        -6.32737       -17.09908
|143> *
|144> 
|145>                          ****END OF INPUT****
================================================================================

                     *******************************
                     * Energy+Gradient Calculation *
                     *******************************

---------------------------------
CARTESIAN COORDINATES (ANGSTROEM)
---------------------------------
  C      6.008350    3.715120    3.253840
  O      7.012290    3.048530    3.448750
  C      5.565410    4.847850    4.111390
  C      6.230570    5.397640    5.202660
  C      5.631980    6.475180    5.849470
  C      4.385570    6.961610    5.414770
  C      3.720800    6.405100    4.324490
  C      4.327380    5.334600    3.653820
  C      3.916810    4.544360    2.465430
  C      2.694160    4.672770    1.826100
  C      2.283670    3.871210    0.714540
  N      1.919320    3.240190   -0.191710
  C      1.696280    5.606290    2.248130
  N      0.871620    6.355750    2.579220
  C      5.000510    3.604880    2.162900
  F      6.228300    7.065130    6.884180
  F      3.835270    7.983560    6.067040
  C     13.771190  -10.583170  -15.307990
  O     14.317960  -11.059920  -14.334480
  C     13.778570  -11.129320  -16.689260
  C     14.429150  -12.267710  -17.153520
  C     14.286080  -12.585970  -18.499640
  C     13.495110  -11.782700  -19.340340
  C     12.857740  -10.633210  -18.877530
  C     13.010230  -10.295620  -17.526370
  C     12.572600   -9.106070  -16.743830
  C     12.137100   -7.918650  -17.319090
  C     12.131690   -6.675020  -16.623470
  N     12.138830   -5.640320  -16.093420
  C     11.778150   -7.809120  -18.698150
  N     11.452810   -7.699950  -19.809120
  C     12.908910   -9.353650  -15.353550
  F     14.888230  -13.651850  -19.022240
  F     13.371930  -12.144850  -20.614610
  C      5.094120    2.851010    1.003030
  C      6.044060    1.902880    0.552430
  C      7.152790    1.292230    1.152880
  C      7.823740    0.399580    0.304730
  C      7.246640    0.292850   -0.986740
  S      5.849070    1.315860   -1.098840
  C      7.701010   -0.513040   -2.080200
  S      6.877870   -0.468590   -3.649220
  C      7.991260   -1.619540   -4.296610
  C      8.938620   -2.016870   -3.360900
  C      8.783200   -1.400900   -2.107240
  C      8.227030   -2.252010   -5.577680
  C      9.383280   -3.073820   -5.416990
  C      9.901040   -3.022880   -3.969240
  C      7.555870   -2.151610   -6.811600
  C      8.058960   -2.859940   -7.897690
  C      9.214570   -3.679800   -7.733580
  C      9.888170   -3.778280   -6.502650
  C      7.540140   -2.928800   -9.347390
  C      8.497050   -3.951910   -9.945660
  C      9.446840   -4.327720   -9.004170
  C      8.654680   -4.601420  -11.186230
  C      9.741930   -5.483840  -11.190810
  S     10.562040   -5.489430   -9.619850
  C     10.228390   -6.314730  -12.252550
  S     11.681450   -7.254210  -12.073270
  C     11.577910   -7.883220  -13.709850
  C     10.432120   -7.388650  -14.340610
  C      9.682600   -6.504720  -13.545450
  C     12.572580   -8.794580  -14.133260
  O      8.916120   -0.320160    0.620320
  C      9.419730   -0.230610    1.953920
  C     10.639360   -1.134130    2.080640
  C     11.766250   -0.700500    1.139830
  C     11.107830   -1.171750    3.538420
  C     11.368430   -2.540080   -3.877020
  C     11.593290   -1.092620   -4.309400
  C      9.713250   -4.377800   -3.225270
  C     10.530520   -5.571320   -3.713310
  C      6.068760   -3.398640   -9.429430
  C      5.831190   -4.835450   -8.969250
  C      7.738750   -1.583990  -10.107200
  C      6.931530   -0.379290   -9.629630
  O      8.563690   -5.859300  -13.923240
  C      8.147740   -6.008200  -15.285480
  C      7.035520   -5.016570  -15.595500
  C      7.522570   -3.570500  -15.469760
  C      6.481560   -5.293980  -16.997970
  H      7.189910    5.004850    5.542040
  H      2.763180    6.834210    4.039800
  H     15.036730  -12.886870  -16.491350
  H     12.272670  -10.047890  -19.584870
  H      4.304670    3.032320    0.272520
  H      7.434640    1.534180    2.172560
  H      9.409270   -1.560960   -1.233400
  H      6.661210   -1.532860   -6.900550
  H     10.782660   -4.397130   -6.414100
  H      8.022500   -4.475500  -12.062440
  H     10.143880   -7.698470  -15.339410
  H     13.184650   -9.216270  -13.324660
  H      8.629740   -0.538890    2.660980
  H      9.683310    0.818890    2.182920
  H     10.308460   -2.148320    1.789850
  H     12.123130    0.310890    1.400810
  H     11.430210   -0.680250    0.091790
  H     12.625550   -1.384560    1.215120
  H     11.426700   -0.171690    3.877740
  H     11.968730   -1.847290    3.654320
  H     10.314070   -1.522790    4.216350
  H     11.999840   -3.210040   -4.481330
  H     11.701080   -2.669570   -2.832040
  H     11.267770   -0.928460   -5.349310
  H     12.659250   -0.825680   -4.239940
  H     11.032610   -0.392870   -3.672570
  H      8.641440   -4.633990   -3.253920
  H      9.955260   -4.187010   -2.165500
  H     10.239020   -5.882840   -4.726790
  H     10.360620   -6.432790   -3.048670
  H     11.612410   -5.365910   -3.716200
  H      5.735450   -3.284530  -10.476040
  H      5.444460   -2.711800   -8.836780
  H      6.390870   -5.551480   -9.588350
  H      4.763700   -5.096140   -9.039400
  H      6.149590   -4.980480   -7.924150
  H      7.495110   -1.783650  -11.164990
  H      8.812550   -1.336210  -10.081240
  H      5.847460   -0.572730   -9.629930
  H      7.113140    0.476490  -10.298400
  H      7.222150   -0.064890   -8.616630
  H      7.801370   -7.045830  -15.445510
  H      9.011090   -5.825130  -15.949190
  H      6.230630   -5.193380  -14.859020
  H      8.328410   -3.370920  -16.194840
  H      7.923460   -3.360200  -14.467000
  H      6.704030   -2.863530  -15.676360
  H      7.255270   -5.131370  -17.766890
  H      5.645170   -4.616360  -17.225060
  H      6.112520   -6.327370  -17.099080

----------------------------
CARTESIAN COORDINATES (A.U.)
----------------------------
  NO LB      ZA    FRAG     MASS         X           Y           Z
   0 C     6.0000    0    12.011   11.354136    7.020559    6.148866
   1 O     8.0000    0    15.999   13.251308    5.760887    6.517193
   2 C     6.0000    0    12.011   10.517101    9.161109    7.769401
   3 C     6.0000    0    12.011   11.774071   10.200061    9.831603
   4 C     6.0000    0    12.011   10.642900   12.236317   11.053896
   5 C     6.0000    0    12.011    8.287526   13.155536   10.232432
   6 C     6.0000    0    12.011    7.031293   12.103885    8.172102
   7 C     6.0000    0    12.011    8.177563   10.080933    6.904719
   8 C     6.0000    0    12.011    7.401698    8.587596    4.658988
   9 C     6.0000    0    12.011    5.091225    8.830256    3.450829
  10 C     6.0000    0    12.011    4.315511    7.315527    1.350285
  11 N     7.0000    0    14.007    3.626989    6.123072   -0.362279
  12 C     6.0000    0    12.011    3.205505   10.594353    4.248350
  13 N     7.0000    0    14.007    1.647123   12.010627    4.874019
  14 C     6.0000    0    12.011    9.449594    6.812236    4.087289
  15 F     9.0000    0    18.998   11.769781   13.351161   13.009215
  16 F     9.0000    0    18.998    7.247610   15.086742   11.465044
  17 C     6.0000    0    12.011   26.023778  -19.999293  -28.927909
  18 O     8.0000    0    15.999   27.057023  -20.900220  -27.088241
  19 C     6.0000    0    12.011   26.037724  -21.031367  -31.538131
  20 C     6.0000    0    12.011   27.267142  -23.182612  -32.415455
  21 C     6.0000    0    12.011   26.996779  -23.784036  -34.959253
  22 C     6.0000    0    12.011   25.502062  -22.266076  -36.547946
  23 C     6.0000    0    12.011   24.297607  -20.093855  -35.673362
  24 C     6.0000    0    12.011   24.585772  -19.455902  -33.120039
  25 C     6.0000    0    12.011   23.758771  -17.207978  -31.641253
  26 C     6.0000    0    12.011   22.935795  -14.964080  -32.728337
  27 C     6.0000    0    12.011   22.925572  -12.613960  -31.413806
  28 N     7.0000    0    14.007   22.939064  -10.658660  -30.412156
  29 C     6.0000    0    12.011   22.257478  -14.757098  -35.334383
  30 N     7.0000    0    14.007   21.642674  -14.550797  -37.433812
  31 C     6.0000    0    12.011   24.394305  -17.675837  -29.014005
  32 F     9.0000    0    18.998   28.134677  -25.798258  -35.946824
  33 F     9.0000    0    18.998   25.269286  -22.950440  -38.955967
  34 C     6.0000    0    12.011    9.626492    5.387628    1.895452
  35 C     6.0000    0    12.011   11.421618    3.595922    1.043941
  36 C     6.0000    0    12.011   13.516814    2.441961    2.178627
  37 C     6.0000    0    12.011   14.784726    0.755097    0.575856
  38 C     6.0000    0    12.011   13.694165    0.553406   -1.864668
  39 S    16.0000    0    32.060   11.053140    2.486615   -2.076507
  40 C     6.0000    0    12.011   14.552800   -0.969505   -3.931008
  41 S    16.0000    0    32.060   12.997291   -0.885507   -6.896026
  42 C     6.0000    0    12.011   15.101293   -3.060487   -8.119416
  43 C     6.0000    0    12.011   16.891544   -3.811332   -6.351181
  44 C     6.0000    0    12.011   16.597843   -2.647317   -3.982106
  45 C     6.0000    0    12.011   15.546834   -4.255682  -10.540288
  46 C     6.0000    0    12.011   17.731829   -5.808678  -10.236628
  47 C     6.0000    0    12.011   18.710254   -5.712415   -7.500777
  48 C     6.0000    0    12.011   14.278525   -4.065954  -12.872059
  49 C     6.0000    0    12.011   15.229227   -5.404503  -14.924471
  50 C     6.0000    0    12.011   17.413014   -6.953814  -14.614348
  51 C     6.0000    0    12.011   18.685933   -7.139914  -12.288228
  52 C     6.0000    0    12.011   14.248800   -5.534630  -17.664007
  53 C     6.0000    0    12.011   16.057097   -7.468028  -18.794574
  54 C     6.0000    0    12.011   17.851940   -8.178206  -17.015415
  55 C     6.0000    0    12.011   16.354975   -8.695424  -21.138911
  56 C     6.0000    0    12.011   18.409580  -10.362956  -21.147566
  57 S    16.0000    0    32.060   19.959363  -10.373519  -18.178882
  58 C     6.0000    0    12.011   19.328856  -11.933110  -23.153964
  59 S    16.0000    0    32.060   22.074741  -13.708470  -22.815174
  60 C     6.0000    0    12.011   21.879079  -14.897127  -25.907862
  61 C     6.0000    0    12.011   19.713850  -13.962525  -27.099825
  62 C     6.0000    0    12.011   18.297462  -12.292139  -25.597191
  63 C     6.0000    0    12.011   23.758733  -16.619348  -26.707991
  64 O     8.0000    0    15.999   16.849025   -0.605015    1.172235
  65 C     6.0000    0    12.011   17.800710   -0.435790    3.692374
  66 C     6.0000    0    12.011   20.105477   -2.143195    3.931840
  67 C     6.0000    0    12.011   22.234990   -1.323753    2.153967
  68 C     6.0000    0    12.011   20.990757   -2.214287    6.686645
  69 C     6.0000    0    12.011   21.483219   -4.800056   -7.326506
  70 C     6.0000    0    12.011   21.908143   -2.064753   -8.143586
  71 C     6.0000    0    12.011   18.355382   -8.272843   -6.094877
  72 C     6.0000    0    12.011   19.899799  -10.528269   -7.017139
  73 C     6.0000    0    12.011   11.468294   -6.422499  -17.819040
  74 C     6.0000    0    12.011   11.019352   -9.137676  -16.949426
  75 C     6.0000    0    12.011   14.624118   -2.993307  -19.099840
  76 C     6.0000    0    12.011   13.098693   -0.716754  -18.197363
  77 O     8.0000    0    15.999   16.183029  -11.072472  -26.311110
  78 C     6.0000    0    12.011   15.396997  -11.353853  -28.885371
  79 C     6.0000    0    12.011   13.295206   -9.479943  -29.471224
  80 C     6.0000    0    12.011   14.215597   -6.747267  -29.233610
  81 C     6.0000    0    12.011   12.248373  -10.004172  -32.121508
  82 H     1.0000    0     1.008   13.586961    9.457796   10.472938
  83 H     1.0000    0     1.008    5.221653   12.914785    7.634116
  84 H     1.0000    0     1.008   28.415302  -24.352655  -31.164135
  85 H     1.0000    0     1.008   23.191985  -18.987760  -37.010041
  86 H     1.0000    0     1.008    8.134647    5.730254    0.514988
  87 H     1.0000    0     1.008   14.049434    2.899180    4.105543
  88 H     1.0000    0     1.008   17.780943   -2.949787   -2.330788
  89 H     1.0000    0     1.008   12.587863   -2.896686  -13.040150
  90 H     1.0000    0     1.008   20.376274   -8.309371  -12.120892
  91 H     1.0000    0     1.008   15.160328   -8.457469  -22.794708
  92 H     1.0000    0     1.008   19.169155  -14.548000  -28.987284
  93 H     1.0000    0     1.008   24.915378  -17.416226  -25.179958
  94 H     1.0000    0     1.008   16.307845   -1.018355    5.028523
  95 H     1.0000    0     1.008   18.298804    1.547478    4.125121
  96 H     1.0000    0     1.008   19.480166   -4.059736    3.382326
  97 H     1.0000    0     1.008   22.909396    0.587497    2.647147
  98 H     1.0000    0     1.008   21.599967   -1.285486    0.173458
  99 H     1.0000    0     1.008   23.858832   -2.616439    2.296244
 100 H     1.0000    0     1.008   21.593334   -0.324447    7.327867
 101 H     1.0000    0     1.008   22.617622   -3.490872    6.905664
 102 H     1.0000    0     1.008   19.490768   -2.877656    7.967747
 103 H     1.0000    0     1.008   22.676411   -6.066096   -8.468486
 104 H     1.0000    0     1.008   22.111837   -5.044756   -5.351780
 105 H     1.0000    0     1.008   21.292999   -1.754535  -10.108731
 106 H     1.0000    0     1.008   23.922516   -1.560309   -8.012325
 107 H     1.0000    0     1.008   20.848611   -0.742417   -6.940152
 108 H     1.0000    0     1.008   16.329955   -8.756972   -6.149018
 109 H     1.0000    0     1.008   18.812715   -7.912302   -4.092202
 110 H     1.0000    0     1.008   19.348944  -11.116956   -8.932339
 111 H     1.0000    0     1.008   19.578734  -12.156211   -5.761151
 112 H     1.0000    0     1.008   21.944275  -10.140100   -7.022600
 113 H     1.0000    0     1.008   10.838430   -6.206862  -19.796847
 114 H     1.0000    0     1.008   10.288538   -5.124559  -16.699094
 115 H     1.0000    0     1.008   12.076994  -10.490777  -18.119356
 116 H     1.0000    0     1.008    9.002088   -9.630309  -17.081990
 117 H     1.0000    0     1.008   11.621041   -9.411743  -14.974473
 118 H     1.0000    0     1.008   14.163705   -3.370610  -21.098773
 119 H     1.0000    0     1.008   16.653306   -2.525071  -19.050783
 120 H     1.0000    0     1.008   11.050098   -1.082303  -18.197930
 121 H     1.0000    0     1.008   13.441887    0.900436  -19.461156
 122 H     1.0000    0     1.008   13.647886   -0.122624  -16.283071
 123 H     1.0000    0     1.008   14.742453  -13.314689  -29.187784
 124 H     1.0000    0     1.008   17.028492  -11.007900  -30.139601
 125 H     1.0000    0     1.008   11.774184   -9.814066  -28.079478
 126 H     1.0000    0     1.008   15.738414   -6.370116  -30.603812
 127 H     1.0000    0     1.008   14.973169   -6.349858  -27.338668
 128 H     1.0000    0     1.008   12.668781   -5.411287  -29.624027
 129 H     1.0000    0     1.008   13.710473   -9.696884  -33.574556
 130 H     1.0000    0     1.008   10.667825   -8.723656  -32.550646
 131 H     1.0000    0     1.008   11.550989  -11.956996  -32.312578

--------------------------------
INTERNAL COORDINATES (ANGSTROEM)
--------------------------------
 C      0   0   0     0.000000000000     0.00000000     0.00000000
 O      1   0   0     1.220748811099     0.00000000     0.00000000
 C      1   2   0     1.488175090169   124.63877257     0.00000000
 C      3   1   2     1.391250186918   127.62435373     4.49574401
 C      4   3   1     1.392036499450   117.69534928   179.06655072
 C      5   4   3     1.406810620873   120.33509851     1.12150176
 C      6   5   4     1.392958366715   121.77179018   359.05962390
 C      7   6   5     1.401323586935   118.24376137   359.85739946
 C      8   7   6     1.485031236911   132.05407272   181.38915805
 C      9   8   7     1.385678533968   124.32264411   353.76494693
 C     10   9   8     1.430582436387   124.03862149   182.60897956
 N     11  10   9     1.162852624110   178.17603362   184.92071916
 C     10   9   8     1.430151532426   122.68296882     0.69771963
 N     13  10   9     1.162486557041   178.99765956   192.75150130
 C      9   8   7     1.465794242484   107.56741422   176.11329373
 F      5   4   3     1.332014763056   120.74848760   181.34847536
 F      6   5   4     1.331415804848   118.69937998   179.21011903
 C     12  11  10    23.665460596086   131.13624794   158.92366616
 O     18  12  11     1.214071544638    86.71715532    46.74350898
 C     18  12  11     1.485342081744   144.21897381   207.94437937
 C     20  18  12     1.390943376310   127.85333331   202.12245345
 C     21  20  18     1.390610479933   117.53450617   179.81171044
 C     22  21  20     1.406290412326   120.38633601   359.24546137
 C     23  22  21     1.393470800950   121.99876482     1.61639387
 C     24  23  22     1.401018755692   117.98852630   359.21419828
 C     25  24  23     1.489603326728   131.84253765   174.25500870
 C     26  25  24     1.389442540734   123.85145759   345.53121149
 C     27  26  25     1.424967378363   123.01961485   200.80006307
 N     28  27  26     1.162586801964   177.82859761   142.99925309
 C     27  26  25     1.429212512890   122.93637699    14.50700672
 N     30  27  26     1.162763323037   178.00883757   133.67386364
 C     26  25  24     1.451646909858   107.38951335   175.15708820
 F     22  21  20     1.331088110119   121.11603492   179.33045692
 F     23  22  21     1.330447281105   117.98013467   181.18434523
 C     15   9   8     1.386499630689   124.82444868   191.18805617
 C     35  15   9     1.415760170544   132.50703257   180.58998528
 C     36  35  15     1.400969606344   133.35409779     7.05759334
 C     37  36  35     1.402268286563   113.38463328   180.34161152
 C     38  37  36     1.418566340994   113.82175451   359.93791373
 S     39  38  37     1.735603000401   110.00120673   359.38813334
 C     39  38  37     1.432328719464   127.46633248   179.12734058
 S     41  39  38     1.772387943567   120.95607301   182.32162681
 C     42  41  39     1.727262865548    90.90086516   179.66686271
 C     43  42  41     1.389573784511   112.18558235     0.11571530
 C     41  39  38     1.400057762130   128.07933629     2.17195357
 C     43  42  41     1.448014550583   136.68542126   182.65616457
 C     46  43  42     1.427622854503   106.48272242   177.19089406
 C     44  43  42     1.519337333215   110.58339503   180.23867470
 C     46  43  42     1.408223871407   131.79446157   358.31944530
 C     49  46  43     1.390835153819   118.39391189   177.61025299
 C     50  49  46     1.426371965442   119.73173173     1.08106472
 C     47  46  43     1.389185170991   119.88798820   182.31113944
 C     50  49  46     1.541280630515   129.45592098   180.36301879
 C     53  50  49     1.523272074549   100.83397385   183.96086516
 C     54  53  50     1.389149963215   110.18337927   356.76192048
 C     54  53  50     1.409157330428   136.52000705   176.53671636
 C     56  54  53     1.400285183561   112.34565061   180.14117954
 S     55  54  53     1.724036840239   112.49030105   179.91115717
 C     57  56  54     1.433287602437   129.14367240   180.36899897
 S     59  57  56     1.739582522446   121.34796111   175.32639616
 C     60  59  57     1.756350821476    92.75935006   181.28801514
 C     61  60  59     1.398317698737   109.99640237   358.76963992
 C     62  61  60     1.405486357422   113.84169800     1.58292275
 C     32  26  25     1.383757499673   136.00252920   194.30455568
 O     38  37  36     1.345703080215   125.94628358   179.95768270
 C     65  38  37     1.428331612267   118.14105947     3.13338236
 C     66  65  38     1.523123004127   108.83351206   179.39381392
 C     67  66  65     1.530699024988   111.73525058    61.75387050
 C     67  66  65     1.531666391124   109.79564478   186.02630769
 C     48  44  43     1.547525050040   111.72857778   122.49729171
 C     70  48  44     1.527303157726   114.73392962   313.03592579
 C     48  44  43     1.557101361954   107.96645990   244.74914059
 C     72  48  44     1.526631351997   117.57964978   176.95957410
 C     53  50  49     1.546751205463   112.56138514   303.33133396
 C     74  53  50     1.527294376798   114.69272389   294.60142933
 C     53  50  49     1.557328194152   112.17232612    69.32140891
 C     76  53  50     1.526754506560   117.47359590   293.34656837
 O     63  62  61     1.345827570159   125.88504082   177.89843718
 C     78  63  62     1.432090580271   117.29904287   355.25576133
 C     79  78  63     1.521997301476   109.77122044   190.57221109
 C     80  79  78     1.531060643802   111.47967561    63.36472728
 C     80  79  78     1.533215604734   109.41865096   186.73186998
 H      4   3   1     1.090777706089   121.48241650   359.29711304
 H      7   6   5     1.087299339005   117.87756402   180.32670192
 H     21  20  18     1.091321066827   121.48100844   359.34596643
 H     24  23  22     1.088685575775   118.26334287   179.06595687
 H     35  15   9     1.090756379170   114.89856156     2.60870017
 H     37  36  35     1.085231094007   120.73500501   359.29794568
 H     45  41  39     1.086820681667   121.54280256     0.11143972
 H     49  46  43     1.091412012303   120.16644606   357.37833874
 H     52  47  46     1.091296836383   121.47004597   178.67909906
 H     56  54  53     1.087773580714   126.21188603   359.29934755
 H     62  61  60     1.084745209715   122.14472476   183.71659045
 H     64  32  26     1.098310566734   111.01893104   188.26810026
 H     66  65  38     1.104108057257   109.15570653    58.43265468
 H     66  65  38     1.106058617976   109.68341048   300.73757992
 H     67  66  65     1.105728262368   106.41447812   303.40100354
 H     68  67  66     1.103804161480   110.62652574    62.94489211
 H     68  67  66     1.100781897426   111.44757815   302.92829798
 H     68  67  66     1.100910149694   110.88954418   182.13291858
 H     69  67  66     1.103148286904   111.03249117   297.26107404
 H     69  67  66     1.100425332133   110.76905990   178.09958943
 H     69  67  66     1.101305182091   111.91678208    57.94762830
 H     70  48  44     1.101233656315   108.73387135   189.82011906
 H     70  48  44     1.104267577628   107.78522635    75.36325137
 H     71  70  48     1.101963966788   111.39836217   301.55303104
 H     71  70  48     1.101068742995   110.75890887   181.29417481
 H     71  70  48     1.099802061191   111.34645432    61.57346917
 H     72  48  44     1.102375078955   107.88234959    52.88081355
 H     72  48  44     1.103667575450   106.37479641   299.32586124
 H     73  72  48     1.099617511137   111.97548130   294.06161974
 H     73  72  48     1.101246067189   109.63605392   175.35714793
 H     73  72  48     1.101220955258   112.39285087    55.98750596
 H     74  53  50     1.104313877618   107.81826138   172.18786671
 H     74  53  50     1.101241889005   108.74053722    57.76238041
 H     75  74  53     1.099647886053   111.33160621   298.85845984
 H     75  74  53     1.101097270317   110.75265419   179.10378920
 H     75  74  53     1.102109917794   111.38153480    58.86460307
 H     76  53  50     1.103695723150   106.45324743   170.90236409
 H     76  53  50     1.102322679618   107.86939627    57.31962541
 H     77  76  53     1.101193392870   112.44524345   303.55478597
 H     77  76  53     1.101178874389   109.63629835   184.17862988
 H     77  76  53     1.099761948969   111.96145093    65.48935473
 H     79  78  63     1.105557684926   109.04273226    69.17446039
 H     79  78  63     1.104263922937   109.11144226   311.09827137
 H     80  79  78     1.105220556541   106.99110281   304.09956072
 H     81  80  79     1.102248288000   110.46036419    61.92692476
 H     81  80  79     1.100212024884   111.79571901   302.42954818
 H     81  80  79     1.101134811229   110.76379544   181.15063679
 H     82  80  79     1.102863156788   110.95279349   296.53533047
 H     82  80  79     1.100130430722   110.61344831   177.47851284
 H     82  80  79     1.101956734995   111.99992911    57.32264960

---------------------------
INTERNAL COORDINATES (A.U.)
---------------------------
 C      0   0   0     0.000000000000     0.00000000     0.00000000
 O      1   0   0     2.306880931287     0.00000000     0.00000000
 C      1   2   0     2.812243359743   124.63877257     0.00000000
 C      3   1   2     2.629081837042   127.62435373     4.49574401
 C      4   3   1     2.630567752382   117.69534928   179.06655072
 C      5   4   3     2.658486795741   120.33509851     1.12150176
 C      6   5   4     2.632309829045   121.77179018   359.05962390
 C      7   6   5     2.648117804311   118.24376137   359.85739946
 C      8   7   6     2.806302338079   132.05407272   181.38915805
 C      9   8   7     2.618552938853   124.32264411   353.76494693
 C     10   9   8     2.703409016770   124.03862149   182.60897956
 N     11  10   9     2.197472993680   178.17603362   184.92071916
 C     10   9   8     2.702594726293   122.68296882     0.69771963
 N     13  10   9     2.196781227172   178.99765956   192.75150130
 C      9   8   7     2.769949686974   107.56741422   176.11329373
 F      5   4   3     2.517143108516   120.74848760   181.34847536
 F      6   5   4     2.516011241538   118.69937998   179.21011903
 C     12  11  10    44.721239359707   131.13624794   158.92366616
 O     18  12  11     2.294262726353    86.71715532    46.74350898
 C     18  12  11     2.806889749685   144.21897381   207.94437937
 C     20  18  12     2.628502049017   127.85333331   202.12245345
 C     21  20  18     2.627872966035   117.53450617   179.81171044
 C     22  21  20     2.657503744055   120.38633601   359.24546137
 C     23  22  21     2.633278189411   121.99876482     1.61639387
 C     24  23  22     2.647541756744   117.98852630   359.21419828
 C     25  24  23     2.814942335694   131.84253765   174.25500870
 C     26  25  24     2.625665880806   123.85145759   345.53121149
 C     27  26  25     2.692798094879   123.01961485   200.80006307
 N     28  27  26     2.196970662623   177.82859761   142.99925309
 C     27  26  25     2.700820236535   122.93637699    14.50700672
 N     30  27  26     2.197304239108   178.00883757   133.67386364
 C     26  25  24     2.743215102785   107.38951335   175.15708820
 F     22  21  20     2.515391988244   121.11603492   179.33045692
 F     23  22  21     2.514180996909   117.98013467   181.18434523
 C     15   9   8     2.620104586785   124.82444868   191.18805617
 C     35  15   9     2.675398993643   132.50703257   180.58998528
 C     36  35  15     2.647448877938   133.35409779     7.05759334
 C     37  36  35     2.649903027887   113.38463328   180.34161152
 C     38  37  36     2.680701887277   113.82175451   359.93791373
 S     39  38  37     3.279814347969   110.00120673   359.38813334
 C     39  38  37     2.706709013536   127.46633248   179.12734058
 S     41  39  38     3.349327816405   120.95607301   182.32162681
 C     42  41  39     3.264053777177    90.90086516   179.66686271
 C     43  42  41     2.625913895602   112.18558235     0.11571530
 C     41  39  38     2.645725742096   128.07933629     2.17195357
 C     43  42  41     2.736350938535   136.68542126   182.65616457
 C     46  43  42     2.697816217538   106.48272242   177.19089406
 C     44  43  42     2.871131464818   110.58339503   180.23867470
 C     46  43  42     2.661157452209   131.79446157   358.31944530
 C     49  46  43     2.628297538149   118.39391189   177.61025299
 C     50  49  46     2.695452379789   119.73173173     1.08106472
 C     47  46  43     2.625179522477   119.88798820   182.31113944
 C     50  49  46     2.912598287190   129.45592098   180.36301879
 C     53  50  49     2.878567048347   100.83397385   183.96086516
 C     54  53  50     2.625112989423   110.18337927   356.76192048
 C     54  53  50     2.662921434117   136.52000705   176.53671636
 C     56  54  53     2.646155506318   112.34565061   180.14117954
 S     55  54  53     3.257957472842   112.49030105   179.91115717
 C     57  56  54     2.708521039751   129.14367240   180.36899897
 S     59  57  56     3.287334554779   121.34796111   175.32639616
 C     60  59  57     3.319022047678    92.75935006   181.28801514
 C     61  60  59     2.642437498827   109.99640237   358.76963992
 C     62  61  60     2.655984300491   113.84169800     1.58292275
 C     32  26  25     2.614922710141   136.00252920   194.30455568
 O     38  37  36     2.543010279181   125.94628358   179.95768270
 C     65  38  37     2.699155575606   118.14105947     3.13338236
 C     66  65  38     2.878285346075   108.83351206   179.39381392
 C     67  66  65     2.892601950688   111.73525058    61.75387050
 C     67  66  65     2.894430007757   109.79564478   186.02630769
 C     48  44  43     2.924398529958   111.72857778   122.49729171
 C     70  48  44     2.886184691575   114.73392962   313.03592579
 C     48  44  43     2.942495136849   107.96645990   244.74914059
 C     72  48  44     2.884915162732   117.57964978   176.95957410
 C     53  50  49     2.922936175637   112.56138514   303.33133396
 C     74  53  50     2.886168098027   114.69272389   294.60142933
 C     53  50  49     2.942923787581   112.17232612    69.32140891
 C     76  53  50     2.885147891128   117.47359590   293.34656837
 O     63  62  61     2.543245531081   125.88504082   177.89843718
 C     78  63  62     2.706258995680   117.29904287   355.25576133
 C     79  78  63     2.876158076357   109.77122044   190.57221109
 C     80  79  78     2.893285311211   111.47967561    63.36472728
 C     80  79  78     2.897357597202   109.41865096   186.73186998
 H      4   3   1     2.061271137494   121.48241650   359.29711304
 H      7   6   5     2.054697976312   117.87756402   180.32670192
 H     21  20  18     2.062297940481   121.48100844   359.34596643
 H     24  23  22     2.057317584165   118.26334287   179.06595687
 H     35  15   9     2.061230835459   114.89856156     2.60870017
 H     37  36  35     2.050789559689   120.73500501   359.29794568
 H     45  41  39     2.053793445033   121.54280256     0.11143972
 H     49  46  43     2.062469802525   120.16644606   357.37833874
 H     52  47  46     2.062252151579   121.47004597   178.67909906
 H     56  54  53     2.055594163265   126.21188603   359.29934755
 H     62  61  60     2.049871371445   122.14472476   183.71659045
 H     64  32  26     2.075506181119   111.01893104   188.26810026
 H     66  65  38     2.086461850472   109.15570653    58.43265468
 H     66  65  38     2.090147876039   109.68341048   300.73757992
 H     67  66  65     2.089523594413   106.41447812   303.40100354
 H     68  67  66     2.085887570679   110.62652574    62.94489211
 H     68  67  66     2.080176319313   111.44757815   302.92829798
 H     68  67  66     2.080418680977   110.88954418   182.13291858
 H     69  67  66     2.084648147354   111.03249117   297.26107404
 H     69  67  66     2.079502508561   110.76905990   178.09958943
 H     69  67  66     2.081165184020   111.91678208    57.94762830
 H     70  48  44     2.081030019891   108.73387135   189.82011906
 H     70  48  44     2.086763300285   107.78522635    75.36325137
 H     71  70  48     2.082410106680   111.39836217   301.55303104
 H     71  70  48     2.080718378881   110.75890887   181.29417481
 H     71  70  48     2.078324697173   111.34645432    61.57346917
 H     72  48  44     2.083186996084   107.88234959    52.88081355
 H     72  48  44     2.085629460490   106.37479641   299.32586124
 H     73  72  48     2.077975948114   111.97548130   294.06161974
 H     73  72  48     2.081053473046   109.63605392   175.35714793
 H     73  72  48     2.081006018373   112.39285087    55.98750596
 H     74  53  50     2.086850794587   107.81826138   172.18786671
 H     74  53  50     2.081045577422   108.74053722    57.76238041
 H     75  74  53     2.078033348385   111.33160621   298.85845984
 H     75  74  53     2.080772287708   110.75265419   179.10378920
 H     75  74  53     2.082685914109   111.38153480    58.86460307
 H     76  53  50     2.085682651934   106.45324743   170.90236409
 H     76  53  50     2.083087975688   107.86939627    57.31962541
 H     77  76  53     2.080953933007   112.44524345   303.55478597
 H     77  76  53     2.080926497054   109.63629835   184.17862988
 H     77  76  53     2.078248896059   111.96145093    65.48935473
 H     79  78  63     2.089201249763   109.04273226    69.17446039
 H     79  78  63     2.086756393920   109.11144226   311.09827137
 H     80  79  78     2.088564169442   106.99110281   304.09956072
 H     81  80  79     2.082947395904   110.46036419    61.92692476
 H     81  80  79     2.079099416278   111.79571901   302.42954818
 H     81  80  79     2.080843229750   110.76379544   181.15063679
 H     82  80  79     2.084109329521   110.95279349   296.53533047
 H     82  80  79     2.078945225657   110.61344831   177.47851284
 H     82  80  79     2.082396440570   111.99992911    57.32264960

---------------------
BASIS SET INFORMATION
---------------------
There are 6 groups of distinct atoms

 Group   1 Type C   : 7s4p1d contracted to 3s2p1d pattern {511/31/1}
 Group   2 Type O   : 7s4p1d contracted to 3s2p1d pattern {511/31/1}
 Group   3 Type N   : 7s4p1d contracted to 3s2p1d pattern {511/31/1}
 Group   4 Type F   : 7s4p1d contracted to 3s2p1d pattern {511/31/1}
 Group   5 Type S   : 10s7p1d contracted to 4s3p1d pattern {5311/511/1}
 Group   6 Type H   : 4s1p contracted to 2s1p pattern {31/1}

Atom   0C    basis set group =>   1
Atom   1O    basis set group =>   2
Atom   2C    basis set group =>   1
Atom   3C    basis set group =>   1
Atom   4C    basis set group =>   1
Atom   5C    basis set group =>   1
Atom   6C    basis set group =>   1
Atom   7C    basis set group =>   1
Atom   8C    basis set group =>   1
Atom   9C    basis set group =>   1
Atom  10C    basis set group =>   1
Atom  11N    basis set group =>   3
Atom  12C    basis set group =>   1
Atom  13N    basis set group =>   3
Atom  14C    basis set group =>   1
Atom  15F    basis set group =>   4
Atom  16F    basis set group =>   4
Atom  17C    basis set group =>   1
Atom  18O    basis set group =>   2
Atom  19C    basis set group =>   1
Atom  20C    basis set group =>   1
Atom  21C    basis set group =>   1
Atom  22C    basis set group =>   1
Atom  23C    basis set group =>   1
Atom  24C    basis set group =>   1
Atom  25C    basis set group =>   1
Atom  26C    basis set group =>   1
Atom  27C    basis set group =>   1
Atom  28N    basis set group =>   3
Atom  29C    basis set group =>   1
Atom  30N    basis set group =>   3
Atom  31C    basis set group =>   1
Atom  32F    basis set group =>   4
Atom  33F    basis set group =>   4
Atom  34C    basis set group =>   1
Atom  35C    basis set group =>   1
Atom  36C    basis set group =>   1
Atom  37C    basis set group =>   1
Atom  38C    basis set group =>   1
Atom  39S    basis set group =>   5
Atom  40C    basis set group =>   1
Atom  41S    basis set group =>   5
Atom  42C    basis set group =>   1
Atom  43C    basis set group =>   1
Atom  44C    basis set group =>   1
Atom  45C    basis set group =>   1
Atom  46C    basis set group =>   1
Atom  47C    basis set group =>   1
Atom  48C    basis set group =>   1
Atom  49C    basis set group =>   1
Atom  50C    basis set group =>   1
Atom  51C    basis set group =>   1
Atom  52C    basis set group =>   1
Atom  53C    basis set group =>   1
Atom  54C    basis set group =>   1
Atom  55C    basis set group =>   1
Atom  56C    basis set group =>   1
Atom  57S    basis set group =>   5
Atom  58C    basis set group =>   1
Atom  59S    basis set group =>   5
Atom  60C    basis set group =>   1
Atom  61C    basis set group =>   1
Atom  62C    basis set group =>   1
Atom  63C    basis set group =>   1
Atom  64O    basis set group =>   2
Atom  65C    basis set group =>   1
Atom  66C    basis set group =>   1
Atom  67C    basis set group =>   1
Atom  68C    basis set group =>   1
Atom  69C    basis set group =>   1
Atom  70C    basis set group =>   1
Atom  71C    basis set group =>   1
Atom  72C    basis set group =>   1
Atom  73C    basis set group =>   1
Atom  74C    basis set group =>   1
Atom  75C    basis set group =>   1
Atom  76C    basis set group =>   1
Atom  77O    basis set group =>   2
Atom  78C    basis set group =>   1
Atom  79C    basis set group =>   1
Atom  80C    basis set group =>   1
Atom  81C    basis set group =>   1
Atom  82H    basis set group =>   6
Atom  83H    basis set group =>   6
Atom  84H    basis set group =>   6
Atom  85H    basis set group =>   6
Atom  86H    basis set group =>   6
Atom  87H    basis set group =>   6
Atom  88H    basis set group =>   6
Atom  89H    basis set group =>   6
Atom  90H    basis set group =>   6
Atom  91H    basis set group =>   6
Atom  92H    basis set group =>   6
Atom  93H    basis set group =>   6
Atom  94H    basis set group =>   6
Atom  95H    basis set group =>   6
Atom  96H    basis set group =>   6
Atom  97H    basis set group =>   6
Atom  98H    basis set group =>   6
Atom  99H    basis set group =>   6
Atom 100H    basis set group =>   6
Atom 101H    basis set group =>   6
Atom 102H    basis set group =>   6
Atom 103H    basis set group =>   6
Atom 104H    basis set group =>   6
Atom 105H    basis set group =>   6
Atom 106H    basis set group =>   6
Atom 107H    basis set group =>   6
Atom 108H    basis set group =>   6
Atom 109H    basis set group =>   6
Atom 110H    basis set group =>   6
Atom 111H    basis set group =>   6
Atom 112H    basis set group =>   6
Atom 113H    basis set group =>   6
Atom 114H    basis set group =>   6
Atom 115H    basis set group =>   6
Atom 116H    basis set group =>   6
Atom 117H    basis set group =>   6
Atom 118H    basis set group =>   6
Atom 119H    basis set group =>   6
Atom 120H    basis set group =>   6
Atom 121H    basis set group =>   6
Atom 122H    basis set group =>   6
Atom 123H    basis set group =>   6
Atom 124H    basis set group =>   6
Atom 125H    basis set group =>   6
Atom 126H    basis set group =>   6
Atom 127H    basis set group =>   6
Atom 128H    basis set group =>   6
Atom 129H    basis set group =>   6
Atom 130H    basis set group =>   6
Atom 131H    basis set group =>   6
------------------------------------------------------------------------------
                           ORCA GTO INTEGRAL CALCULATION
------------------------------------------------------------------------------

                         BASIS SET STATISTICS AND STARTUP INFO

 # of primitive gaussian shells          ... 1258
 # of primitive gaussian functions       ... 2366
 # of contracted shells                  ...  650
 # of contracted basis functions         ... 1414
 Highest angular momentum                ...    2
 Maximum contraction depth               ...    5
 Integral package used                   ... LIBINT
 Integral threshhold            Thresh   ...  2.500e-11
 Primitive cut-off              TCut     ...  2.500e-12


------------------------------ INTEGRAL EVALUATION ----------------------------


 * One electron integrals 
 Pre-screening matrix                    ... done
 Shell pair data                         ... done (   0.022 sec)

-------------------------------------------------------------------------------
                                 ORCA SCF
-------------------------------------------------------------------------------

------------
SCF SETTINGS
------------
Hamiltonian:
 Ab initio Hamiltonian  Method          .... Hartree-Fock(GTOs)


General Settings:
 Integral files         IntName         .... o-IO2
 Hartree-Fock type      HFTyp           .... RHF
 Total Charge           Charge          ....    0
 Multiplicity           Mult            ....    1
 Number of Electrons    NEL             ....  606
 Basis Dimension        Dim             .... 1414
 Nuclear Repulsion      ENuc            ....  12822.9150981253 Eh

Convergence Acceleration:
 DIIS                   CNVDIIS         .... on
   Start iteration      DIISMaxIt       ....    12
   Startup error        DIISStart       ....  0.200000
   # of expansion vecs  DIISMaxEq       ....     5
   Bias factor          DIISBfac        ....   1.050
   Max. coefficient     DIISMaxC        ....  10.000
 Newton-Raphson         CNVNR           .... off
 SOSCF                  CNVSOSCF        .... on
   Start iteration      SOSCFMaxIt      ....   150
   Startup grad/error   SOSCFStart      ....  0.003300
 Level Shifting         CNVShift        .... on
   Level shift para.    LevelShift      ....    0.2500
   Turn off err/grad.   ShiftErr        ....    0.0010
 Zerner damping         CNVZerner       .... off
 Static damping         CNVDamp         .... on
   Fraction old density DampFac         ....    0.7000
   Max. Damping (<1)    DampMax         ....    0.9800
   Min. Damping (>=0)   DampMin         ....    0.0000
   Turn off err/grad.   DampErr         ....    0.1000
 Fernandez-Rico         CNVRico         .... off

SCF Procedure:
 Maximum # iterations   MaxIter         ....   125
 SCF integral mode      SCFMode         .... Direct
   Integral package                     .... LIBINT
 Reset frequency        DirectResetFreq ....    20
 Integral Threshold     Thresh          ....  2.500e-11 Eh
 Primitive CutOff       TCut            ....  2.500e-12 Eh

Convergence Tolerance:
 Convergence Check Mode ConvCheckMode   .... Total+1el-Energy
 Convergence forced     ConvForced      .... 1
 Energy Change          TolE            ....  1.000e-08 Eh
 1-El. energy change                    ....  1.000e-05 Eh
 Orbital Gradient       TolG            ....  1.000e-05
 Orbital Rotation angle TolX            ....  1.000e-05
 DIIS Error             TolErr          ....  5.000e-07


Diagonalization of the overlap matrix:
Smallest eigenvalue                        ... 2.186e-04
Time for diagonalization                   ...    0.531 sec
Threshold for overlap eigenvalues          ... 1.000e-08
Number of eigenvalues below threshold      ... 0
Time for construction of square roots      ...    0.232 sec
Total time needed                          ...    0.769 sec

-------------------
DFT GRID GENERATION
-------------------

General Integration Accuracy     IntAcc      ...  4.340
Radial Grid Type                 RadialGrid  ... Gauss-Chebyshev
Angular Grid (max. acc.)         AngularGrid ... Lebedev-110
Angular grid pruning method      GridPruning ... 3 (G Style)
Weight generation scheme         WeightScheme... Becke
Basis function cutoff            BFCut       ...    1.0000e-11
Integration weight cutoff        WCut        ...    1.0000e-14
Grids for H and He will be reduced by one unit

# of grid points (after initial pruning)     ... 176852 (   0.4 sec)
# of grid points (after weights+screening)   ... 154151 (  10.9 sec)
nearest neighbour list constructed           ...    0.0 sec
Grid point re-assignment to atoms done       ...    0.0 sec
Grid point division into batches done        ...    0.1 sec
Reduced shell lists constructed in    2.8 sec

Total number of grid points                  ...   154151
Total number of batches                      ...     2475
Average number of points per batch           ...       62
Average number of grid points per atom       ...     1168
Average number of shells per batch           ...   112.05 (17.24%)
Average number of basis functions per batch  ...   225.43 (15.94%)
Average number of large shells per batch     ...    66.29 (59.16%)
Average number of large basis fcns per batch ...   135.89 (60.28%)
Maximum spatial batch extension              ...  26.15, 22.16, 25.60 au
Average spatial batch extension              ...   3.37,  3.36,  3.17 au

Time for grid setup =   14.054 sec

------------------------------
INITIAL GUESS: MODEL POTENTIAL
------------------------------
Loading Hartree-Fock densities                     ... done
Calculating cut-offs                               ... done
Setting up the integral package                    ... done
Initializing the effective Hamiltonian             ... done
Starting the Coulomb interaction                   ... done (  13.2 sec)
Reading the grid                                   ... done
Mapping shells                                     ... done
Starting the XC term evaluation                    ... done (   2.6 sec)
Transforming the Hamiltonian                       ... done (   0.2 sec)
Diagonalizing the Hamiltonian                      ... done (   0.5 sec)
Back transforming the eigenvectors                 ... done (   0.1 sec)
Now organizing SCF variables                       ... done
                      ------------------
                      INITIAL GUESS DONE (  31.0 sec)
                      ------------------
--------------
SCF ITERATIONS
--------------
ITER       Energy         Delta-E        Max-DP      RMS-DP      [F,P]     Damp
               ***  Starting incremental Fock matrix formation  ***
  0  -5027.5367871380   0.000000000000 0.14175773  0.00116867  0.2319605 0.7000
  1  -5028.4698378053  -0.933050667281 0.09890817  0.00089841  0.1394632 0.7000
                               ***Turning on DIIS***
  2  -5029.0293822694  -0.559544464082 0.19983136  0.00206946  0.0769784 0.0000
  3  -5025.6278769618   3.401505307571 0.05942152  0.00051172  0.0506180 0.0000
  4  -5030.4611745321  -4.833297570342 0.01261685  0.00018506  0.0163915 0.0000
  5  -5030.3915958859   0.069578646242 0.00765553  0.00008918  0.0101980 0.0000
  6  -5030.1521672124   0.239428673460 0.00467410  0.00005605  0.0025066 0.0000
  7  -5030.2423076060  -0.090140393520 0.00233401  0.00003495  0.0016060 0.0000
  8  -5030.2208903912   0.021417214757 0.00234434  0.00002762  0.0010409 0.0000
                      *** Initiating the SOSCF procedure ***
                           *** Shutting down DIIS ***
                      *** Re-Reading the Fockian *** 
                      *** Removing any level shift *** 
ITER      Energy       Delta-E        Grad      Rot      Max-DP    RMS-DP
  9  -5030.21390516   0.0069852292  0.002348  0.002348  0.001991  0.000027
               *** Restarting incremental Fock matrix formation ***
 10  -5030.23161095  -0.0177057840  0.000360  0.001626  0.000618  0.000006
 11  -5030.23162174  -0.0000107965  0.000279  0.002554  0.000556  0.000007
 12  -5030.23162863  -0.0000068924  0.000071  0.000415  0.000132  0.000002
 13  -5030.23162922  -0.0000005870  0.000038  0.000194  0.000067  0.000001
 14  -5030.23162942  -0.0000001998  0.000015  0.000118  0.000053  0.000000
 15  -5030.23162947  -0.0000000480  0.000010  0.000065  0.000030  0.000000
 16  -5030.23162949  -0.0000000223  0.000005  0.000044  0.000017  0.000000
                  ***Gradient check signals convergence***
              ***Rediagonalizing the Fockian in SOSCF/NRSCF***

               *****************************************************
               *                     SUCCESS                       *
               *           SCF CONVERGED AFTER  17 CYCLES          *
               *****************************************************


----------------
TOTAL SCF ENERGY
----------------

Total Energy       :        -5030.23162950 Eh         -136879.56146 eV

Components:
Nuclear Repulsion  :        12822.91509813 Eh          348929.25904 eV
Electronic Energy  :       -17853.14672763 Eh         -485808.82050 eV
One Electron Energy:       -32443.83674533 Eh         -882841.68064 eV
Two Electron Energy:        14590.69001770 Eh          397032.86014 eV

Virial components:
Potential Energy   :       -10043.95373230 Eh         -273309.87586 eV
Kinetic Energy     :         5013.72210280 Eh          136430.31440 eV
Virial Ratio       :            2.00329287


---------------
SCF CONVERGENCE
---------------

  Last Energy change         ...   -8.3455e-09  Tolerance :   1.0000e-08
  Last MAX-Density change    ...    6.3165e-06  Tolerance :   1.0000e-07
  Last RMS-Density change    ...    6.9369e-08  Tolerance :   5.0000e-09
  Last Orbital Gradient      ...    1.5525e-06  Tolerance :   1.0000e-05
  Last Orbital Rotation      ...    1.1760e-05  Tolerance :   1.0000e-05

             **** THE GBW FILE WAS UPDATED (o-IO2.gbw) ****
             **** DENSITY FILE WAS UPDATED (o-IO2.scfp) ****
             **** ENERGY FILE WAS UPDATED (o-IO2.en.tmp) ****
             **** THE GBW FILE WAS UPDATED (o-IO2.gbw) ****
             **** DENSITY FILE WAS UPDATED (o-IO2.scfp) ****
----------------
ORBITAL ENERGIES
----------------

  NO   OCC          E(Eh)            E(eV) 
   0   2.0000     -91.982968     -2502.9838 
   1   2.0000     -91.981995     -2502.9573 
   2   2.0000     -91.973064     -2502.7143 
   3   2.0000     -91.972149     -2502.6894 
   4   2.0000     -26.337793      -716.6878 
   5   2.0000     -26.337452      -716.6785 
   6   2.0000     -26.335768      -716.6327 
   7   2.0000     -26.334764      -716.6053 
   8   2.0000     -20.605711      -560.7099 
   9   2.0000     -20.605086      -560.6929 
  10   2.0000     -20.574247      -559.8537 
  11   2.0000     -20.568330      -559.6927 
  12   2.0000     -15.599176      -424.4752 
  13   2.0000     -15.598161      -424.4475 
  14   2.0000     -15.597123      -424.4193 
  15   2.0000     -15.593864      -424.3306 
  16   2.0000     -11.380090      -309.6680 
  17   2.0000     -11.379745      -309.6586 
  18   2.0000     -11.378666      -309.6292 
  19   2.0000     -11.378049      -309.6125 
  20   2.0000     -11.375172      -309.5342 
  21   2.0000     -11.367818      -309.3341 
  22   2.0000     -11.354683      -308.9766 
  23   2.0000     -11.350354      -308.8588 
  24   2.0000     -11.337258      -308.5025 
  25   2.0000     -11.334554      -308.4289 
  26   2.0000     -11.331334      -308.3413 
  27   2.0000     -11.327916      -308.2483 
  28   2.0000     -11.327717      -308.2429 
  29   2.0000     -11.327468      -308.2361 
  30   2.0000     -11.320802      -308.0547 
  31   2.0000     -11.319898      -308.0301 
  32   2.0000     -11.311742      -307.8081 
  33   2.0000     -11.311477      -307.8009 
  34   2.0000     -11.311360      -307.7977 
  35   2.0000     -11.310722      -307.7804 
  36   2.0000     -11.308915      -307.7312 
  37   2.0000     -11.308333      -307.7154 
  38   2.0000     -11.308254      -307.7132 
  39   2.0000     -11.306538      -307.6665 
  40   2.0000     -11.304275      -307.6050 
  41   2.0000     -11.302215      -307.5489 
  42   2.0000     -11.301774      -307.5369 
  43   2.0000     -11.301504      -307.5296 
  44   2.0000     -11.299211      -307.4672 
  45   2.0000     -11.298924      -307.4593 
  46   2.0000     -11.298811      -307.4563 
  47   2.0000     -11.297434      -307.4188 
  48   2.0000     -11.294088      -307.3278 
  49   2.0000     -11.292204      -307.2765 
  50   2.0000     -11.292127      -307.2744 
  51   2.0000     -11.288094      -307.1647 
  52   2.0000     -11.286332      -307.1167 
  53   2.0000     -11.283263      -307.0332 
  54   2.0000     -11.282165      -307.0033 
  55   2.0000     -11.281847      -306.9947 
  56   2.0000     -11.272749      -306.7471 
  57   2.0000     -11.271845      -306.7225 
  58   2.0000     -11.271767      -306.7204 
  59   2.0000     -11.270996      -306.6994 
  60   2.0000     -11.270147      -306.6763 
  61   2.0000     -11.269978      -306.6717 
  62   2.0000     -11.265232      -306.5425 
  63   2.0000     -11.264871      -306.5327 
  64   2.0000     -11.263918      -306.5068 
  65   2.0000     -11.263648      -306.4994 
  66   2.0000     -11.255599      -306.2804 
  67   2.0000     -11.254891      -306.2611 
  68   2.0000     -11.253033      -306.2106 
  69   2.0000     -11.250631      -306.1452 
  70   2.0000     -11.248071      -306.0756 
  71   2.0000     -11.247209      -306.0521 
  72   2.0000     -11.246512      -306.0331 
  73   2.0000     -11.246061      -306.0209 
  74   2.0000     -11.243024      -305.9382 
  75   2.0000     -11.240262      -305.8631 
  76   2.0000     -11.238610      -305.8181 
  77   2.0000     -11.236770      -305.7680 
  78   2.0000     -11.234953      -305.7186 
  79   2.0000     -11.233810      -305.6875 
  80   2.0000     -11.230559      -305.5990 
  81   2.0000     -11.229803      -305.5785 
  82   2.0000      -9.018326      -245.4011 
  83   2.0000      -9.017288      -245.3729 
  84   2.0000      -9.007890      -245.1172 
  85   2.0000      -9.007179      -245.0978 
  86   2.0000      -6.705767      -182.4732 
  87   2.0000      -6.704700      -182.4442 
  88   2.0000      -6.704677      -182.4435 
  89   2.0000      -6.703607      -182.4144 
  90   2.0000      -6.702783      -182.3920 
  91   2.0000      -6.701763      -182.3643 
  92   2.0000      -6.695440      -182.1922 
  93   2.0000      -6.694751      -182.1734 
  94   2.0000      -6.694465      -182.1657 
  95   2.0000      -6.693756      -182.1463 
  96   2.0000      -6.692544      -182.1134 
  97   2.0000      -6.691832      -182.0940 
  98   2.0000      -1.650207       -44.9044 
  99   2.0000      -1.649109       -44.8745 
 100   2.0000      -1.634105       -44.4663 
 101   2.0000      -1.633584       -44.4521 
 102   2.0000      -1.427027       -38.8314 
 103   2.0000      -1.426349       -38.8129 
 104   2.0000      -1.401367       -38.1331 
 105   2.0000      -1.397575       -38.0300 
 106   2.0000      -1.247391       -33.9432 
 107   2.0000      -1.245241       -33.8847 
 108   2.0000      -1.225773       -33.3550 
 109   2.0000      -1.225324       -33.3427 
 110   2.0000      -1.225003       -33.3340 
 111   2.0000      -1.223875       -33.3033 
 112   2.0000      -1.220662       -33.2159 
 113   2.0000      -1.216407       -33.1001 
 114   2.0000      -1.205139       -32.7935 
 115   2.0000      -1.199582       -32.6423 
 116   2.0000      -1.167259       -31.7627 
 117   2.0000      -1.165540       -31.7159 
 118   2.0000      -1.158083       -31.5130 
 119   2.0000      -1.135318       -30.8936 
 120   2.0000      -1.107404       -30.1340 
 121   2.0000      -1.105733       -30.0885 
 122   2.0000      -1.100240       -29.9391 
 123   2.0000      -1.096888       -29.8478 
 124   2.0000      -1.096299       -29.8318 
 125   2.0000      -1.086925       -29.5767 
 126   2.0000      -1.084484       -29.5103 
 127   2.0000      -1.072413       -29.1818 
 128   2.0000      -1.068891       -29.0860 
 129   2.0000      -1.067320       -29.0432 
 130   2.0000      -1.048098       -28.5202 
 131   2.0000      -1.029143       -28.0044 
 132   2.0000      -1.022293       -27.8180 
 133   2.0000      -1.020898       -27.7800 
 134   2.0000      -1.019625       -27.7454 
 135   2.0000      -1.017687       -27.6927 
 136   2.0000      -1.016649       -27.6644 
 137   2.0000      -1.002905       -27.2904 
 138   2.0000      -1.000513       -27.2253 
 139   2.0000      -0.998809       -27.1790 
 140   2.0000      -0.970549       -26.4100 
 141   2.0000      -0.964752       -26.2522 
 142   2.0000      -0.948625       -25.8134 
 143   2.0000      -0.940588       -25.5947 
 144   2.0000      -0.938389       -25.5349 
 145   2.0000      -0.937700       -25.5161 
 146   2.0000      -0.936673       -25.4882 
 147   2.0000      -0.934172       -25.4201 
 148   2.0000      -0.926203       -25.2033 
 149   2.0000      -0.923508       -25.1299 
 150   2.0000      -0.914828       -24.8937 
 151   2.0000      -0.895992       -24.3812 
 152   2.0000      -0.882215       -24.0063 
 153   2.0000      -0.868507       -23.6333 
 154   2.0000      -0.858165       -23.3519 
 155   2.0000      -0.854841       -23.2614 
 156   2.0000      -0.846628       -23.0379 
 157   2.0000      -0.843909       -22.9639 
 158   2.0000      -0.842807       -22.9339 
 159   2.0000      -0.832334       -22.6489 
 160   2.0000      -0.826587       -22.4926 
 161   2.0000      -0.825155       -22.4536 
 162   2.0000      -0.812729       -22.1155 
 163   2.0000      -0.804097       -21.8806 
 164   2.0000      -0.802954       -21.8495 
 165   2.0000      -0.797910       -21.7122 
 166   2.0000      -0.795800       -21.6548 
 167   2.0000      -0.792991       -21.5784 
 168   2.0000      -0.786009       -21.3884 
 169   2.0000      -0.785198       -21.3663 
 170   2.0000      -0.777854       -21.1665 
 171   2.0000      -0.776289       -21.1239 
 172   2.0000      -0.765431       -20.8284 
 173   2.0000      -0.764246       -20.7962 
 174   2.0000      -0.759495       -20.6669 
 175   2.0000      -0.752137       -20.4667 
 176   2.0000      -0.750511       -20.4224 
 177   2.0000      -0.747176       -20.3317 
 178   2.0000      -0.744825       -20.2677 
 179   2.0000      -0.744069       -20.2471 
 180   2.0000      -0.737705       -20.0740 
 181   2.0000      -0.731430       -19.9032 
 182   2.0000      -0.727216       -19.7886 
 183   2.0000      -0.722613       -19.6633 
 184   2.0000      -0.717631       -19.5277 
 185   2.0000      -0.716481       -19.4964 
 186   2.0000      -0.716147       -19.4874 
 187   2.0000      -0.713724       -19.4214 
 188   2.0000      -0.706927       -19.2365 
 189   2.0000      -0.696955       -18.9651 
 190   2.0000      -0.696181       -18.9441 
 191   2.0000      -0.692877       -18.8541 
 192   2.0000      -0.691725       -18.8228 
 193   2.0000      -0.689766       -18.7695 
 194   2.0000      -0.673366       -18.3232 
 195   2.0000      -0.670680       -18.2501 
 196   2.0000      -0.666543       -18.1376 
 197   2.0000      -0.662839       -18.0368 
 198   2.0000      -0.661973       -18.0132 
 199   2.0000      -0.657994       -17.9049 
 200   2.0000      -0.653888       -17.7932 
 201   2.0000      -0.651909       -17.7393 
 202   2.0000      -0.643970       -17.5233 
 203   2.0000      -0.643097       -17.4996 
 204   2.0000      -0.639739       -17.4082 
 205   2.0000      -0.636020       -17.3070 
 206   2.0000      -0.631000       -17.1704 
 207   2.0000      -0.628918       -17.1137 
 208   2.0000      -0.628146       -17.0927 
 209   2.0000      -0.627083       -17.0638 
 210   2.0000      -0.626217       -17.0402 
 211   2.0000      -0.625150       -17.0112 
 212   2.0000      -0.624731       -16.9998 
 213   2.0000      -0.622444       -16.9376 
 214   2.0000      -0.620975       -16.8976 
 215   2.0000      -0.620241       -16.8776 
 216   2.0000      -0.619554       -16.8589 
 217   2.0000      -0.618566       -16.8320 
 218   2.0000      -0.616183       -16.7672 
 219   2.0000      -0.610100       -16.6017 
 220   2.0000      -0.604121       -16.4390 
 221   2.0000      -0.601516       -16.3681 
 222   2.0000      -0.596104       -16.2208 
 223   2.0000      -0.590308       -16.0631 
 224   2.0000      -0.585171       -15.9233 
 225   2.0000      -0.583257       -15.8712 
 226   2.0000      -0.581627       -15.8269 
 227   2.0000      -0.580946       -15.8084 
 228   2.0000      -0.579139       -15.7592 
 229   2.0000      -0.575994       -15.6736 
 230   2.0000      -0.574458       -15.6318 
 231   2.0000      -0.574029       -15.6201 
 232   2.0000      -0.572581       -15.5807 
 233   2.0000      -0.572100       -15.5676 
 234   2.0000      -0.570420       -15.5219 
 235   2.0000      -0.568464       -15.4687 
 236   2.0000      -0.568411       -15.4673 
 237   2.0000      -0.562156       -15.2970 
 238   2.0000      -0.561262       -15.2727 
 239   2.0000      -0.560417       -15.2497 
 240   2.0000      -0.558847       -15.2070 
 241   2.0000      -0.553915       -15.0728 
 242   2.0000      -0.549908       -14.9638 
 243   2.0000      -0.548241       -14.9184 
 244   2.0000      -0.547019       -14.8851 
 245   2.0000      -0.546042       -14.8586 
 246   2.0000      -0.544669       -14.8212 
 247   2.0000      -0.539748       -14.6873 
 248   2.0000      -0.539448       -14.6791 
 249   2.0000      -0.535027       -14.5588 
 250   2.0000      -0.533106       -14.5065 
 251   2.0000      -0.530429       -14.4337 
 252   2.0000      -0.529026       -14.3955 
 253   2.0000      -0.525688       -14.3047 
 254   2.0000      -0.523570       -14.2471 
 255   2.0000      -0.522474       -14.2172 
 256   2.0000      -0.519437       -14.1346 
 257   2.0000      -0.517163       -14.0727 
 258   2.0000      -0.516187       -14.0462 
 259   2.0000      -0.515017       -14.0143 
 260   2.0000      -0.513430       -13.9711 
 261   2.0000      -0.502055       -13.6616 
 262   2.0000      -0.501372       -13.6430 
 263   2.0000      -0.499858       -13.6018 
 264   2.0000      -0.498818       -13.5735 
 265   2.0000      -0.498145       -13.5552 
 266   2.0000      -0.497196       -13.5294 
 267   2.0000      -0.496833       -13.5195 
 268   2.0000      -0.495926       -13.4948 
 269   2.0000      -0.491842       -13.3837 
 270   2.0000      -0.490689       -13.3523 
 271   2.0000      -0.488941       -13.3048 
 272   2.0000      -0.487208       -13.2576 
 273   2.0000      -0.483470       -13.1559 
 274   2.0000      -0.482830       -13.1385 
 275   2.0000      -0.481560       -13.1039 
 276   2.0000      -0.480985       -13.0883 
 277   2.0000      -0.479002       -13.0343 
 278   2.0000      -0.477286       -12.9876 
 279   2.0000      -0.470792       -12.8109 
 280   2.0000      -0.470315       -12.7979 
 281   2.0000      -0.468212       -12.7407 
 282   2.0000      -0.466257       -12.6875 
 283   2.0000      -0.464570       -12.6416 
 284   2.0000      -0.460498       -12.5308 
 285   2.0000      -0.450986       -12.2719 
 286   2.0000      -0.450670       -12.2633 
 287   2.0000      -0.436666       -11.8823 
 288   2.0000      -0.420604       -11.4452 
 289   2.0000      -0.399838       -10.8801 
 290   2.0000      -0.391545       -10.6545 
 291   2.0000      -0.388700       -10.5771 
 292   2.0000      -0.372454       -10.1350 
 293   2.0000      -0.369867       -10.0646 
 294   2.0000      -0.366442        -9.9714 
 295   2.0000      -0.363345        -9.8871 
 296   2.0000      -0.359983        -9.7956 
 297   2.0000      -0.356410        -9.6984 
 298   2.0000      -0.351965        -9.5775 
 299   2.0000      -0.351296        -9.5593 
 300   2.0000      -0.325665        -8.8618 
 301   2.0000      -0.281761        -7.6671 
 302   2.0000      -0.247507        -6.7350 
 303   0.0000      -0.034549        -0.9401 
 304   0.0000      -0.025765        -0.7011 
 305   0.0000       0.009617         0.2617 
 306   0.0000       0.013641         0.3712 
 307   0.0000       0.041506         1.1294 
 308   0.0000       0.061632         1.6771 
 309   0.0000       0.082008         2.2315 
 310   0.0000       0.101687         2.7670 
 311   0.0000       0.107040         2.9127 
 312   0.0000       0.124509         3.3881 
 313   0.0000       0.127760         3.4765 
 314   0.0000       0.129150         3.5144 
 315   0.0000       0.140159         3.8139 
 316   0.0000       0.142120         3.8673 
 317   0.0000       0.142686         3.8827 
 318   0.0000       0.145707         3.9649 
 319   0.0000       0.147907         4.0248 
 320   0.0000       0.153302         4.1716 
 321   0.0000       0.160682         4.3724 
 322   0.0000       0.164201         4.4681 
 323   0.0000       0.165727         4.5097 
 324   0.0000       0.174339         4.7440 
 325   0.0000       0.176224         4.7953 
 326   0.0000       0.179486         4.8840 
 327   0.0000       0.183906         5.0043 
 328   0.0000       0.186836         5.0841 
 329   0.0000       0.190437         5.1820 
 330   0.0000       0.191725         5.2171 
 331   0.0000       0.193122         5.2551 
 332   0.0000       0.195805         5.3281 
 333   0.0000       0.200468         5.4550 
 334   0.0000       0.202183         5.5017 
 335   0.0000       0.202812         5.5188 
 336   0.0000       0.203822         5.5463 
 337   0.0000       0.204496         5.5646 
 338   0.0000       0.206555         5.6206 
 339   0.0000       0.208991         5.6869 
 340   0.0000       0.211166         5.7461 
 341   0.0000       0.214040         5.8243 
 342   0.0000       0.215383         5.8609 
 343   0.0000       0.218056         5.9336 
 344   0.0000       0.218792         5.9536 
 345   0.0000       0.221826         6.0362 
 346   0.0000       0.224609         6.1119 
 347   0.0000       0.225041         6.1237 
 348   0.0000       0.228420         6.2156 
 349   0.0000       0.229990         6.2584 
 350   0.0000       0.230960         6.2847 
 351   0.0000       0.233063         6.3420 
 352   0.0000       0.236576         6.4376 
 353   0.0000       0.236964         6.4481 
 354   0.0000       0.238610         6.4929 
 355   0.0000       0.241424         6.5695 
 356   0.0000       0.244574         6.6552 
 357   0.0000       0.246314         6.7025 
 358   0.0000       0.247222         6.7273 
 359   0.0000       0.249751         6.7961 
 360   0.0000       0.250672         6.8211 
 361   0.0000       0.252672         6.8755 
 362   0.0000       0.254806         6.9336 
 363   0.0000       0.256899         6.9906 
 364   0.0000       0.259314         7.0563 
 365   0.0000       0.260359         7.0847 
 366   0.0000       0.263139         7.1604 
 367   0.0000       0.265168         7.2156 
 368   0.0000       0.267849         7.2885 
 369   0.0000       0.269154         7.3241 
 370   0.0000       0.271396         7.3851 
 371   0.0000       0.274138         7.4597 
 372   0.0000       0.274530         7.4703 
 373   0.0000       0.276635         7.5276 
 374   0.0000       0.278012         7.5651 
 375   0.0000       0.280241         7.6258 
 376   0.0000       0.281648         7.6640 
 377   0.0000       0.283587         7.7168 
 378   0.0000       0.286471         7.7953 
 379   0.0000       0.287698         7.8287 
 380   0.0000       0.290726         7.9110 
[...]
   Time for densities:     1.970
   Using LibInt in JK Direct
   Time for J+K (Direct):  1947.768
   Time for Sigma-Completion:    21.983
   Size of expansion space: 30
   Lowest Energy          :     0.089620683579
   Maximum Energy change  :     0.000011232138 (vector 2)
   Maximum residual norm  :     0.000001659109
   Rebuilding the expansion space

                       ****Iteration    8****
   Time for densities:     3.936
   Using LibInt in JK Direct
   Time for J+K (Direct):  3707.020
   Time for Sigma-Completion:    49.827
   Size of expansion space: 6
   Lowest Energy          :     0.089620655612
   Maximum Energy change  :     0.000002672223 (vector 2)
   Maximum residual norm  :     0.000000463827

                       ****Iteration    9****
   Time for densities:     1.958
   Using LibInt in JK Direct
   Time for J+K (Direct):  1898.189
   Time for Sigma-Completion:    21.207
   Size of expansion space: 9
   Lowest Energy          :     0.089620645574
   Maximum Energy change  :     0.000001616488 (vector 2)
   Maximum residual norm  :     0.000000238352

      *** CONVERGENCE OF RESIDUAL NORM REACHED ***

Storing the converged CI vectors               ... o-IO2.cis1

                 *** DAVIDSON DONE ***

Total time for solving the CIS problem: 24903.259sec

-----------------------------
CIS-EXCITED STATES (SINGLETS)
-----------------------------

the weight of the individual excitations are printed if larger than 1.0e-02

STATE  1:  E=   0.089621 au      2.439 eV    19669.5 cm**-1
   300a -> 303a  :     0.022249 (c= -0.14916191)
   300a -> 307a  :     0.018652 (c= -0.13657213)
   301a -> 304a  :     0.212382 (c=  0.46084916)
   301a -> 306a  :     0.013719 (c=  0.11712615)
   302a -> 303a  :     0.573305 (c= -0.75716922)
   302a -> 305a  :     0.036736 (c=  0.19166573)
   302a -> 307a  :     0.033585 (c=  0.18326114)

STATE  2:  E=   0.105952 au      2.883 eV    23253.8 cm**-1
   300a -> 304a  :     0.076490 (c=  0.27656903)
   301a -> 303a  :     0.371214 (c= -0.60927345)
   302a -> 304a  :     0.402463 (c=  0.63439959)
   302a -> 306a  :     0.018923 (c=  0.13755977)
   302a -> 308a  :     0.015733 (c=  0.12543126)

STATE  3:  E=   0.144185 au      3.923 eV    31645.0 cm**-1
   292a -> 304a  :     0.012411 (c=  0.11140363)
   294a -> 304a  :     0.011645 (c=  0.10791276)
   299a -> 304a  :     0.037172 (c=  0.19280142)
   300a -> 303a  :     0.180683 (c=  0.42506771)
   301a -> 304a  :     0.143196 (c= -0.37841300)
   301a -> 305a  :     0.012847 (c= -0.11334547)
   301a -> 306a  :     0.026644 (c=  0.16322980)
   301a -> 308a  :     0.011303 (c=  0.10631366)
   301a -> 310a  :     0.018872 (c= -0.13737565)
   302a -> 305a  :     0.188869 (c=  0.43459115)
   302a -> 306a  :     0.013017 (c= -0.11409086)
   302a -> 307a  :     0.156390 (c=  0.39546130)
   302a -> 309a  :     0.034306 (c= -0.18521836)


----------------------
CIS-EXCITATION SPECTRA
----------------------

Center of mass = ( 16.5592, -5.2044,-12.8223)
Calculating the Dipole integrals                  ... done
Transforming integrals                            ... done
Calculating the Linear Momentum integrals         ... done
Transforming integrals                            ... done
Calculating angular momentum integrals            ... done
Transforming integrals                            ... done

-----------------------------------------------------------------------------
         ABSORPTION SPECTRUM VIA TRANSITION ELECTRIC DIPOLE MOMENTS
-----------------------------------------------------------------------------
State   Energy    Wavelength  fosc         T2        TX        TY        TZ  
        (cm-1)      (nm)                 (au**2)    (au)      (au)      (au) 
-----------------------------------------------------------------------------
   1   19669.5    508.4   3.553618977  59.47768   2.71549  -4.12928  -5.92054
   2   23253.8    430.0   0.078658252   1.11359   0.49937  -0.92720  -0.06724
   3   31645.0    316.0   0.140930182   1.46614  -0.93145  -0.23865  -0.73593

-----------------------------------------------------------------------------
         ABSORPTION SPECTRUM VIA TRANSITION VELOCITY DIPOLE MOMENTS
-----------------------------------------------------------------------------
State   Energy    Wavelength   fosc        P2         PX        PY        PZ  
        (cm-1)      (nm)                 (au**2)     (au)      (au)      (au) 
-----------------------------------------------------------------------------
   1   19669.5    508.4   2.579470383   0.34676  -0.16705   0.31160   0.47091
   2   23253.8    430.0   0.047124747   0.00749  -0.04383   0.06827   0.03013
   3   31645.0    316.0   0.105224972   0.02276   0.11656  -0.04750   0.08316

-------------------------------------------------------------------
                             CD SPECTRUM
-------------------------------------------------------------------
State  Energy     Wavelength     R         MX        MY        MZ   
       (cm-1)       (nm)     (1e40*cgs)   (au)      (au)      (au)  
-------------------------------------------------------------------
   1   19669.5    508.4    -115.00209   0.61932   0.34127   0.08723
   2   23253.8    430.0    -105.20270   0.32598   0.43483  -0.25643
   3   31645.0    316.0    296.39895  -0.51823  -0.67154   0.01940

Total run time:    25030.986 sec

           *** ORCA-CIS/TD-DFT FINISHED WITHOUT ERROR ***

-----------------------
CIS/TD-DFT TOTAL ENERGY
-----------------------

    E(SCF)  =  -5030.231629500 Eh
    DE(CIS) =      0.089620646 Eh (Root  1)
    ----------------------------- ---------
    E(tot)  =  -5030.142008855 Eh


-------------------------   --------------------
FINAL SINGLE POINT ENERGY     -5030.142008854796
-------------------------   --------------------

------------------------------------------------------------------------------
                         ORCA SCF GRADIENT CALCULATION
------------------------------------------------------------------------------


------------
CIS GRADIENT
------------

Reference wavefunction             ... RHF
State of interest                  ... 1
Basis dimension                    ... 1414
DFT-XC contribution needed         ... NO
RI-approximation                   ... OFF
CIS-vectors being read from        ... o-IO2.cis

 => Number of Vectors found: 3
 => Orbital Window: 98...302 -> 303...1413

Reading the CIS file                     ... done
Norm of the CI vector                    ... 1.000000000
Making the CIS (pseudo)densities         ... done
Making operators G(D) and Q(T)           ... done
Transforming the Fock operators          ... done
Making the frozen-core relaxed density   ... done
Constructing the G(H) operator           ... done
Transforming the G(H) operator           ... done
Calculating the CIS Lagrangian           ... done
Solving the Z-vector equations           ... done
Finalizing the relaxed density           ... done
Storing the relaxed density              ... done
Constructing the G(Z) operator           ... done
Transforming the G(Z) operator           ... done
Making the W-matrix                      ... done
Finalizing the W-matrix                  ... done
Transforming the W-matrix                ... done
Nuclear repulsion gradient               ... done
One-Electron gradient                    ... done
Prescreening matrices                    ... done
Two-Electron gradient (4-center)         ... done
                 ---------------------------
                 EXCITED STATE GRADIENT DONE
                 ---------------------------


------------------
CARTESIAN GRADIENT
------------------

   1   C   :   -0.033130386    0.023358408   -0.003779941
   2   O   :    0.040813112   -0.029026281    0.006145492
   3   C   :    0.008500338   -0.008120906   -0.002206006
   4   C   :    0.001600896   -0.002396827   -0.001824946
   5   C   :    0.003401933   -0.005571346   -0.002766461
   6   C   :   -0.003816926   -0.002465730   -0.005531347
   7   C   :   -0.002030464   -0.002386441   -0.003076061
   8   C   :   -0.012312304   -0.003384182   -0.013980437
   9   C   :    0.016306410    0.002856688    0.012383993
  10   C   :   -0.019234134    0.001665083   -0.010026636
  11   C   :    0.025636517    0.040900991    0.058931789
  12   N   :   -0.021965163   -0.039136879   -0.055987181
  13   C   :    0.054310970   -0.049358631   -0.021263146
  14   N   :   -0.050150995    0.046483652    0.021409732
  15   C   :   -0.003902886    0.001738846   -0.000040461
  16   F   :    0.009993839    0.010652059    0.016743322
  17   F   :   -0.009491525    0.016327988    0.010545210
  18   C   :   -0.014351905    0.011470457   -0.034892998
  19   O   :    0.020903265   -0.019311537    0.039316326
  20   C   :    0.003204684   -0.000899537    0.012028104
  21   C   :    0.000229304    0.000801239    0.002855411
  22   C   :    0.001931752    0.000619266    0.007614697
  23   C   :   -0.004044551    0.006880190    0.001537484
  24   C   :   -0.001293843    0.003403060    0.001933497
  25   C   :   -0.009823101    0.015848964    0.000614878
  26   C   :    0.002850522   -0.016650227    0.001180465
  27   C   :   -0.004737668    0.016387808   -0.007766474
  28   C   :   -0.002657475   -0.067972173   -0.033343021
  29   N   :   -0.000780833    0.061264646    0.034250488
  30   C   :    0.021142203   -0.007330461    0.071566811
  31   N   :   -0.019568831    0.005932011   -0.067401173
  32   C   :   -0.002874361    0.006795775   -0.000227464
  33   F   :    0.009536866   -0.016175485   -0.009623051
  34   F   :   -0.001085815   -0.006817155   -0.019124108
  35   C   :    0.003375641   -0.003910971   -0.000974641
  36   C   :   -0.003923941    0.005324156    0.006095135
  37   C   :    0.000635027   -0.000516284    0.002876553
  38   C   :   -0.000025108    0.002206548    0.003104265
  39   C   :   -0.003517228    0.000412470   -0.005823548
  40   S   :   -0.004790788    0.000337804   -0.007068096
  41   C   :   -0.000885543    0.001414294    0.000092774
  42   S   :   -0.005355596    0.003707578   -0.002386537
  43   C   :   -0.005428116    0.002907087   -0.001376205
  44   C   :    0.010828781   -0.006271369    0.004118095
  45   C   :    0.001575419    0.000420446    0.001570661
  46   C   :   -0.002908437    0.000468070   -0.007273754
  47   C   :    0.000010435    0.002540062    0.009942605
  48   C   :   -0.002767442    0.002842059   -0.001681904
  49   C   :    0.000019546    0.002941623    0.008863442
  50   C   :   -0.000323523   -0.002002963   -0.009551242
  51   C   :    0.003005724    0.000118397    0.008487699
  52   C   :    0.000022805   -0.003079014   -0.009513565
  53   C   :    0.002864417   -0.003068772    0.001711789
  54   C   :   -0.009694039    0.006624636   -0.000846410
  55   C   :    0.004106841   -0.002352050   -0.000521222
  56   C   :    0.001364598   -0.002741335   -0.003653385
  57   C   :   -0.002283212    0.002865714    0.003132173
  58   S   :    0.004730786   -0.003845083    0.001825123
  59   C   :    0.003764225   -0.003572443   -0.000205169
  60   S   :    0.002913957    0.000927535    0.005867721
  61   C   :    0.001555948   -0.001883902   -0.004790917
  62   C   :    0.005490960   -0.000510488   -0.006460973
  63   C   :    0.000860068   -0.000242177    0.002888986
  64   C   :   -0.001649645    0.002205119   -0.003854250
  65   O   :    0.007948479   -0.010096181   -0.011531304
  66   C   :    0.004728176   -0.003657822    0.002390315
  67   C   :    0.002725176    0.005173974    0.001718022
  68   C   :   -0.003670914   -0.002574593    0.003628532
  69   C   :   -0.002374900   -0.000014680   -0.005052034
  70   C   :   -0.004899457    0.003226163   -0.002060207
  71   C   :   -0.001148172   -0.005775902    0.002728598
  72   C   :    0.004976620   -0.001002599   -0.005413473
  73   C   :   -0.003568654    0.005271279    0.002130058
  74   C   :    0.005002759   -0.003072017    0.002261229
  75   C   :    0.001248551    0.005611682   -0.002893683
  76   C   :   -0.004919054    0.001164056    0.005449814
  77   C   :    0.003469162   -0.005353245   -0.002111609
  78   O   :   -0.010225219    0.011220795    0.010188810
  79   C   :   -0.005022025    0.002684152   -0.002540317
  80   C   :    0.003851001    0.001620865   -0.003915288
  81   C   :   -0.002264961   -0.004781749   -0.000726960
  82   C   :    0.001863593    0.000467824    0.004532887
  83   H   :    0.006737213   -0.003265954    0.002327211
  84   H   :   -0.007923757    0.002852426   -0.002883171
  85   H   :    0.004505713   -0.004385805    0.005131726
  86   H   :   -0.005218341    0.005708281   -0.005350741
  87   H   :   -0.008524962    0.002842178   -0.006251589
  88   H   :    0.001198101    0.003693021    0.009159624
  89   H   :    0.004712301   -0.000403864    0.007438887
  90   H   :   -0.006797990    0.004581247   -0.000965312
  91   H   :    0.006801408   -0.004583354    0.000964014
  92   H   :   -0.004435129    0.000179655   -0.007114010
  93   H   :   -0.001564145   -0.002781382   -0.007718428
  94   H   :    0.005562987   -0.004605924    0.006417526
  95   H   :   -0.006119056   -0.001546521    0.006250674
  96   H   :    0.001870998    0.008637774    0.003115055
  97   H   :   -0.003013887   -0.006528563   -0.002487190
  98   H   :    0.002132761    0.006457059    0.002227918
  99   H   :   -0.003256628    0.000026130   -0.007571078
 100   H   :    0.005351263   -0.003740628    0.000749297
 101   H   :    0.002248654    0.006230972    0.001799523
 102   H   :    0.005364044   -0.003832699    0.000814494
 103   H   :   -0.004651835   -0.002136346    0.004247273
 104   H   :    0.003415080   -0.004835059   -0.003878235
 105   H   :    0.001685124   -0.001519083    0.006819922
 106   H   :   -0.003229366    0.000913374   -0.006701551
 107   H   :    0.006444824    0.002323259    0.001024597
 108   H   :   -0.004694870    0.003998114    0.004302183
 109   H   :   -0.007154984   -0.000938253   -0.000259291
 110   H   :    0.001901148    0.002311823    0.006706691
 111   H   :   -0.001766608   -0.001621686   -0.006988358
 112   H   :   -0.001168365   -0.005573941    0.004048278
 113   H   :    0.007147374    0.001885384   -0.000564804
 114   H   :   -0.001765267    0.001520389   -0.006861088
 115   H   :   -0.003459017    0.004945873    0.003803726
 116   H   :    0.004703769   -0.003989863   -0.004072392
 117   H   :   -0.006511307   -0.002245785   -0.001001910
 118   H   :    0.003198270   -0.000808486    0.006824236
 119   H   :   -0.001881963   -0.002350149   -0.006737905
 120   H   :    0.007151979    0.000883348    0.000297287
 121   H   :   -0.007201082   -0.001722651    0.000572838
 122   H   :    0.001218631    0.005572644   -0.004040032
 123   H   :    0.001756079    0.001682375    0.007014445
 124   H   :   -0.002562007   -0.008706604   -0.002640188
 125   H   :    0.007189553    0.000947753   -0.006094958
 126   H   :   -0.005042478   -0.001841411    0.004888534
 127   H   :    0.004821755    0.000708360   -0.004127820
 128   H   :    0.003617288    0.001045916    0.006650915
 129   H   :   -0.005041530    0.004113644   -0.002105604
 130   H   :    0.004903587    0.001529802   -0.004509558
 131   H   :   -0.004806556    0.004180378   -0.001400060
 132   H   :   -0.002250939   -0.006569249   -0.000846983

Difference to translation invariance:
           :    0.0000000000    0.0000000002   -0.0000000000

Norm of the cartesian gradient     ...    0.2487395997
RMS gradient                       ...    0.0124996352
MAX gradient                       ...    0.0715668113

-------
TIMINGS
-------

Total CIS gradient time            ...    29294.763 sec

Fock matrix formation       ....    2046.369 sec  (  7.0%)
  Coulomb formation         ....    2046.369 sec  (100.0% of F)
Z-vector equation           ....   24816.339 sec  ( 84.7%)
One electron gradient       ....      21.175 sec  (  0.1%)
Prescreening matrices       ....       1.311 sec  (  0.0%)
Two electron gradient       ....    2405.252 sec  (  8.2%)

                            ***************************************
                            *     ORCA property calculations      *
                            ***************************************

                                    ---------------------
                                    Active property flags
                                    ---------------------
   (+) Dipole Moment


------------------------------------------------------------------------------
                       ORCA ELECTRIC PROPERTIES CALCULATION
------------------------------------------------------------------------------

Dipole Moment Calculation                       ... on
Quadrupole Moment Calculation                   ... off
Polarizability Calculation                      ... off
GBWName                                         ... o-IO2.gbw
Electron density file                           ... o-IO2.scfp
The origin for moment calculation is the CENTER OF MASS  = (16.559225, -5.204397 -12.822317)

-------------
DIPOLE MOMENT
-------------
                                X             Y             Z
Electronic contribution:     -2.14100       6.13112      -1.38642
Nuclear contribution   :      3.57650      -7.77346       2.57294
                        -----------------------------------------
Total Dipole Moment    :      1.43549      -1.64234       1.18652
                        -----------------------------------------
Magnitude (a.u.)       :      2.48309
Magnitude (Debye)      :      6.31152



--------------------
Rotational spectrum 
--------------------
 
Rotational constants in cm-1:     0.002007     0.000145     0.000138 
Rotational constants in MHz :    60.161875     4.355490     4.125329 

 Dipole components along the rotational axes: 
x,y,z [a.u.] :    -0.314959    -2.373939     0.656475 
x,y,z [Debye]:    -0.800562    -6.034073     1.668628 

 

                        *** CIS RELAXED DENSITY ***

------------------------------------------------------------------------------
                       ORCA ELECTRIC PROPERTIES CALCULATION
------------------------------------------------------------------------------

Dipole Moment Calculation                       ... on
Quadrupole Moment Calculation                   ... off
Polarizability Calculation                      ... off
GBWName                                         ... o-IO2.gbw
Electron density file                           ... o-IO2.cisp
The origin for moment calculation is the CENTER OF MASS  = (16.559225, -5.204397 -12.822317)

-------------
DIPOLE MOMENT
-------------
                                X             Y             Z
Electronic contribution:     -2.29169       6.28793      -0.87130
Nuclear contribution   :      3.57650      -7.77346       2.57294
                        -----------------------------------------
Total Dipole Moment    :      1.28481      -1.48554       1.70164
                        -----------------------------------------
Magnitude (a.u.)       :      2.59868
Magnitude (Debye)      :      6.60532



--------------------
Rotational spectrum 
--------------------
 
Rotational constants in cm-1:     0.002007     0.000145     0.000138 
Rotational constants in MHz :    60.161875     4.355490     4.125329 

 Dipole components along the rotational axes: 
x,y,z [a.u.] :     0.221925    -2.468696     0.780660 
x,y,z [Debye]:     0.564090    -6.274928     1.984280 

 

Timings for individual modules:

Sum of individual times         ...    62938.005 sec (=1048.967 min)
GTO integral calculation        ...        2.041 sec (=   0.034 min)   0.0 %
SCF iterations                  ...     8610.110 sec (= 143.502 min)  13.7 %
CIS module                      ...    25031.060 sec (= 417.184 min)  39.8 %
SCF Gradient evaluation         ...    29294.795 sec (= 488.247 min)  46.5 %
                             ****ORCA TERMINATED NORMALLY****
TOTAL RUN TIME: 0 days 17 hours 28 minutes 59 seconds 392 msec
