
                                 *****************
                                 * O   R   C   A *
                                 *****************

           --- An Ab Initio, DFT and Semiempirical electronic structure package ---

                  #######################################################
                  #                        -***-                        #
                  #          Department of theory and spectroscopy      #
                  #               Directorship: Frank Neese             #
                  #        Max Planck Institute fuer Kohlenforschung    #
                  #                Kaiser Wilhelm Platz 1               #
                  #                 D-45470 Muelheim/Ruhr               #
                  #                      Germany                        #
                  #                                                     #
                  #                  All rights reserved                #
                  #                        -***-                        #
                  #######################################################


                         Program Version 4.2.0 -  RELEASE  -


 With contributions from (in alphabetic order):
   Daniel Aravena         : Magnetic Suceptibility
   Michael Atanasov       : Ab Initio Ligand Field Theory (pilot matlab implementation)
   Alexander A. Auer      : GIAO ZORA, VPT2
   Ute Becker             : Parallelization
   Giovanni Bistoni       : ED, misc. LED, open-shell LED, HFLED
   Martin Brehm           : Molecular dynamics
   Dmytro Bykov           : SCF Hessian
   Vijay G. Chilkuri      : MRCI spin determinant printing, contributions to CSF-ICE
   Dipayan Datta          : RHF DLPNO-CCSD density
   Achintya Kumar Dutta   : EOM-CC, STEOM-CC
   Dmitry Ganyushin       : Spin-Orbit,Spin-Spin,Magnetic field MRCI
   Miquel Garcia          : C-PCM Hessian, Gaussian charge scheme
   Yang Guo               : DLPNO-NEVPT2, CIM, IAO-localization
   Andreas Hansen         : Spin unrestricted coupled pair/coupled cluster methods
   Benjamin Helmich-Paris : CASSCF linear response (MC-RPA)
   Lee Huntington         : MR-EOM, pCC
   Robert Izsak           : Overlap fitted RIJCOSX, COSX-SCS-MP3, EOM
   Christian Kollmar      : KDIIS, OOCD, Brueckner-CCSD(T), CCSD density
   Simone Kossmann        : Meta GGA functionals, TD-DFT gradient, OOMP2, MP2 Hessian
   Martin Krupicka        : AUTO-CI
   Lucas Lang             : DCDCAS
   Dagmar Lenk            : GEPOL surface, SMD
   Dimitrios Liakos       : Extrapolation schemes; Compound Job, initial MDCI parallelization
   Dimitrios Manganas     : Further ROCIS development; embedding schemes
   Dimitrios Pantazis     : SARC Basis sets
   Taras Petrenko         : DFT Hessian,TD-DFT gradient, ASA, ECA, R-Raman, ABS, FL, XAS/XES, NRVS
   Peter Pinski           : DLPNO-MP2, DLPNO-MP2 Gradient
   Christoph Reimann      : Effective Core Potentials
   Marius Retegan         : Local ZFS, SOC
   Christoph Riplinger    : Optimizer, TS searches, QM/MM, DLPNO-CCSD(T), (RO)-DLPNO pert. Triples
   Tobias Risthaus        : Range-separated hybrids, TD-DFT gradient, RPA, STAB
   Michael Roemelt        : Original ROCIS implementation
   Masaaki Saitow         : Open-shell DLPNO-CCSD energy and density
   Barbara Sandhoefer     : DKH picture change effects
   Avijit Sen             : IP-ROCIS
   Kantharuban Sivalingam : CASSCF convergence, NEVPT2, FIC-MRCI
   Bernardo de Souza      : ESD, SOC TD-DFT
   Georgi Stoychev        : AutoAux, RI-MP2 NMR
   Willem Van den Heuvel  : Paramagnetic NMR
   Boris Wezisla          : Elementary symmetry handling
   Frank Wennmohs         : Technical directorship


 We gratefully acknowledge several colleagues who have allowed us to
 interface, adapt or use parts of their codes:
   Stefan Grimme, W. Hujo, H. Kruse,             : VdW corrections, initial TS optimization,
                  C. Bannwarth                     DFT functionals, gCP, sTDA/sTD-DF
   Ed Valeev, F. Pavosevic, A. Kumar             : LibInt (2-el integral package), F12 methods
   Garnet Chan, S. Sharma, J. Yang, R. Olivares  : DMRG
   Ulf Ekstrom                                   : XCFun DFT Library
   Mihaly Kallay                                 : mrcc  (arbitrary order and MRCC methods)
   Andreas Klamt, Michael Diedenhofen            : otool_cosmo (COSMO solvation model)
   Jiri Pittner, Ondrej Demel                    : Mk-CCSD
   Frank Weinhold                                : gennbo (NPA and NBO analysis)
   Christopher J. Cramer and Donald G. Truhlar   : smd solvation model
   Lars Goerigk                                  : TD-DFT with DH, B97 family of functionals
   V. Asgeirsson, H. Jonsson                     : NEB implementation
   FAccTs GmbH                                   : IRC, NEB, NEB-TS, Multilevel, MM, QM/MM, CI optimization
   S Lehtola, MJT Oliveira, MAL Marques          : LibXC Library


 Your calculation uses the libint2 library for the computation of 2-el integrals
 For citations please refer to: http://libint.valeyev.net

 Your ORCA version has been built with support for libXC version: 4.2.3
 For citations please refer to: https://tddft.org/programs/libxc/

 This ORCA versions uses:
   CBLAS   interface :  Fast vector & matrix operations
   LAPACKE interface :  Fast linear algebra routines
   SCALAPACK package :  Parallel linear algebra routines


----- Orbital basis set information -----
Your calculation utilizes the basis: def2-SVP
   F. Weigend and R. Ahlrichs, Phys. Chem. Chem. Phys. 7, 3297 (2005).

================================================================================
                                        WARNINGS
                       Please study these warnings very carefully!
================================================================================

INFO   : Checking CIS options ...

WARNING: CIS/ROCIS methods need fully converged wavefunctions
  ===> : Setting SCFConvForced true
         You can overwrite this default with %scf ConvForced false 


INFO   : the flag for use of LIBINT has been found!

================================================================================
                                       INPUT FILE
================================================================================
NAME = p-IO2.inp
|  1> # ORCA input file
|  2> # p-IO2.out
|  3> ! Engrad Keepdens
|  4> %maxcore 1000
|  5> %tddft
|  6>   nroots 3 
|  7>   # nroots is the number of states to be computed
|  8>   Iroot 1
|  9>   end
| 10> * xyz 0 1
| 11>    C       -0.21324        -2.69296        -0.31547
| 12>    O        0.12207        -2.79508        -1.47990
| 13>    C       -1.54385        -2.23090         0.14056
| 14>    C       -2.60506        -1.80329        -0.63202
| 15>    C       -3.75662        -1.40153         0.02509
| 16>    C       -3.82671        -1.43415         1.41744
| 17>    C       -2.76091        -1.86847         2.19213
| 18>    C       -1.60553        -2.27199         1.54143
| 19>    C       -0.32794        -2.77515         2.04748
| 20>    C       -0.06988        -3.05331         3.36591
| 21>    C        1.11237        -3.62177         3.88620
| 22>    N        2.02239        -4.09504         4.40371
| 23>    C       -0.99077        -2.83406         4.41233
| 24>    N       -1.68781        -2.67939         5.31133
| 25>    C        0.55388        -2.96854         0.91196
| 26>    F       -4.81079        -0.97540        -0.68320
| 27>    F       -4.94928        -1.03454         2.02697
| 28>    C       22.91373         0.66861        -5.03962
| 29>    O       23.00355         0.86047        -3.84872
| 30>    C       23.70961         1.30208        -6.11883
| 31>    C       24.67027         2.28797        -6.01896
| 32>    C       25.24861         2.74420        -7.19356
| 33>    C       24.86734         2.21716        -8.42686
| 34>    C       23.91045         1.21722        -8.52703
| 35>    C       23.32800         0.75875        -7.35750
| 36>    C       22.32540        -0.28390        -7.12279
| 37>    C       22.01736        -1.28648        -8.01058
| 38>    C       21.28562        -2.43836        -7.66132
| 39>    N       20.72726        -3.41169        -7.41823
| 40>    C       22.44812        -1.31595        -9.35068
| 41>    N       22.73399        -1.37799       -10.46127
| 42>    C       21.94405        -0.20808        -5.73786
| 43>    F       26.18017         3.70504        -7.14408
| 44>    F       25.43184         2.68778        -9.54563
| 45>    C        1.89547        -3.25591         1.04345
| 46>    C        2.89521        -3.47251         0.08953
| 47>    C        2.86514        -3.60318        -1.29397
| 48>    C        4.11847        -3.78824        -1.86215
| 49>    C        5.16031        -3.79837        -0.91564
| 50>    S        4.54333        -3.61690         0.68526
| 51>    C        6.53502        -3.87910        -1.20566
| 52>    S        7.08171        -3.92035        -2.87070
| 53>    C        8.71000        -3.88082        -2.33174
| 54>    C        8.81886        -3.85388        -0.94503
| 55>    C        7.59126        -3.86205        -0.30262
| 56>    C        9.99862        -3.80734        -2.93938
| 57>    C       10.94928        -3.74311        -1.89163
| 58>    C       10.26978        -3.84596        -0.53604
| 59>    C       10.37814        -3.75768        -4.27957
| 60>    C       11.71675        -3.60435        -4.54938
| 61>    C       12.65929        -3.47218        -3.49929
| 62>    C       12.28474        -3.56011        -2.16019
| 63>    C       12.39629        -3.49691        -5.90468
| 64>    C       13.80494        -3.16269        -5.48894
| 65>    C       13.92235        -3.20120        -4.10567
| 66>    C       14.97985        -2.81013        -6.13478
| 67>    C       16.00717        -2.54957        -5.23810
| 68>    S       15.50587        -2.80770        -3.57380
| 69>    C       17.29071        -2.04008        -5.53467
| 70>    S       18.52171        -1.86767        -4.33862
| 71>    C       19.62572        -1.14515        -5.48204
| 72>    C       19.02267        -1.03750        -6.73213
| 73>    C       17.72792        -1.53870        -6.77691
| 74>    C       20.87077        -0.69153        -5.03018
| 75>    O        4.44204        -3.96581        -3.15711
| 76>    C        3.43488        -3.75839        -4.13424
| 77>    C        3.12012        -2.27230        -4.34552
| 78>    C        4.33623        -1.56219        -4.93391
| 79>    C        1.89815        -2.12566        -5.24587
| 80>    C       10.67663        -2.66457         0.32022
| 81>    C       10.53502        -5.16853         0.16580
| 82>    C       12.45093        -4.81889        -6.65461
| 83>    C       11.73306        -2.41947        -6.73898
| 84>    O       16.89409        -1.55986        -7.83228
| 85>    C       17.35811        -1.04726        -9.06992
| 86>    C       16.23755        -1.22611       -10.09733
| 87>    C       15.01513        -0.39912        -9.70478
| 88>    C       16.73898        -0.83729       -11.48455
| 89>    C        9.94751        -1.48467         0.31060
| 90>    C       10.35591        -0.40049         1.06672
| 91>    C       11.50587        -0.46156         1.84123
| 92>    C       12.24033        -1.64171         1.83633
| 93>    C       11.83450        -2.72819         1.08644
| 94>    C       11.10068        -6.25022        -0.49078
| 95>    C       11.27812        -7.45537         0.16741
| 96>    C       10.88842        -7.61319         1.48887
| 97>    C       10.31243        -6.52678         2.13950
| 98>    C       10.13436        -5.32307         1.48850
| 99>    C       12.89647        -4.82604        -7.97198
|100>    C       13.00046        -6.01126        -8.67137
|101>    C       12.66912        -7.22400        -8.07617
|102>    C       12.23554        -7.21128        -6.75880
|103>    C       12.13085        -6.02533        -6.05203
|104>    C       10.61835        -2.72584        -7.51031
|105>    C        9.99747        -1.75046        -8.26625
|106>    C       10.47042        -0.44369        -8.27567
|107>    C       11.57529        -0.13989        -7.49272
|108>    C       12.19577        -1.11153        -6.72840
|109>    C       11.07765        -8.91244         2.20959
|110>    C       11.94068         0.70170         2.67856
|111>    C       12.79741        -8.50479        -8.84196
|112>    C        9.78956         0.61026        -9.09381
|113>    H       -2.54428        -1.77897        -1.70832
|114>    H       -2.86731        -1.87172         3.26418
|115>    H       24.96427         2.69408        -5.06438
|116>    H       23.64749         0.84096        -9.50232
|117>    H        2.26859        -3.29106         2.05978
|118>    H        1.94127        -3.54776        -1.83772
|119>    H        7.43541        -3.83926         0.76082
|120>    H        9.64052        -3.82332        -5.06425
|121>    H       13.01881        -3.47215        -1.37434
|122>    H       15.10622        -2.72393        -7.19588
|123>    H       19.50283        -0.55331        -7.56211
|124>    H       20.98038        -0.61666        -3.95261
|125>    H        2.52830        -4.31135        -3.86491
|126>    H        3.85107        -4.18755        -5.04918
|127>    H        2.89094        -1.82922        -3.37021
|128>    H        4.54041        -1.93107        -5.93687
|129>    H        5.21487        -1.74070        -4.31784
|130>    H        4.16231        -0.49054        -4.98850
|131>    H        2.06697        -2.61674        -6.20184
|132>    H        1.69408        -1.07422        -5.43002
|133>    H        1.02199        -2.56646        -4.77676
|134>    H       18.25583        -1.59461        -9.38634
|135>    H       17.60885         0.01719        -8.96621
|136>    H       15.96165        -2.28571       -10.09903
|137>    H       15.25207         0.66255        -9.73326
|138>    H       14.68592        -0.65321        -8.70040
|139>    H       14.19438        -0.58710       -10.39244
|140>    H       17.03969         0.20814       -11.50090
|141>    H       15.95118        -0.97846       -12.21963
|142>    H       17.59255        -1.44568       -11.77371
|143>    H        9.05204        -1.40916        -0.28916
|144>    H        9.77000         0.50750         1.05146
|145>    H       13.14155        -1.70979         2.42874
|146>    H       12.41529        -3.63920         1.10541
|147>    H       11.40950        -6.15750        -1.52167
|148>    H       11.72598        -8.28494        -0.36101
|149>    H        9.99843        -6.62928         3.16829
|150>    H        9.68920        -4.48934         2.01172
|151>    H       13.15181        -3.89312        -8.45331
|152>    H       13.34471        -5.99906        -9.69564
|153>    H       11.97524        -8.14084        -6.27294
|154>    H       11.79298        -6.04620        -5.02640
|155>    H       10.24506        -3.73958        -7.53288
|156>    H        9.13511        -2.00842        -8.86437
|157>    H       11.95966         0.87007        -7.48077
|158>    H       13.05169        -0.84644        -6.12502
|159>    H       11.47751        -9.67338         1.54435
|160>    H       10.12952        -9.26422         2.61372
|161>    H       11.76637        -8.78477         3.04416
|162>    H       11.47198         1.62252         2.34044
|163>    H       13.02156         0.82059         2.64185
|164>    H       11.65826         0.53810         3.71896
|165>    H       13.84934        -8.76170        -8.96753
|166>    H       12.35959        -8.40495        -9.83353
|167>    H       12.30555        -9.32215        -8.32080
|168>    H        9.43285         0.19896       -10.03562
|169>    H       10.46412         1.43721        -9.30170
|170>    H        8.92822         1.00305        -8.55260
|171> *
|172> 
|173>                          ****END OF INPUT****
================================================================================

                     *******************************
                     * Energy+Gradient Calculation *
                     *******************************

---------------------------------
CARTESIAN COORDINATES (ANGSTROEM)
---------------------------------
  C     -0.213240   -2.692960   -0.315470
  O      0.122070   -2.795080   -1.479900
  C     -1.543850   -2.230900    0.140560
  C     -2.605060   -1.803290   -0.632020
  C     -3.756620   -1.401530    0.025090
  C     -3.826710   -1.434150    1.417440
  C     -2.760910   -1.868470    2.192130
  C     -1.605530   -2.271990    1.541430
  C     -0.327940   -2.775150    2.047480
  C     -0.069880   -3.053310    3.365910
  C      1.112370   -3.621770    3.886200
  N      2.022390   -4.095040    4.403710
  C     -0.990770   -2.834060    4.412330
  N     -1.687810   -2.679390    5.311330
  C      0.553880   -2.968540    0.911960
  F     -4.810790   -0.975400   -0.683200
  F     -4.949280   -1.034540    2.026970
  C     22.913730    0.668610   -5.039620
  O     23.003550    0.860470   -3.848720
  C     23.709610    1.302080   -6.118830
  C     24.670270    2.287970   -6.018960
  C     25.248610    2.744200   -7.193560
  C     24.867340    2.217160   -8.426860
  C     23.910450    1.217220   -8.527030
  C     23.328000    0.758750   -7.357500
  C     22.325400   -0.283900   -7.122790
  C     22.017360   -1.286480   -8.010580
  C     21.285620   -2.438360   -7.661320
  N     20.727260   -3.411690   -7.418230
  C     22.448120   -1.315950   -9.350680
  N     22.733990   -1.377990  -10.461270
  C     21.944050   -0.208080   -5.737860
  F     26.180170    3.705040   -7.144080
  F     25.431840    2.687780   -9.545630
  C      1.895470   -3.255910    1.043450
  C      2.895210   -3.472510    0.089530
  C      2.865140   -3.603180   -1.293970
  C      4.118470   -3.788240   -1.862150
  C      5.160310   -3.798370   -0.915640
  S      4.543330   -3.616900    0.685260
  C      6.535020   -3.879100   -1.205660
  S      7.081710   -3.920350   -2.870700
  C      8.710000   -3.880820   -2.331740
  C      8.818860   -3.853880   -0.945030
  C      7.591260   -3.862050   -0.302620
  C      9.998620   -3.807340   -2.939380
  C     10.949280   -3.743110   -1.891630
  C     10.269780   -3.845960   -0.536040
  C     10.378140   -3.757680   -4.279570
  C     11.716750   -3.604350   -4.549380
  C     12.659290   -3.472180   -3.499290
  C     12.284740   -3.560110   -2.160190
  C     12.396290   -3.496910   -5.904680
  C     13.804940   -3.162690   -5.488940
  C     13.922350   -3.201200   -4.105670
  C     14.979850   -2.810130   -6.134780
  C     16.007170   -2.549570   -5.238100
  S     15.505870   -2.807700   -3.573800
  C     17.290710   -2.040080   -5.534670
  S     18.521710   -1.867670   -4.338620
  C     19.625720   -1.145150   -5.482040
  C     19.022670   -1.037500   -6.732130
  C     17.727920   -1.538700   -6.776910
  C     20.870770   -0.691530   -5.030180
  O      4.442040   -3.965810   -3.157110
  C      3.434880   -3.758390   -4.134240
  C      3.120120   -2.272300   -4.345520
  C      4.336230   -1.562190   -4.933910
  C      1.898150   -2.125660   -5.245870
  C     10.676630   -2.664570    0.320220
  C     10.535020   -5.168530    0.165800
  C     12.450930   -4.818890   -6.654610
  C     11.733060   -2.419470   -6.738980
  O     16.894090   -1.559860   -7.832280
  C     17.358110   -1.047260   -9.069920
  C     16.237550   -1.226110  -10.097330
  C     15.015130   -0.399120   -9.704780
  C     16.738980   -0.837290  -11.484550
  C      9.947510   -1.484670    0.310600
  C     10.355910   -0.400490    1.066720
  C     11.505870   -0.461560    1.841230
  C     12.240330   -1.641710    1.836330
  C     11.834500   -2.728190    1.086440
  C     11.100680   -6.250220   -0.490780
  C     11.278120   -7.455370    0.167410
  C     10.888420   -7.613190    1.488870
  C     10.312430   -6.526780    2.139500
  C     10.134360   -5.323070    1.488500
  C     12.896470   -4.826040   -7.971980
  C     13.000460   -6.011260   -8.671370
  C     12.669120   -7.224000   -8.076170
  C     12.235540   -7.211280   -6.758800
  C     12.130850   -6.025330   -6.052030
  C     10.618350   -2.725840   -7.510310
  C      9.997470   -1.750460   -8.266250
  C     10.470420   -0.443690   -8.275670
  C     11.575290   -0.139890   -7.492720
  C     12.195770   -1.111530   -6.728400
  C     11.077650   -8.912440    2.209590
  C     11.940680    0.701700    2.678560
  C     12.797410   -8.504790   -8.841960
  C      9.789560    0.610260   -9.093810
  H     -2.544280   -1.778970   -1.708320
  H     -2.867310   -1.871720    3.264180
  H     24.964270    2.694080   -5.064380
  H     23.647490    0.840960   -9.502320
  H      2.268590   -3.291060    2.059780
  H      1.941270   -3.547760   -1.837720
  H      7.435410   -3.839260    0.760820
  H      9.640520   -3.823320   -5.064250
  H     13.018810   -3.472150   -1.374340
  H     15.106220   -2.723930   -7.195880
  H     19.502830   -0.553310   -7.562110
  H     20.980380   -0.616660   -3.952610
  H      2.528300   -4.311350   -3.864910
  H      3.851070   -4.187550   -5.049180
  H      2.890940   -1.829220   -3.370210
  H      4.540410   -1.931070   -5.936870
  H      5.214870   -1.740700   -4.317840
  H      4.162310   -0.490540   -4.988500
  H      2.066970   -2.616740   -6.201840
  H      1.694080   -1.074220   -5.430020
  H      1.021990   -2.566460   -4.776760
  H     18.255830   -1.594610   -9.386340
  H     17.608850    0.017190   -8.966210
  H     15.961650   -2.285710  -10.099030
  H     15.252070    0.662550   -9.733260
  H     14.685920   -0.653210   -8.700400
  H     14.194380   -0.587100  -10.392440
  H     17.039690    0.208140  -11.500900
  H     15.951180   -0.978460  -12.219630
  H     17.592550   -1.445680  -11.773710
  H      9.052040   -1.409160   -0.289160
  H      9.770000    0.507500    1.051460
  H     13.141550   -1.709790    2.428740
  H     12.415290   -3.639200    1.105410
  H     11.409500   -6.157500   -1.521670
  H     11.725980   -8.284940   -0.361010
  H      9.998430   -6.629280    3.168290
  H      9.689200   -4.489340    2.011720
  H     13.151810   -3.893120   -8.453310
  H     13.344710   -5.999060   -9.695640
  H     11.975240   -8.140840   -6.272940
  H     11.792980   -6.046200   -5.026400
  H     10.245060   -3.739580   -7.532880
  H      9.135110   -2.008420   -8.864370
  H     11.959660    0.870070   -7.480770
  H     13.051690   -0.846440   -6.125020
  H     11.477510   -9.673380    1.544350
  H     10.129520   -9.264220    2.613720
  H     11.766370   -8.784770    3.044160
  H     11.471980    1.622520    2.340440
  H     13.021560    0.820590    2.641850
  H     11.658260    0.538100    3.718960
  H     13.849340   -8.761700   -8.967530
  H     12.359590   -8.404950   -9.833530
  H     12.305550   -9.322150   -8.320800
  H      9.432850    0.198960  -10.035620
  H     10.464120    1.437210   -9.301700
  H      8.928220    1.003050   -8.552600

----------------------------
CARTESIAN COORDINATES (A.U.)
----------------------------
  NO LB      ZA    FRAG     MASS         X           Y           Z
   0 C     6.0000    0    12.011   -0.402965   -5.088957   -0.596152
   1 O     8.0000    0    15.999    0.230679   -5.281936   -2.796606
   2 C     6.0000    0    12.011   -2.917454   -4.215790    0.265620
   3 C     6.0000    0    12.011   -4.922850   -3.407724   -1.194345
   4 C     6.0000    0    12.011   -7.098983   -2.648508    0.047413
   5 C     6.0000    0    12.011   -7.231434   -2.710151    2.678573
   6 C     6.0000    0    12.011   -5.217364   -3.530897    4.142525
   7 C     6.0000    0    12.011   -3.034012   -4.293439    2.912881
   8 C     6.0000    0    12.011   -0.619717   -5.244273    3.869176
   9 C     6.0000    0    12.011   -0.132054   -5.769920    6.360648
  10 C     6.0000    0    12.011    2.102075   -6.844153    7.343854
  11 N     7.0000    0    14.007    3.821763   -7.738504    8.321806
  12 C     6.0000    0    12.011   -1.872284   -5.355597    8.338095
  13 N     7.0000    0    14.007   -3.189499   -5.063313   10.036959
  14 C     6.0000    0    12.011    1.046682   -5.609728    1.723355
  15 F     9.0000    0    18.998   -9.091076   -1.843239   -1.291061
  16 F     9.0000    0    18.998   -9.352784   -1.954997    3.830418
  17 C     6.0000    0    12.011   43.300674    1.263490   -9.523502
  18 O     8.0000    0    15.999   43.470410    1.626053   -7.273027
  19 C     6.0000    0    12.011   44.804670    2.460575  -11.562913
  20 C     6.0000    0    12.011   46.620054    4.323637  -11.374186
  21 C     6.0000    0    12.011   47.712958    5.185786  -13.593858
  22 C     6.0000    0    12.011   46.992462    4.189825  -15.924458
  23 C     6.0000    0    12.011   45.184202    2.300212  -16.113751
  24 C     6.0000    0    12.011   44.083531    1.433830  -13.903660
  25 C     6.0000    0    12.011   42.188892   -0.536493  -13.460122
  26 C     6.0000    0    12.011   41.606781   -2.431095  -15.137802
  27 C     6.0000    0    12.011   40.223992   -4.607833  -14.477797
  28 N     7.0000    0    14.007   39.168845   -6.447160  -14.018423
  29 C     6.0000    0    12.011   42.420799   -2.486785  -17.670224
  30 N     7.0000    0    14.007   42.961015   -2.604024  -19.768935
  31 C     6.0000    0    12.011   41.468245   -0.393214  -10.842984
  32 F     9.0000    0    18.998   49.473351    7.001511  -13.500355
  33 F     9.0000    0    18.998   48.059213    5.079168  -18.038626
  34 C     6.0000    0    12.011    3.581919   -6.152778    1.971835
  35 C     6.0000    0    12.011    5.471154   -6.562093    0.169187
  36 C     6.0000    0    12.011    5.414330   -6.809023   -2.445249
  37 C     6.0000    0    12.011    7.782780   -7.158736   -3.518954
  38 C     6.0000    0    12.011    9.751573   -7.177879   -1.730309
  39 S    16.0000    0    32.060    8.585649   -6.834950    1.294954
  40 C     6.0000    0    12.011   12.349398   -7.330437   -2.278367
  41 S    16.0000    0    32.060   13.382492   -7.408388   -5.424837
  42 C     6.0000    0    12.011   16.459515   -7.333687   -4.406350
  43 C     6.0000    0    12.011   16.665230   -7.282778   -1.785848
  44 C     6.0000    0    12.011   14.345402   -7.298217   -0.571869
  45 C     6.0000    0    12.011   18.894654   -7.194830   -5.554623
  46 C     6.0000    0    12.011   20.691141   -7.073453   -3.574663
  47 C     6.0000    0    12.011   19.407072   -7.267811   -1.012969
  48 C     6.0000    0    12.011   19.611842   -7.100986   -8.087215
  49 C     6.0000    0    12.011   22.141449   -6.811234   -8.597082
  50 C     6.0000    0    12.011   23.922591   -6.561469   -6.612700
  51 C     6.0000    0    12.011   23.214794   -6.727633   -4.082167
  52 C     6.0000    0    12.011   23.425593   -6.608202  -11.158228
  53 C     6.0000    0    12.011   26.087556   -5.976618  -10.372593
  54 C     6.0000    0    12.011   26.309429   -6.049391   -7.758592
  55 C     6.0000    0    12.011   28.307814   -5.310376  -11.593054
  56 C     6.0000    0    12.011   30.249167   -4.817989   -9.898574
  57 S    16.0000    0    32.060   29.301848   -5.305784   -6.753503
  58 C     6.0000    0    12.011   32.674707   -3.855192  -10.459011
  59 S    16.0000    0    32.060   35.000959   -3.529385   -8.198804
  60 C     6.0000    0    12.011   37.087236   -2.164020  -10.359554
  61 C     6.0000    0    12.011   35.947637   -1.960591  -12.721882
  62 C     6.0000    0    12.011   33.500914   -2.907722  -12.806504
  63 C     6.0000    0    12.011   39.440040   -1.306802   -9.505663
  64 O     8.0000    0    15.999    8.394239   -7.494295   -5.966073
  65 C     6.0000    0    12.011    6.490983   -7.102328   -7.812581
  66 C     6.0000    0    12.011    5.896172   -4.294025   -8.211843
  67 C     6.0000    0    12.011    8.194287   -2.952111   -9.323739
  68 C     6.0000    0    12.011    3.586984   -4.016915   -9.913258
  69 C     6.0000    0    12.011   20.175907   -5.035308    0.605128
  70 C     6.0000    0    12.011   19.908303   -9.767106    0.313317
  71 C     6.0000    0    12.011   23.528848   -9.106382  -12.575390
  72 C     6.0000    0    12.011   22.172270   -4.572136  -12.734827
  73 O     8.0000    0    15.999   31.925203   -2.947708  -14.800864
  74 C     6.0000    0    12.011   32.802074   -1.979035  -17.139665
  75 C     6.0000    0    12.011   30.684523   -2.317012  -19.081188
  76 C     6.0000    0    12.011   28.374484   -0.754227  -18.339376
  77 C     6.0000    0    12.011   31.632088   -1.582249  -21.702654
  78 C     6.0000    0    12.011   18.798070   -2.805620    0.586949
  79 C     6.0000    0    12.011   19.569834   -0.756816    2.015809
  80 C     6.0000    0    12.011   21.742943   -0.872222    3.479420
  81 C     6.0000    0    12.011   23.130871   -3.102382    3.470161
  82 C     6.0000    0    12.011   22.363964   -5.155532    2.053074
  83 C     6.0000    0    12.011   20.977245  -11.811204   -0.927440
  84 C     6.0000    0    12.011   21.312558  -14.088608    0.316359
  85 C     6.0000    0    12.011   20.576132  -14.386844    2.813557
  86 C     6.0000    0    12.011   19.487668  -12.333827    4.043069
  87 C     6.0000    0    12.011   19.151165  -10.059144    2.812857
  88 C     6.0000    0    12.011   24.370796   -9.119894  -15.064859
  89 C     6.0000    0    12.011   24.567309  -11.359635  -16.386515
  90 C     6.0000    0    12.011   23.941167  -13.651382  -15.261750
  91 C     6.0000    0    12.011   23.121820  -13.627344  -12.772281
  92 C     6.0000    0    12.011   22.923984  -11.386224  -11.436679
  93 C     6.0000    0    12.011   20.065773   -5.151091  -14.192429
  94 C     6.0000    0    12.011   18.892480   -3.307890  -15.620949
  95 C     6.0000    0    12.011   19.786226   -0.838453  -15.638750
  96 C     6.0000    0    12.011   21.874128   -0.264354  -14.159189
  97 C     6.0000    0    12.011   23.046665   -2.100487  -12.714833
  98 C     6.0000    0    12.011   20.933725  -16.842071    4.175520
  99 C     6.0000    0    12.011   22.564615    1.326021    5.061745
 100 C     6.0000    0    12.011   24.183600  -16.071724  -16.708883
 101 C     6.0000    0    12.011   18.499587    1.153224  -17.184810
 102 H     1.0000    0     1.008   -4.807992   -3.361766   -3.228257
 103 H     1.0000    0     1.008   -5.418431   -3.537038    6.168406
 104 H     1.0000    0     1.008   47.175633    5.091073   -9.570291
 105 H     1.0000    0     1.008   44.687280    1.589184  -17.956782
 106 H     1.0000    0     1.008    4.287014   -6.219202    3.892420
 107 H     1.0000    0     1.008    3.668469   -6.704295   -3.472788
 108 H     1.0000    0     1.008   14.050889   -7.255150    1.437741
 109 H     1.0000    0     1.008   18.217943   -7.225028   -9.570046
 110 H     1.0000    0     1.008   24.601985   -6.561413   -2.597126
 111 H     1.0000    0     1.008   28.546619   -5.147482  -13.598242
 112 H     1.0000    0     1.008   36.855008   -1.045604  -14.290317
 113 H     1.0000    0     1.008   39.647172   -1.165319   -7.469350
 114 H     1.0000    0     1.008    4.777795   -8.147271   -7.303621
 115 H     1.0000    0     1.008    7.277468   -7.913323   -9.541567
 116 H     1.0000    0     1.008    5.463085   -3.456725   -6.368774
 117 H     1.0000    0     1.008    8.580131   -3.649193  -11.219058
 118 H     1.0000    0     1.008    9.854676   -3.289446   -8.159535
 119 H     1.0000    0     1.008    7.865626   -0.926986   -9.426899
 120 H     1.0000    0     1.008    3.906007   -4.944922  -11.719779
 121 H     1.0000    0     1.008    3.201347   -2.029982  -10.261251
 122 H     1.0000    0     1.008    1.931281   -4.849907   -9.026768
 123 H     1.0000    0     1.008   34.498519   -3.013376  -17.737612
 124 H     1.0000    0     1.008   33.275904    0.032484  -16.943681
 125 H     1.0000    0     1.008   30.163147   -4.319366  -19.084401
 126 H     1.0000    0     1.008   28.822235    1.252038  -18.393196
 127 H     1.0000    0     1.008   27.752367   -1.234388  -16.441373
 128 H     1.0000    0     1.008   26.823491   -1.109458  -19.638865
 129 H     1.0000    0     1.008   32.200348    0.393328  -21.733551
 130 H     1.0000    0     1.008   30.143362   -1.849021  -23.091754
 131 H     1.0000    0     1.008   33.245101   -2.731939  -22.249087
 132 H     1.0000    0     1.008   17.105877   -2.662926   -0.546433
 133 H     1.0000    0     1.008   18.462624    0.959036    1.986971
 134 H     1.0000    0     1.008   24.833930   -3.231035    4.589653
 135 H     1.0000    0     1.008   23.461498   -6.877091    2.088922
 136 H     1.0000    0     1.008   21.560830  -11.635989   -2.875540
 137 H     1.0000    0     1.008   22.158891  -15.656268   -0.682210
 138 H     1.0000    0     1.008   18.894294  -12.527524    5.987200
 139 H     1.0000    0     1.008   18.309934   -8.483623    3.801600
 140 H     1.0000    0     1.008   24.853319   -7.356931  -15.974441
 141 H     1.0000    0     1.008   25.217847  -11.336580  -18.322104
 142 H     1.0000    0     1.008   22.629924  -15.383958  -11.854139
 143 H     1.0000    0     1.008   22.285503  -11.425662   -9.498519
 144 H     1.0000    0     1.008   19.360358   -7.066782  -14.235080
 145 H     1.0000    0     1.008   17.262856   -3.795364  -16.751232
 146 H     1.0000    0     1.008   22.600482    1.644194  -14.136607
 147 H     1.0000    0     1.008   24.664120   -1.599540  -11.574610
 148 H     1.0000    0     1.008   21.689351  -18.280039    2.918399
 149 H     1.0000    0     1.008   19.142019  -17.506839    4.939215
 150 H     1.0000    0     1.008   22.235217  -16.600809    5.752629
 151 H     1.0000    0     1.008   21.678900    3.066118    4.422791
 152 H     1.0000    0     1.008   24.607182    1.550690    4.992373
 153 H     1.0000    0     1.008   22.030919    1.016862    7.027816
 154 H     1.0000    0     1.008   26.171460  -16.557213  -16.946176
 155 H     1.0000    0     1.008   23.356240  -15.883054  -18.582679
 156 H     1.0000    0     1.008   23.254119  -17.616310  -15.724033
 157 H     1.0000    0     1.008   17.825503    0.375980  -18.964573
 158 H     1.0000    0     1.008   19.774321    2.715933  -17.577666
 159 H     1.0000    0     1.008   16.871891    1.895490  -16.162072

--------------------------------
INTERNAL COORDINATES (ANGSTROEM)
--------------------------------
 C      0   0   0     0.000000000000     0.00000000     0.00000000
 O      1   0   0     1.216042151983     0.00000000     0.00000000
 C      1   2   0     1.480535638409   124.67833094     0.00000000
 C      3   1   2     1.380542224128   127.96237801   357.83476806
 C      4   3   1     1.385386257800   117.60273305   180.67985487
 C      5   4   3     1.394494601997   120.56935555   359.96538022
 C      6   5   4     1.387338494564   121.75253533   359.81268441
 C      7   6   5     1.386052605351   117.99365011     0.18040550
 C      8   7   6     1.463384022121   131.72064046   180.07931845
 C      9   8   7     1.371942277977   124.48905081     5.69646518
 C     10   9   8     1.411227663490   126.40913038   175.48104214
 N     11  10   9     1.148885326480   174.60687280   190.11308103
 C     10   9   8     1.411064764991   123.94499930   357.17709000
 N     13  10   9     1.148036833251   176.27946123   182.20109009
 C      9   8   7     1.450659117401   107.80932116   183.29587346
 F      5   4   3     1.339602885149   119.70753329   179.82387734
 F      6   5   4     1.338423840904   119.33271425   179.69408711
 C      2   1   3    23.326562551094   113.77043195   149.64953197
 O     18   2   1     1.209595263714    86.89652548   359.42806323
 C     18   2   1     1.483038583247   134.33273782   216.34822013
 C     20  18   2     1.380152435277   128.75606139   127.25239092
 C     21  20  18     1.386473270027   117.65190369   181.87616429
 C     22  21  20     1.394333842557   120.72392708   359.89886100
 C     23  22  21     1.387642787103   121.65404540   359.49962230
 C     24  23  22     1.384645501311   117.88495292     0.57022715
 C     25  24  23     1.465405939185   131.19861019   181.31149986
 C     26  25  24     1.374127498488   124.68184679    19.11702312
 C     27  26  25     1.408635335919   123.56511470   165.15570310
 N     28  27  26     1.148141945319   176.70234404   215.98852367
 C     27  26  25     1.407938446275   124.16873702   348.39059792
 N     30  27  26     1.148468879247   176.12210444   210.85979279
 C     26  25  24     1.438474052529   107.34253183   188.17436849
 F     22  21  20     1.339203423532   119.66627747   179.65263956
 F     23  22  21     1.338577508888   119.40993890   179.23841513
 C     15   9   8     1.378308697317   123.01107195   170.67471441
 C     35  15   9     1.398699036248   131.52499611   180.07606996
 C     36  35  15     1.389982411328   132.68129861   352.63920656
 C     37  36  35     1.388492637683   113.59693605   178.86544966
 C     38  37  36     1.407627217199   113.19694900   359.71519307
 S     39  38  37     1.725246791419   111.00851686     1.53008198
 C     39  38  37     1.407286934992   125.79199336   184.40161167
 S     41  39  38     1.752977387247   120.11522888     2.21330013
 C     42  41  39     1.715624908481    89.83138246   175.66341414
 C     43  42  41     1.391237178665   112.81988673     0.69645511
 C     44  43  42     1.385553722163   113.12253878   359.87563698
 C     43  42  41     1.426592858667   136.44240545   184.24121303
 C     46  43  42     1.416213257599   107.07143125   176.99579139
 C     44  43  42     1.507482800200   110.23286327   178.94620933
 C     46  43  42     1.393775728767   131.09872784   358.94538110
 C     49  46  43     1.374112170494   117.26071018   175.98125515
 C     50  49  46     1.417229539842   120.85020851   358.58306619
 C     47  46  43     1.374433296017   120.91151001   185.07140028
 C     50  49  46     1.519919752882   128.20752308   181.12675295
 C     53  50  49     1.506266104810   100.81780284   172.67307589
 C     54  53  50     1.388777887605   110.35419678     4.85169886
 C     54  53  50     1.386297719575   136.09055543   186.29215373
 C     56  54  53     1.388276960264   111.96163376   177.38077059
 S     55  54  53     1.716177012228   112.35446287   180.73308568
 C     57  56  54     1.412447788982   127.19600692   186.76047145
 S     59  57  56     1.724999075536   122.61303378   184.56230764
 C     60  59  57     1.745933139298    92.20770400   182.87623562
 C     61  60  59     1.392114518673   110.25334168     0.87142375
 C     62  61  60     1.389094759511   113.87957022   358.96980425
 C     32  26  25     1.373486382641   133.20998242   162.49941171
 O     38  37  36     1.346532603170   128.90393603   178.98493470
 C     65  38  37     1.418512375307   118.20066034    10.05983949
 C     66  65  38     1.533680730824   112.47609766    73.94101032
 C     67  66  65     1.526231481886   109.90196739    65.35654172
 C     67  66  65     1.524907896563   109.81457380   188.33722271
 C     48  44  43     1.514724543341   114.58125770   122.28155007
 C     48  44  43     1.520566686502   106.77091545   246.58001062
 C     53  50  49     1.520858854365   113.22284518   286.82859861
 C     53  50  49     1.515522179481   110.21088982    52.13866685
 O     63  62  61     1.345186251565   127.49768187   179.18954396
 C     74  63  62     1.417683353221   118.44678340     1.45827710
 C     75  74  63     1.530755808155   107.70367459   178.46139628
 C     76  75  74     1.527193052302   110.49678996    63.57798146
 C     76  75  74     1.525448250745   109.87402130   186.43044656
 C     70  48  44     1.387037320623   121.22162681   337.59849505
 C     79  70  48     1.383457367178   120.50896122   182.02319058
 C     80  79  70     1.387805204847   121.00689295     0.55463198
 C     81  80  79     1.390039396600   118.24303647     0.11434506
 C     82  81  80     1.381112519457   120.96683893   359.68204239
 C     71  48  44     1.386045377360   122.09583580    97.57049310
 C     84  71  48     1.384588585898   120.42368983   182.58021523
 C     85  84  71     1.386733490617   121.06681400     0.45890995
 C     86  85  84     1.391175964823   118.23866842     0.00000000
 C     87  86  85     1.380010032210   120.92830184   359.93520351
 C     72  53  50     1.390690738806   118.88663605   172.13628119
 C     89  72  53     1.380111133424   120.57067334   177.92758820
 C     90  89  72     1.390966406208   120.92753968   359.71139560
 C     91  90  89     1.386945251876   118.22334772   359.78067850
 C     92  91  90     1.384543690715   121.08824019     0.14343296
 C     73  53  50     1.389744915407   119.98868663   273.66588718
 C     94  73  53     1.381413552272   120.56842230   179.43728419
 C     95  94  73     1.389754752393   120.97526791     0.05959676
 C     96  95  94     1.387819462106   118.22519540   359.27315635
 C     97  96  95     1.383208148617   121.00350013     0.36410878
 C     86  85  84     1.497763624141   121.45078297   180.06731152
 C     81  80  79     1.497783393085   121.22278498   180.98222813
 C     91  90  89     1.497770233480   120.42280016   180.52626250
 C     96  95  94     1.497909877696   120.70490448   180.21866135
 H      4   3   1     1.078289089623   121.48299607     0.55368082
 H      7   6   5     1.077322015462   118.73365094   179.88007562
 H     21  20  18     1.078232029064   121.52731381     1.80462835
 H     24  23  22     1.077919353802   119.01724758   179.97154564
 H     35  15   9     1.083226996432   115.56592704   357.63953981
 H     37  36  35     1.073438966966   121.19502232   359.61252202
 H     45  44  43     1.075041041170   125.94190482   180.39468986
 H     49  46  43     1.078941414721   120.72940110   356.85780584
 H     52  47  46     1.078960587325   121.97818879   177.69663869
 H     56  54  53     1.072069506562   125.55304353   358.38583448
 H     62  61  60     1.074178933930   122.34771719   175.36422559
 H     64  32  26     1.085714959785   114.09277001   168.90957644
 H     66  65  38     1.095532156945   110.14514239   309.96729845
 H     66  65  38     1.092935325305   104.41047727   193.27558375
 H     67  66  65     1.095478413708   108.19180269   306.72646318
 H     68  67  66     1.087975499908   110.31486742    66.02996192
 H     68  67  66     1.087849398860   110.41966482   306.28966201
 H     68  67  66     1.087042757669   110.52146220   186.07101955
 H     69  67  66     1.087905510465   110.55251923   302.02891284
 H     69  67  66     1.086775901923   110.09358660   182.18707293
 H     69  67  66     1.087209813100   110.61191401    62.52646546
 H     75  74  63     1.098004935007   109.81232844    58.32959990
 H     75  74  63     1.098489924487   110.03908354   298.49049713
 H     76  75  74     1.094931897426   107.37149560   305.02534748
 H     77  76  75     1.088161230195   110.32285189    64.55200992
 H     77  76  75     1.087069517832   110.69062184   304.38217358
 H     77  76  75     1.087126174140   110.37001057   184.39244753
 H     78  76  75     1.087941961458   110.45379729   298.71247570
 H     78  76  75     1.086692419823   110.10438417   179.07047030
 H     78  76  75     1.087351664642   110.93176846    59.01251894
 H     79  70  48     1.080407487294   119.93319366     2.16316917
 H     80  79  70     1.080726253868   119.38378640   180.45644057
 H     82  81  80     1.080639617495   119.48540016   179.73100231
 H     83  82  81     1.080562864946   119.72009744   180.62642854
 H     84  71  48     1.080139334947   120.11910091     2.75263999
 H     85  84  71     1.080737091480   119.26152436   180.32785709
 H     87  86  85     1.080514282229   119.44139963   179.78570407
 H     88  87  86     1.080292695014   119.85876427   180.27040108
 H     89  72  53     1.080378087014   119.55833391   357.21514129
 H     90  89  72     1.080641446272   119.64576483   179.76128041
 H     92  91  90     1.080693214192   119.63268814   180.19919892
 H     93  92  91     1.080050272302   119.46243751   180.17435841
 H     94  73  53     1.080520067653   119.70414584   358.31865067
 H     95  94  73     1.080719975572   119.53556012   179.65295974
 H     97  96  95     1.080695285916   119.60184778   180.20344002
 H     98  97  96     1.080249591021   119.45156525   180.24749799
 H     99  86  85     1.086950762822   111.05443400   356.18296984
 H     99  86  85     1.089045785172   110.41246803   235.48206673
 H     99  86  85     1.089560439902   110.29164675   116.57793626
 H    100  81  80     1.087158818573   111.02634358   340.85460214
 H    100  81  80     1.088018396260   110.75679507   219.63486873
 H    100  81  80     1.090393587839   109.98027219   100.56488396
 H    101  91  90     1.090104260105   110.06480661    72.21457795
 H    101  91  90     1.088515246976   110.66266833   313.23038820
 H    101  91  90     1.087019491454   111.04546273   192.17951891
 H    102  96  95     1.087849157834   110.84760952   323.14639193
 H    102  96  95     1.087242267482   110.95220011   201.89801313
 H    102  96  95     1.090458088970   109.96226545    82.33442279

---------------------------
INTERNAL COORDINATES (A.U.)
---------------------------
 C      0   0   0     0.000000000000     0.00000000     0.00000000
 O      1   0   0     2.297986634553     0.00000000     0.00000000
 C      1   2   0     2.797806888104   124.67833094     0.00000000
 C      3   1   2     2.608846719916   127.96237801   357.83476806
 C      4   3   1     2.618000616939   117.60273305   180.67985487
 C      5   4   3     2.635212893007   120.56935555   359.96538022
 C      6   5   4     2.621689809773   121.75253533   359.81268441
 C      7   6   5     2.619259831321   117.99365011     0.18040550
 C      8   7   6     2.765395030565   131.72064046   180.07931845
 C      9   8   7     2.592595176924   124.48905081     5.69646518
 C     10   9   8     2.666833796610   126.40913038   175.48104214
 N     11  10   9     2.171078626327   174.60687280   190.11308103
 C     10   9   8     2.666525963060   123.94499930   357.17709000
 N     13  10   9     2.169475206498   176.27946123   182.20109009
 C      9   8   7     2.741348445565   107.80932116   183.29587346
 F      5   4   3     2.531482581143   119.70753329   179.82387734
 F      6   5   4     2.529254510419   119.33271425   179.69408711
 C      2   1   3    44.080814867351   113.77043195   149.64953197
 O     18   2   1     2.285803781308    86.89652548   359.42806323
 C     18   2   1     2.802536768376   134.33273782   216.34822013
 C     20  18   2     2.608110125737   128.75606139   127.25239092
 C     21  20  18     2.620054772354   117.65190369   181.87616429
 C     22  21  20     2.634909101691   120.72392708   359.89886100
 C     23  22  21     2.622264839337   121.65404540   359.49962230
 C     24  23  22     2.616600790043   117.88495292     0.57022715
 C     25  24  23     2.769215900082   131.19861019   181.31149986
 C     26  25  24     2.596724645232   124.68184679    19.11702312
 C     27  26  25     2.661935007451   123.56511470   165.15570310
 N     28  27  26     2.169673839520   176.70234404   215.98852367
 C     27  26  25     2.660618076879   124.16873702   348.39059792
 N     30  27  26     2.170291655109   176.12210444   210.85979279
 C     26  25  24     2.718322010032   107.34253183   188.17436849
 F     22  21  20     2.530727708085   119.66627747   179.65263956
 F     23  22  21     2.529544900824   119.40993890   179.23841513
 C     15   9   8     2.604625965931   123.01107195   170.67471441
 C     35  15   9     2.643158122288   131.52499611   180.07606996
 C     36  35  15     2.626686088377   132.68129861   352.63920656
 C     37  36  35     2.623870824187   113.59693605   178.86544966
 C     38  37  36     2.660029939160   113.19694900   359.71519307
 S     39  38  37     3.260243949207   111.00851686     1.53008198
 C     39  38  37     2.659386898981   125.79199336   184.40161167
 S     41  39  38     3.312647180854   120.11522888     2.21330013
 C     42  41  39     3.242061225563    89.83138246   175.66341414
 C     43  42  41     2.629057255006   112.81988673     0.69645511
 C     44  43  42     2.618317078723   113.12253878   359.87563698
 C     43  42  41     2.695869807489   136.44240545   184.24121303
 C     46  43  42     2.676255204091   107.07143125   176.99579139
 C     44  43  42     2.848729643975   110.23286327   178.94620933
 C     46  43  42     2.633854419476   131.09872784   358.94538110
 C     49  46  43     2.596695679522   117.26071018   175.98125515
 C     50  49  46     2.678175699204   120.85020851   358.58306619
 C     47  46  43     2.597302518815   120.91151001   185.07140028
 C     50  49  46     2.872232078484   128.20752308   181.12675295
 C     53  50  49     2.846430422900   100.81780284   172.67307589
 C     54  53  50     2.624409868419   110.35419678     4.85169886
 C     54  53  50     2.619723030077   136.09055543   186.29215373
 C     56  54  53     2.623463252932   111.96163376   177.38077059
 S     55  54  53     3.243104550442   112.35446287   180.73308568
 C     57  56  54     2.669139499638   127.19600692   186.76047145
 S     59  57  56     3.259775834030   122.61303378   184.56230764
 C     60  59  57     3.299335481411    92.20770400   182.87623562
 C     61  60  59     2.630715187347   110.25334168     0.87142375
 C     62  61  60     2.625008669540   113.87957022   358.96980425
 C     32  26  25     2.595513111861   133.20998242   162.49941171
 O     38  37  36     2.544577850388   128.90393603   178.98493470
 C     65  38  37     2.680599906909   118.20066034    10.05983949
 C     66  65  38     2.898236558129   112.47609766    73.94101032
 C     67  66  65     2.884159517733   109.90196739    65.35654172
 C     67  66  65     2.881658303958   109.81457380   188.33722271
 C     48  44  43     2.862414555244   114.58125770   122.28155007
 C     48  44  43     2.873454605853   106.77091545   246.58001062
 C     53  50  49     2.874006723099   113.22284518   286.82859861
 C     53  50  49     2.863921869103   110.21088982    52.13866685
 O     63  62  61     2.542033614574   127.49768187   179.18954396
 C     74  63  62     2.679033282207   118.44678340     1.45827710
 C     75  74  63     2.892709255322   107.70367459   178.46139628
 C     76  75  74     2.885976622478   110.49678996    63.57798146
 C     76  75  74     2.882679425377   109.87402130   186.43044656
 C     70  48  44     2.621120673505   121.22162681   337.59849505
 C     79  70  48     2.614355541923   120.50896122   182.02319058
 C     80  79  70     2.622571764391   121.00689295     0.55463198
 C     81  80  79     2.626793774935   118.24303647     0.11434506
 C     82  81  80     2.609924421903   120.96683893   359.68204239
 C     71  48  44     2.619246172397   122.09583580    97.57049310
 C     84  71  48     2.616493235501   120.42368983   182.58021523
 C     85  84  71     2.620546518004   121.06681400     0.45890995
 C     86  85  84     2.628941577608   118.23866842     0.00000000
 C     87  86  85     2.607841022941   120.92830184   359.93520351
 C     72  53  50     2.628024633323   118.88663605   172.13628119
 C     89  72  53     2.608032076546   120.57067334   177.92758820
 C     90  89  72     2.628545569218   120.92753968   359.71139560
 C     91  90  89     2.620946688787   118.22334772   359.78067850
 C     92  91  90     2.616408395901   121.08824019     0.14343296
 C     73  53  50     2.626237286129   119.98868663   273.66588718
 C     94  73  53     2.610493291481   120.56842230   179.43728419
 C     95  94  73     2.626255875339   120.97526791     0.05959676
 C     96  95  94     2.622598706706   118.22519540   359.27315635
 C     97  96  95     2.613884587094   121.00350013     0.36410878
 C     86  85  84     2.830363062976   121.45078297   180.06731152
 C     81  80  79     2.830400420865   121.22278498   180.98222813
 C     91  90  89     2.830375552817   120.42280016   180.52626250
 C     96  95  94     2.830639442141   120.70490448   180.21866135
 H      4   3   1     2.037671072583   121.48299607     0.55368082
 H      7   6   5     2.035843567268   118.73365094   179.88007562
 H     21  20  18     2.037563243754   121.52731381     1.80462835
 H     24  23  22     2.036972373138   119.01724758   179.97154564
 H     35  15   9     2.047002364127   115.56592704   357.63953981
 H     37  36  35     2.028505669044   121.19502232   359.61252202
 H     45  44  43     2.031533150537   125.94190482   180.39468986
 H     49  46  43     2.038903788368   120.72940110   356.85780584
 H     52  47  46     2.038940019338   121.97818879   177.69663869
 H     56  54  53     2.025917763930   125.55304353   358.38583448
 H     62  61  60     2.029904003956   122.34771719   175.36422559
 H     64  32  26     2.051703933494   114.09277001   168.90957644
 H     66  65  38     2.070255747530   110.14514239   309.96729845
 H     66  65  38     2.065348446915   104.41047727   193.27558375
 H     67  66  65     2.070154187530   108.19180269   306.72646318
 H     68  67  66     2.055975735242   110.31486742    66.02996192
 H     68  67  66     2.055737438796   110.41966482   306.28966201
 H     68  67  66     2.054213107856   110.52146220   186.07101955
 H     69  67  66     2.055843474363   110.55251923   302.02891284
 H     69  67  66     2.053708823579   110.09358660   182.18707293
 H     69  67  66     2.054528796870   110.61191401    62.52646546
 H     75  74  63     2.074928620857   109.81232844    58.32959990
 H     75  74  63     2.075845118153   110.03908354   298.49049713
 H     76  75  74     2.069121421429   107.37149560   305.02534748
 H     77  76  75     2.056326714620   110.32285189    64.55200992
 H     77  76  75     2.054263677237   110.69062184   304.38217358
 H     77  76  75     2.054370742142   110.37001057   184.39244753
 H     78  76  75     2.055912356756   110.45379729   298.71247570
 H     78  76  75     2.053551065273   110.10438417   179.07047030
 H     78  76  75     2.054796857437   110.93176846    59.01251894
 H     79  70  48     2.041674264023   119.93319366     2.16316917
 H     80  79  70     2.042276645550   119.38378640   180.45644057
 H     82  81  80     2.042112926531   119.48540016   179.73100231
 H     83  82  81     2.041967885233   119.72009744   180.62642854
 H     84  71  48     2.041167529526   120.11910091     2.75263999
 H     85  84  71     2.042297125667   119.26152436   180.32785709
 H     87  86  85     2.041876077203   119.44139963   179.78570407
 H     88  87  86     2.041457338052   119.85876427   180.27040108
 H     89  72  53     2.041618705546   119.55833391   357.21514129
 H     90  89  72     2.042116382418   119.64576483   179.76128041
 H     92  91  90     2.042214209609   119.63268814   180.19919892
 H     93  92  91     2.040999225518   119.46243751   180.17435841
 H     94  73  53     2.041887010069   119.70414584   358.31865067
 H     95  94  73     2.042264781289   119.53556012   179.65295974
 H     97  96  95     2.042218124600   119.60184778   180.20344002
 H     98  97  96     2.041375883309   119.45156525   180.24749799
 H     99  86  85     2.054039262791   111.05443400   356.18296984
 H     99  86  85     2.057998281276   110.41246803   235.48206673
 H     99  86  85     2.058970837770   110.29164675   116.57793626
 H    100  81  80     2.054432431179   111.02634358   340.85460214
 H    100  81  80     2.056056797599   110.75679507   219.63486873
 H    100  81  80     2.060545259199   109.98027219   100.56488396
 H    101  91  90     2.059998509020   110.06480661    72.21457795
 H    101  91  90     2.056995709383   110.66266833   313.23038820
 H    101  91  90     2.054169141082   111.04546273   192.17951891
 H    102  96  95     2.055736983323   110.84760952   323.14639193
 H    102  96  95     2.054590126765   110.95220011   201.89801313
 H    102  96  95     2.060667148672   109.96226545    82.33442279

---------------------
BASIS SET INFORMATION
---------------------
There are 6 groups of distinct atoms

 Group   1 Type C   : 7s4p1d contracted to 3s2p1d pattern {511/31/1}
 Group   2 Type O   : 7s4p1d contracted to 3s2p1d pattern {511/31/1}
 Group   3 Type N   : 7s4p1d contracted to 3s2p1d pattern {511/31/1}
 Group   4 Type F   : 7s4p1d contracted to 3s2p1d pattern {511/31/1}
 Group   5 Type S   : 10s7p1d contracted to 4s3p1d pattern {5311/511/1}
 Group   6 Type H   : 4s1p contracted to 2s1p pattern {31/1}

Atom   0C    basis set group =>   1
Atom   1O    basis set group =>   2
Atom   2C    basis set group =>   1
Atom   3C    basis set group =>   1
Atom   4C    basis set group =>   1
Atom   5C    basis set group =>   1
Atom   6C    basis set group =>   1
Atom   7C    basis set group =>   1
Atom   8C    basis set group =>   1
Atom   9C    basis set group =>   1
Atom  10C    basis set group =>   1
Atom  11N    basis set group =>   3
Atom  12C    basis set group =>   1
Atom  13N    basis set group =>   3
Atom  14C    basis set group =>   1
Atom  15F    basis set group =>   4
Atom  16F    basis set group =>   4
Atom  17C    basis set group =>   1
Atom  18O    basis set group =>   2
Atom  19C    basis set group =>   1
Atom  20C    basis set group =>   1
Atom  21C    basis set group =>   1
Atom  22C    basis set group =>   1
Atom  23C    basis set group =>   1
Atom  24C    basis set group =>   1
Atom  25C    basis set group =>   1
Atom  26C    basis set group =>   1
Atom  27C    basis set group =>   1
Atom  28N    basis set group =>   3
Atom  29C    basis set group =>   1
Atom  30N    basis set group =>   3
Atom  31C    basis set group =>   1
Atom  32F    basis set group =>   4
Atom  33F    basis set group =>   4
Atom  34C    basis set group =>   1
Atom  35C    basis set group =>   1
Atom  36C    basis set group =>   1
Atom  37C    basis set group =>   1
Atom  38C    basis set group =>   1
Atom  39S    basis set group =>   5
Atom  40C    basis set group =>   1
Atom  41S    basis set group =>   5
Atom  42C    basis set group =>   1
Atom  43C    basis set group =>   1
Atom  44C    basis set group =>   1
Atom  45C    basis set group =>   1
Atom  46C    basis set group =>   1
Atom  47C    basis set group =>   1
Atom  48C    basis set group =>   1
Atom  49C    basis set group =>   1
Atom  50C    basis set group =>   1
Atom  51C    basis set group =>   1
Atom  52C    basis set group =>   1
Atom  53C    basis set group =>   1
Atom  54C    basis set group =>   1
Atom  55C    basis set group =>   1
Atom  56C    basis set group =>   1
Atom  57S    basis set group =>   5
Atom  58C    basis set group =>   1
Atom  59S    basis set group =>   5
Atom  60C    basis set group =>   1
Atom  61C    basis set group =>   1
Atom  62C    basis set group =>   1
Atom  63C    basis set group =>   1
Atom  64O    basis set group =>   2
Atom  65C    basis set group =>   1
Atom  66C    basis set group =>   1
Atom  67C    basis set group =>   1
Atom  68C    basis set group =>   1
Atom  69C    basis set group =>   1
Atom  70C    basis set group =>   1
Atom  71C    basis set group =>   1
Atom  72C    basis set group =>   1
Atom  73O    basis set group =>   2
Atom  74C    basis set group =>   1
Atom  75C    basis set group =>   1
Atom  76C    basis set group =>   1
Atom  77C    basis set group =>   1
Atom  78C    basis set group =>   1
Atom  79C    basis set group =>   1
Atom  80C    basis set group =>   1
Atom  81C    basis set group =>   1
Atom  82C    basis set group =>   1
Atom  83C    basis set group =>   1
Atom  84C    basis set group =>   1
Atom  85C    basis set group =>   1
Atom  86C    basis set group =>   1
Atom  87C    basis set group =>   1
Atom  88C    basis set group =>   1
Atom  89C    basis set group =>   1
Atom  90C    basis set group =>   1
Atom  91C    basis set group =>   1
Atom  92C    basis set group =>   1
Atom  93C    basis set group =>   1
Atom  94C    basis set group =>   1
Atom  95C    basis set group =>   1
Atom  96C    basis set group =>   1
Atom  97C    basis set group =>   1
Atom  98C    basis set group =>   1
Atom  99C    basis set group =>   1
Atom 100C    basis set group =>   1
Atom 101C    basis set group =>   1
Atom 102H    basis set group =>   6
Atom 103H    basis set group =>   6
Atom 104H    basis set group =>   6
Atom 105H    basis set group =>   6
Atom 106H    basis set group =>   6
Atom 107H    basis set group =>   6
Atom 108H    basis set group =>   6
Atom 109H    basis set group =>   6
Atom 110H    basis set group =>   6
Atom 111H    basis set group =>   6
Atom 112H    basis set group =>   6
Atom 113H    basis set group =>   6
Atom 114H    basis set group =>   6
Atom 115H    basis set group =>   6
Atom 116H    basis set group =>   6
Atom 117H    basis set group =>   6
Atom 118H    basis set group =>   6
Atom 119H    basis set group =>   6
Atom 120H    basis set group =>   6
Atom 121H    basis set group =>   6
Atom 122H    basis set group =>   6
Atom 123H    basis set group =>   6
Atom 124H    basis set group =>   6
Atom 125H    basis set group =>   6
Atom 126H    basis set group =>   6
Atom 127H    basis set group =>   6
Atom 128H    basis set group =>   6
Atom 129H    basis set group =>   6
Atom 130H    basis set group =>   6
Atom 131H    basis set group =>   6
Atom 132H    basis set group =>   6
Atom 133H    basis set group =>   6
Atom 134H    basis set group =>   6
Atom 135H    basis set group =>   6
Atom 136H    basis set group =>   6
Atom 137H    basis set group =>   6
Atom 138H    basis set group =>   6
Atom 139H    basis set group =>   6
Atom 140H    basis set group =>   6
Atom 141H    basis set group =>   6
Atom 142H    basis set group =>   6
Atom 143H    basis set group =>   6
Atom 144H    basis set group =>   6
Atom 145H    basis set group =>   6
Atom 146H    basis set group =>   6
Atom 147H    basis set group =>   6
Atom 148H    basis set group =>   6
Atom 149H    basis set group =>   6
Atom 150H    basis set group =>   6
Atom 151H    basis set group =>   6
Atom 152H    basis set group =>   6
Atom 153H    basis set group =>   6
Atom 154H    basis set group =>   6
Atom 155H    basis set group =>   6
Atom 156H    basis set group =>   6
Atom 157H    basis set group =>   6
Atom 158H    basis set group =>   6
Atom 159H    basis set group =>   6
------------------------------------------------------------------------------
                           ORCA GTO INTEGRAL CALCULATION
------------------------------------------------------------------------------

                         BASIS SET STATISTICS AND STARTUP INFO

 # of primitive gaussian shells          ... 1538
 # of primitive gaussian functions       ... 2902
 # of contracted shells                  ...  794
 # of contracted basis functions         ... 1734
 Highest angular momentum                ...    2
 Maximum contraction depth               ...    5
 Integral package used                   ... LIBINT
 Integral threshhold            Thresh   ...  2.500e-11
 Primitive cut-off              TCut     ...  2.500e-12


------------------------------ INTEGRAL EVALUATION ----------------------------


 * One electron integrals 
 Pre-screening matrix                    ... done
 Shell pair data                         ... done (   0.029 sec)

-------------------------------------------------------------------------------
                                 ORCA SCF
-------------------------------------------------------------------------------

------------
SCF SETTINGS
------------
Hamiltonian:
 Ab initio Hamiltonian  Method          .... Hartree-Fock(GTOs)


General Settings:
 Integral files         IntName         .... p-IO2
 Hartree-Fock type      HFTyp           .... RHF
 Total Charge           Charge          ....    0
 Multiplicity           Mult            ....    1
 Number of Electrons    NEL             ....  734
 Basis Dimension        Dim             .... 1734
 Nuclear Repulsion      ENuc            ....  18481.7255135620 Eh

Convergence Acceleration:
 DIIS                   CNVDIIS         .... on
   Start iteration      DIISMaxIt       ....    12
   Startup error        DIISStart       ....  0.200000
   # of expansion vecs  DIISMaxEq       ....     5
   Bias factor          DIISBfac        ....   1.050
   Max. coefficient     DIISMaxC        ....  10.000
 Newton-Raphson         CNVNR           .... off
 SOSCF                  CNVSOSCF        .... on
   Start iteration      SOSCFMaxIt      ....   150
   Startup grad/error   SOSCFStart      ....  0.003300
 Level Shifting         CNVShift        .... on
   Level shift para.    LevelShift      ....    0.2500
   Turn off err/grad.   ShiftErr        ....    0.0010
 Zerner damping         CNVZerner       .... off
 Static damping         CNVDamp         .... on
   Fraction old density DampFac         ....    0.7000
   Max. Damping (<1)    DampMax         ....    0.9800
   Min. Damping (>=0)   DampMin         ....    0.0000
   Turn off err/grad.   DampErr         ....    0.1000
 Fernandez-Rico         CNVRico         .... off

SCF Procedure:
 Maximum # iterations   MaxIter         ....   125
 SCF integral mode      SCFMode         .... Direct
   Integral package                     .... LIBINT
 Reset frequency        DirectResetFreq ....    20
 Integral Threshold     Thresh          ....  2.500e-11 Eh
 Primitive CutOff       TCut            ....  2.500e-12 Eh

Convergence Tolerance:
 Convergence Check Mode ConvCheckMode   .... Total+1el-Energy
 Convergence forced     ConvForced      .... 1
 Energy Change          TolE            ....  1.000e-08 Eh
 1-El. energy change                    ....  1.000e-05 Eh
 Orbital Gradient       TolG            ....  1.000e-05
 Orbital Rotation angle TolX            ....  1.000e-05
 DIIS Error             TolErr          ....  5.000e-07


Diagonalization of the overlap matrix:
Smallest eigenvalue                        ... 1.918e-04
Time for diagonalization                   ...    0.895 sec
Threshold for overlap eigenvalues          ... 1.000e-08
Number of eigenvalues below threshold      ... 0
Time for construction of square roots      ...    0.370 sec
Total time needed                          ...    1.281 sec

-------------------
DFT GRID GENERATION
-------------------

General Integration Accuracy     IntAcc      ...  4.340
Radial Grid Type                 RadialGrid  ... Gauss-Chebyshev
Angular Grid (max. acc.)         AngularGrid ... Lebedev-110
Angular grid pruning method      GridPruning ... 3 (G Style)
Weight generation scheme         WeightScheme... Becke
Basis function cutoff            BFCut       ...    1.0000e-11
Integration weight cutoff        WCut        ...    1.0000e-14
Grids for H and He will be reduced by one unit

# of grid points (after initial pruning)     ... 216324 (   0.5 sec)
# of grid points (after weights+screening)   ... 186831 (  17.4 sec)
nearest neighbour list constructed           ...    0.0 sec
Grid point re-assignment to atoms done       ...    0.0 sec
Grid point division into batches done        ...    0.2 sec
Reduced shell lists constructed in    3.6 sec

Total number of grid points                  ...   186831
Total number of batches                      ...     3004
Average number of points per batch           ...       62
Average number of grid points per atom       ...     1168
Average number of shells per batch           ...   123.77 (15.59%)
Average number of basis functions per batch  ...   249.14 (14.37%)
Average number of large shells per batch     ...    69.79 (56.39%)
Average number of large basis fcns per batch ...   144.18 (57.87%)
Maximum spatial batch extension              ...  20.68, 23.29, 22.44 au
Average spatial batch extension              ...   3.09,  3.42,  3.05 au

Time for grid setup =   21.493 sec

------------------------------
INITIAL GUESS: MODEL POTENTIAL
------------------------------
Loading Hartree-Fock densities                     ... done
Calculating cut-offs                               ... done
Setting up the integral package                    ... done
Initializing the effective Hamiltonian             ... done
Starting the Coulomb interaction                   ... done (  20.1 sec)
Reading the grid                                   ... done
Mapping shells                                     ... done
Starting the XC term evaluation                    ... done (   2.6 sec)
Transforming the Hamiltonian                       ... done (   0.3 sec)
Diagonalizing the Hamiltonian                      ... done (   0.9 sec)
Back transforming the eigenvectors                 ... done (   0.1 sec)
Now organizing SCF variables                       ... done
                      ------------------
                      INITIAL GUESS DONE (  46.1 sec)
                      ------------------
--------------
SCF ITERATIONS
--------------
ITER       Energy         Delta-E        Max-DP      RMS-DP      [F,P]     Damp
               ***  Starting incremental Fock matrix formation  ***
  0  -5788.4096889762   0.000000000000 0.35635344  0.00122659  0.2356912 0.7000
  1  -5789.5259973758  -1.116308399560 0.27174839  0.00095034  0.1449947 0.7000
                               ***Turning on DIIS***
  2  -5790.2142720753  -0.688274699482 0.63450467  0.00222191  0.0831712 0.0000
  3  -5786.0455105291   4.168761546196 0.06306943  0.00043552  0.0463030 0.0000
  4  -5791.8990814254  -5.853570896317 0.03331833  0.00017420  0.0156830 0.0000
  5  -5791.8268641365   0.072217288918 0.01274957  0.00008101  0.0099596 0.0000
  6  -5791.6043849064   0.222479230084 0.00608379  0.00004900  0.0035302 0.0000
  7  -5791.7078981611  -0.103513254733 0.00464570  0.00003125  0.0024933 0.0000
                      *** Initiating the SOSCF procedure ***
                           *** Shutting down DIIS ***
                      *** Re-Reading the Fockian *** 
                      *** Removing any level shift *** 
ITER      Energy       Delta-E        Grad      Rot      Max-DP    RMS-DP
  8  -5791.68043560   0.0274625566  0.003230  0.003230  0.003938  0.000025
               *** Restarting incremental Fock matrix formation ***
  9  -5791.69741393  -0.0169783215  0.001651  0.007560  0.002177  0.000015
 10  -5791.69754487  -0.0001309452  0.000628  0.008688  0.003326  0.000022
 11  -5791.69760372  -0.0000588446  0.000259  0.000881  0.000616  0.000005
 12  -5791.69761343  -0.0000097149  0.000113  0.000711  0.000207  0.000002
 13  -5791.69761508  -0.0000016453  0.000027  0.000143  0.000116  0.000001
 14  -5791.69761538  -0.0000003006  0.000018  0.000136  0.000069  0.000001
 15  -5791.69761548  -0.0000001062  0.000014  0.000148  0.000064  0.000000
 16  -5791.69761552  -0.0000000409  0.000007  0.000115  0.000050  0.000000
 17  -5791.69761557  -0.0000000454  0.000004  0.000038  0.000017  0.000000
                  ***Gradient check signals convergence***
              ***Rediagonalizing the Fockian in SOSCF/NRSCF***

               *****************************************************
               *                     SUCCESS                       *
               *           SCF CONVERGED AFTER  18 CYCLES          *
               *****************************************************


----------------
TOTAL SCF ENERGY
----------------

Total Energy       :        -5791.69761557 Eh         -157600.10435 eV

Components:
Nuclear Repulsion  :        18481.72551356 Eh          502913.31884 eV
Electronic Energy  :       -24273.42312913 Eh         -660513.42320 eV
One Electron Energy:       -44773.23051211 Eh        -1218341.54152 eV
Two Electron Energy:        20499.80738298 Eh          557828.11832 eV

Virial components:
Potential Energy   :       -11567.36782741 Eh         -314764.08088 eV
Kinetic Energy     :         5775.67021184 Eh          157163.97653 eV
Virial Ratio       :            2.00277499


---------------
SCF CONVERGENCE
---------------

  Last Energy change         ...    9.0586e-10  Tolerance :   1.0000e-08
  Last MAX-Density change    ...    5.1305e-06  Tolerance :   1.0000e-07
  Last RMS-Density change    ...    4.6438e-08  Tolerance :   5.0000e-09
  Last Orbital Gradient      ...    1.7338e-06  Tolerance :   1.0000e-05
  Last Orbital Rotation      ...    9.1379e-06  Tolerance :   1.0000e-05

             **** THE GBW FILE WAS UPDATED (p-IO2.gbw) ****
             **** DENSITY FILE WAS UPDATED (p-IO2.scfp) ****
             **** ENERGY FILE WAS UPDATED (p-IO2.en.tmp) ****
             **** THE GBW FILE WAS UPDATED (p-IO2.gbw) ****
             **** DENSITY FILE WAS UPDATED (p-IO2.scfp) ****
----------------
ORBITAL ENERGIES
----------------

  NO   OCC          E(Eh)            E(eV) 
   0   2.0000     -91.982366     -2502.9674 
   1   2.0000     -91.981382     -2502.9406 
   2   2.0000     -91.972983     -2502.7121 
   3   2.0000     -91.971164     -2502.6626 
   4   2.0000     -26.335214      -716.6176 
   5   2.0000     -26.333840      -716.5802 
   6   2.0000     -26.333262      -716.5645 
   7   2.0000     -26.332747      -716.5505 
   8   2.0000     -20.605869      -560.7142 
   9   2.0000     -20.605449      -560.7028 
  10   2.0000     -20.573065      -559.8216 
  11   2.0000     -20.563690      -559.5665 
  12   2.0000     -15.591742      -424.2729 
  13   2.0000     -15.590742      -424.2456 
  14   2.0000     -15.589385      -424.2087 
  15   2.0000     -15.586607      -424.1331 
  16   2.0000     -11.377704      -309.6031 
  17   2.0000     -11.377055      -309.5854 
  18   2.0000     -11.376271      -309.5641 
  19   2.0000     -11.375789      -309.5510 
  20   2.0000     -11.372089      -309.4503 
  21   2.0000     -11.362643      -309.1932 
  22   2.0000     -11.343160      -308.6631 
  23   2.0000     -11.341968      -308.6306 
  24   2.0000     -11.332446      -308.3715 
  25   2.0000     -11.330053      -308.3064 
  26   2.0000     -11.322979      -308.1139 
  27   2.0000     -11.320796      -308.0545 
  28   2.0000     -11.320099      -308.0355 
  29   2.0000     -11.318600      -307.9948 
  30   2.0000     -11.316287      -307.9318 
  31   2.0000     -11.315124      -307.9002 
  32   2.0000     -11.310175      -307.7655 
  33   2.0000     -11.306752      -307.6724 
  34   2.0000     -11.303235      -307.5767 
  35   2.0000     -11.302718      -307.5626 
  36   2.0000     -11.302651      -307.5608 
  37   2.0000     -11.301368      -307.5259 
  38   2.0000     -11.298051      -307.4356 
  39   2.0000     -11.297992      -307.4340 
  40   2.0000     -11.297825      -307.4295 
  41   2.0000     -11.297153      -307.4112 
  42   2.0000     -11.295540      -307.3673 
  43   2.0000     -11.295023      -307.3532 
  44   2.0000     -11.294893      -307.3497 
  45   2.0000     -11.294670      -307.3436 
  46   2.0000     -11.294657      -307.3432 
  47   2.0000     -11.294424      -307.3369 
  48   2.0000     -11.288339      -307.1713 
  49   2.0000     -11.288272      -307.1695 
  50   2.0000     -11.287543      -307.1497 
  51   2.0000     -11.285174      -307.0852 
  52   2.0000     -11.280118      -306.9476 
  53   2.0000     -11.279865      -306.9407 
  54   2.0000     -11.276170      -306.8402 
  55   2.0000     -11.275314      -306.8169 
  56   2.0000     -11.274497      -306.7947 
  57   2.0000     -11.271160      -306.7038 
  58   2.0000     -11.270046      -306.6736 
  59   2.0000     -11.267863      -306.6141 
  60   2.0000     -11.266454      -306.5758 
  61   2.0000     -11.263934      -306.5072 
  62   2.0000     -11.261835      -306.4501 
  63   2.0000     -11.261221      -306.4334 
  64   2.0000     -11.258311      -306.3542 
  65   2.0000     -11.258016      -306.3462 
  66   2.0000     -11.255093      -306.2667 
  67   2.0000     -11.254147      -306.2409 
  68   2.0000     -11.251069      -306.1572 
  69   2.0000     -11.250565      -306.1434 
  70   2.0000     -11.249566      -306.1163 
  71   2.0000     -11.248923      -306.0988 
  72   2.0000     -11.247564      -306.0618 
  73   2.0000     -11.246926      -306.0444 
  74   2.0000     -11.244656      -305.9826 
  75   2.0000     -11.244456      -305.9772 
  76   2.0000     -11.243873      -305.9613 
  77   2.0000     -11.243306      -305.9459 
  78   2.0000     -11.243032      -305.9385 
  79   2.0000     -11.242328      -305.9193 
  80   2.0000     -11.241234      -305.8895 
  81   2.0000     -11.240503      -305.8696 
  82   2.0000     -11.240451      -305.8682 
  83   2.0000     -11.240161      -305.8603 
  84   2.0000     -11.240029      -305.8567 
  85   2.0000     -11.239748      -305.8491 
  86   2.0000     -11.239633      -305.8460 
  87   2.0000     -11.238748      -305.8219 
  88   2.0000     -11.238167      -305.8061 
  89   2.0000     -11.237632      -305.7915 
  90   2.0000     -11.237269      -305.7816 
  91   2.0000     -11.237063      -305.7760 
  92   2.0000     -11.236900      -305.7716 
  93   2.0000     -11.236873      -305.7709 
  94   2.0000     -11.235959      -305.7460 
  95   2.0000     -11.234408      -305.7038 
  96   2.0000     -11.233592      -305.6816 
  97   2.0000     -11.233563      -305.6808 
  98   2.0000     -11.232533      -305.6527 
  99   2.0000     -11.232317      -305.6469 
 100   2.0000     -11.228197      -305.5348 
 101   2.0000     -11.227305      -305.5105 
 102   2.0000      -9.018200      -245.3977 
 103   2.0000      -9.016992      -245.3648 
 104   2.0000      -9.008396      -245.1309 
 105   2.0000      -9.005404      -245.0495 
 106   2.0000      -6.705653      -182.4701 
 107   2.0000      -6.704576      -182.4408 
 108   2.0000      -6.704428      -182.4368 
 109   2.0000      -6.703373      -182.4081 
 110   2.0000      -6.702690      -182.3895 
 111   2.0000      -6.701478      -182.3565 
 112   2.0000      -6.695964      -182.2064 
 113   2.0000      -6.694990      -182.1799 
 114   2.0000      -6.693040      -182.1269 
 115   2.0000      -6.692734      -182.1186 
 116   2.0000      -6.691689      -182.0901 
 117   2.0000      -6.689833      -182.0396 
 118   2.0000      -1.643832       -44.7309 
 119   2.0000      -1.643453       -44.7206 
 120   2.0000      -1.628894       -44.3244 
 121   2.0000      -1.628578       -44.3159 
 122   2.0000      -1.431636       -38.9568 
 123   2.0000      -1.431380       -38.9498 
 124   2.0000      -1.404549       -38.2197 
 125   2.0000      -1.396527       -38.0014 
 126   2.0000      -1.253480       -34.1089 
 127   2.0000      -1.252572       -34.0842 
 128   2.0000      -1.238733       -33.7076 
 129   2.0000      -1.232035       -33.5254 
 130   2.0000      -1.231255       -33.5041 
 131   2.0000      -1.228547       -33.4305 
 132   2.0000      -1.226834       -33.3839 
 133   2.0000      -1.224797       -33.3284 
 134   2.0000      -1.213503       -33.0211 
 135   2.0000      -1.209752       -32.9190 
 136   2.0000      -1.176561       -32.0159 
 137   2.0000      -1.175412       -31.9846 
 138   2.0000      -1.169696       -31.8290 
 139   2.0000      -1.169428       -31.8218 
 140   2.0000      -1.163396       -31.6576 
 141   2.0000      -1.157950       -31.5094 
 142   2.0000      -1.156256       -31.4633 
 143   2.0000      -1.133116       -30.8337 
 144   2.0000      -1.111236       -30.2383 
 145   2.0000      -1.108034       -30.1511 
 146   2.0000      -1.100410       -29.9437 
 147   2.0000      -1.099924       -29.9305 
 148   2.0000      -1.097650       -29.8686 
 149   2.0000      -1.090679       -29.6789 
 150   2.0000      -1.088417       -29.6173 
 151   2.0000      -1.078677       -29.3523 
 152   2.0000      -1.072293       -29.1786 
 153   2.0000      -1.072159       -29.1749 
 154   2.0000      -1.054944       -28.7065 
 155   2.0000      -1.047054       -28.4918 
 156   2.0000      -1.045257       -28.4429 
 157   2.0000      -1.040791       -28.3214 
 158   2.0000      -1.034307       -28.1449 
 159   2.0000      -1.026437       -27.9308 
 160   2.0000      -1.023253       -27.8441 
 161   2.0000      -1.020402       -27.7665 
 162   2.0000      -1.017766       -27.6948 
 163   2.0000      -1.015562       -27.6349 
 164   2.0000      -1.014460       -27.6049 
 165   2.0000      -1.013470       -27.5779 
 166   2.0000      -1.006995       -27.4017 
 167   2.0000      -1.003009       -27.2933 
 168   2.0000      -0.978550       -26.6277 
[...]
   366a -> 369a  :     0.024130 (c= -0.15533882)
   366a -> 371a  :     0.028029 (c= -0.16741911)

STATE  2:  E=   0.102698 au      2.795 eV    22539.7 cm**-1
   360a -> 368a  :     0.016009 (c=  0.12652589)
   363a -> 368a  :     0.025910 (c= -0.16096725)
   364a -> 368a  :     0.029617 (c=  0.17209688)
   365a -> 367a  :     0.374116 (c=  0.61165044)
   366a -> 368a  :     0.410047 (c=  0.64034890)
   366a -> 370a  :     0.010623 (c= -0.10306628)
   366a -> 372a  :     0.014291 (c= -0.11954351)

STATE  3:  E=   0.141377 au      3.847 eV    31028.7 cm**-1
   350a -> 368a  :     0.019751 (c= -0.14053812)
   357a -> 368a  :     0.018904 (c=  0.13749014)
   360a -> 367a  :     0.040430 (c=  0.20107157)
   361a -> 368a  :     0.010056 (c=  0.10027962)
   363a -> 367a  :     0.058448 (c= -0.24176063)
   364a -> 367a  :     0.071258 (c=  0.26694282)
   365a -> 368a  :     0.142054 (c=  0.37690027)
   365a -> 370a  :     0.036356 (c=  0.19067329)
   365a -> 375a  :     0.018503 (c=  0.13602697)
   366a -> 367a  :     0.011645 (c= -0.10791311)
   366a -> 369a  :     0.136788 (c=  0.36984889)
   366a -> 370a  :     0.071437 (c= -0.26727654)
   366a -> 371a  :     0.156819 (c=  0.39600431)
   366a -> 373a  :     0.033883 (c= -0.18407416)


----------------------
CIS-EXCITATION SPECTRA
----------------------

Center of mass = ( 20.8843, -4.6238, -6.5115)
Calculating the Dipole integrals                  ... done
Transforming integrals                            ... done
Calculating the Linear Momentum integrals         ... done
Transforming integrals                            ... done
Calculating angular momentum integrals            ... done
Transforming integrals                            ... done

-----------------------------------------------------------------------------
         ABSORPTION SPECTRUM VIA TRANSITION ELECTRIC DIPOLE MOMENTS
-----------------------------------------------------------------------------
State   Energy    Wavelength  fosc         T2        TX        TY        TZ  
        (cm-1)      (nm)                 (au**2)    (au)      (au)      (au) 
-----------------------------------------------------------------------------
   1   18903.2    529.0   3.398715412  59.19090  -7.16665  -0.83203   2.67165
   2   22539.7    443.7   0.178189280   2.60261  -0.86470   1.13611   0.75110
   3   31028.7    322.3   0.053322495   0.56575   0.21354   0.65663   0.29830

-----------------------------------------------------------------------------
         ABSORPTION SPECTRUM VIA TRANSITION VELOCITY DIPOLE MOMENTS
-----------------------------------------------------------------------------
State   Energy    Wavelength   fosc        P2         PX        PY        PZ  
        (cm-1)      (nm)                 (au**2)     (au)      (au)      (au) 
-----------------------------------------------------------------------------
   1   18903.2    529.0   2.300861830   0.29726   0.50526   0.06074  -0.19564
   2   22539.7    443.7   0.104181917   0.01605   0.08761  -0.07716  -0.04920
   3   31028.7    322.3   0.019305762   0.00409   0.05340  -0.01780   0.03042

-------------------------------------------------------------------
                             CD SPECTRUM
-------------------------------------------------------------------
State  Energy     Wavelength     R         MX        MY        MZ   
       (cm-1)       (nm)     (1e40*cgs)   (au)      (au)      (au)  
-------------------------------------------------------------------
   1   18903.2    529.0    -140.25181  -0.27862  -0.63303  -1.05588
   2   22539.7    443.7     17.06107  -0.18929   0.10213  -0.32422
   3   31028.7    322.3    164.69238  -0.06792   0.40616   0.32563

Total run time:    69444.000 sec

           *** ORCA-CIS/TD-DFT FINISHED WITHOUT ERROR ***

-----------------------
CIS/TD-DFT TOTAL ENERGY
-----------------------

    E(SCF)  =  -5791.697615568 Eh
    DE(CIS) =      0.086129346 Eh (Root  1)
    ----------------------------- ---------
    E(tot)  =  -5791.611486223 Eh


-------------------------   --------------------
FINAL SINGLE POINT ENERGY     -5791.611486222742
-------------------------   --------------------

------------------------------------------------------------------------------
                         ORCA SCF GRADIENT CALCULATION
------------------------------------------------------------------------------


------------
CIS GRADIENT
------------

Reference wavefunction             ... RHF
State of interest                  ... 1
Basis dimension                    ... 1734
DFT-XC contribution needed         ... NO
RI-approximation                   ... OFF
CIS-vectors being read from        ... p-IO2.cis

 => Number of Vectors found: 3
 => Orbital Window: 118...366 -> 367...1733

Reading the CIS file                     ... done
Norm of the CI vector                    ... 1.000000000
Making the CIS (pseudo)densities         ... done
Making operators G(D) and Q(T)           ... done
Transforming the Fock operators          ... done
Making the frozen-core relaxed density   ... done
Constructing the G(H) operator           ... done
Transforming the G(H) operator           ... done
Calculating the CIS Lagrangian           ... done
Solving the Z-vector equations           ... done
Finalizing the relaxed density           ... done
Storing the relaxed density              ... done
Constructing the G(Z) operator           ... done
Transforming the G(Z) operator           ... done
Making the W-matrix                      ... done
Finalizing the W-matrix                  ... done
Transforming the W-matrix                ... done
Nuclear repulsion gradient               ... done
One-Electron gradient                    ... done
Prescreening matrices                    ... done
Two-Electron gradient (4-center)         ... done
                 ---------------------------
                 EXCITED STATE GRADIENT DONE
                 ---------------------------


------------------
CARTESIAN GRADIENT
------------------

   1   C   :   -0.011293585    0.003547764    0.035890814
   2   O   :    0.014013434   -0.004504194   -0.036457562
   3   C   :    0.007438146   -0.002290870   -0.009325000
   4   C   :    0.001492859   -0.000164877   -0.002490738
   5   C   :    0.016434179   -0.006460352    0.006822085
   6   C   :    0.017085152   -0.006367112   -0.005230588
   7   C   :    0.005163306   -0.002093220    0.001515661
   8   C   :    0.011932455   -0.005812269    0.017844552
   9   C   :   -0.012580662    0.008065266   -0.016972382
  10   C   :    0.005801906   -0.006548356    0.021158123
  11   C   :   -0.047558695    0.026024410   -0.023829030
  12   N   :    0.026322295   -0.015018401    0.017598583
  13   C   :    0.038460543   -0.009679393   -0.043185698
  14   N   :   -0.019530377    0.004119095    0.026910021
  15   C   :   -0.004665864    0.001629479   -0.000866138
  16   F   :   -0.020271583    0.008276863   -0.016135891
  17   F   :   -0.021256602    0.007498850    0.014013595
  18   C   :    0.000596021   -0.005230330   -0.037478084
  19   O   :    0.001253608    0.005066879    0.038890005
  20   C   :   -0.004168656   -0.001932047    0.011142806
  21   C   :   -0.000268016    0.001004208    0.003135968
  22   C   :   -0.013015584   -0.012794318    0.003666020
  23   C   :   -0.009861625   -0.009539570    0.012495505
  24   C   :   -0.003012318   -0.003819642    0.001049886
  25   C   :   -0.012035702   -0.015198277   -0.008459577
  26   C   :    0.005708615    0.018675145    0.001108736
  27   C   :   -0.000044224   -0.016887000   -0.012890044
  28   C   :    0.021525099    0.051920950   -0.013964208
  29   N   :   -0.018021367   -0.027038057    0.008679515
  30   C   :   -0.014928772    0.000483538    0.056006403
  31   N   :    0.006778084   -0.002421945   -0.031754722
  32   C   :   -0.001172613   -0.002077117   -0.002790371
  33   F   :    0.017993264    0.018612566    0.003005437
  34   F   :    0.009720579    0.007881838   -0.023053993
  35   C   :    0.003641380   -0.001788237   -0.002104002
  36   C   :   -0.013472680    0.002064461   -0.000848074
  37   C   :    0.001475414    0.001767106    0.006942147
  38   C   :   -0.012373957    0.004040553   -0.000722975
  39   C   :    0.009573041   -0.000800324    0.000353438
  40   S   :    0.003965327   -0.000190938    0.003587126
  41   C   :    0.000602378    0.000188403    0.005243374
  42   S   :   -0.014780896    0.001533794    0.001596091
  43   C   :    0.003600929   -0.001423580   -0.011032336
  44   C   :    0.003271643   -0.000986369    0.018033049
  45   C   :    0.002610859    0.000529770    0.002884645
  46   C   :    0.001630355    0.001195532   -0.005472662
  47   C   :   -0.006799776   -0.001724673    0.006613706
  48   C   :   -0.001063585    0.001031570   -0.004163651
  49   C   :   -0.007425699   -0.000955384    0.004940292
  50   C   :    0.006872016   -0.000021046   -0.006082017
  51   C   :   -0.003645063    0.000061311    0.005767654
  52   C   :    0.007835591    0.001212248   -0.005525194
  53   C   :    0.000231304    0.001179112    0.004165798
  54   C   :   -0.006593888   -0.002093941   -0.016630141
  55   C   :    0.000180100   -0.001081907    0.007804142
  56   C   :    0.004740473    0.003170550    0.001186280
  57   C   :   -0.006161868   -0.003158170   -0.001970187
  58   S   :    0.003108557    0.001322217   -0.000681135
  59   C   :    0.001150753   -0.000139385    0.002188373
  60   S   :   -0.004059099    0.000073067    0.000652710
  61   C   :    0.007634240    0.001251043   -0.007516922
  62   C   :    0.009743813   -0.004519946    0.002990883
  63   C   :    0.005518724    0.000967964    0.004035409
  64   C   :    0.002474675   -0.000004814   -0.003517368
  65   O   :    0.021884234   -0.004293026   -0.012972080
  66   C   :   -0.000769757   -0.002490777    0.002026352
  67   C   :   -0.004194670    0.004440075    0.001645592
  68   C   :    0.001826221    0.000620963   -0.005895450
  69   C   :   -0.002106185    0.000739661   -0.005664070
  70   C   :    0.001749139   -0.005460568   -0.002457020
  71   C   :   -0.003527342    0.006084766    0.001943080
  72   C   :    0.001570724    0.006789758   -0.001768939
  73   C   :    0.000163039   -0.006003241    0.001822376
  74   O   :   -0.020587899   -0.006174181   -0.004943540
  75   C   :    0.005963748    0.005905980    0.004036729
  76   C   :   -0.003741148   -0.005916531   -0.004306619
  77   C   :   -0.001828321    0.006041706   -0.001033597
  78   C   :    0.000471745    0.004154112   -0.004247640
  79   C   :    0.000531926    0.001166654    0.000100301
  80   C   :   -0.001154653   -0.002262536   -0.000925916
  81   C   :    0.001278357   -0.000445157    0.001857893
  82   C   :   -0.001159505    0.000584670    0.000740623
  83   C   :   -0.001334409   -0.001547326   -0.001800327
  84   C   :    0.000160943   -0.002541555    0.000044653
  85   C   :    0.000358681    0.003362020   -0.002333017
  86   C   :   -0.001229878    0.000488896    0.003571178
  87   C   :    0.001690409   -0.002226340   -0.000095080
  88   C   :    0.000217560    0.003386678   -0.002463930
  89   C   :   -0.001111569    0.003260808    0.002507661
  90   C   :   -0.001078046   -0.002578585    0.000095144
  91   C   :    0.001971084    0.000733190   -0.003273240
  92   C   :   -0.001064338    0.003094032    0.002586788
  93   C   :    0.000099204   -0.002419571   -0.000329089
  94   C   :    0.002088722   -0.001421044    0.001082667
  95   C   :    0.001084451    0.001056280   -0.000511240
  96   C   :   -0.002220507   -0.000427095   -0.000501956
  97   C   :    0.002148254   -0.001927808    0.000900683
  98   C   :    0.000102396    0.000681449   -0.001349725
  99   C   :   -0.000407047    0.001719156   -0.002332111
 100   C   :   -0.000204566   -0.001208175   -0.002956984
 101   C   :   -0.001524198    0.001958520    0.001722509
 102   C   :    0.002463197   -0.001891464    0.000246723
 103   H   :    0.000771353   -0.000297554    0.001529090
 104   H   :    0.002312123   -0.000840919    0.001265181
 105   H   :   -0.001037551   -0.001193183   -0.001120281
 106   H   :   -0.001894473   -0.001665375    0.000280273
 107   H   :    0.000898602   -0.000038512    0.005730747
 108   H   :   -0.001309011    0.000159895   -0.000238484
 109   H   :   -0.000617801   -0.000267807   -0.003535472
 110   H   :    0.000180942   -0.000263710    0.000796529
 111   H   :   -0.000130804   -0.000345395   -0.000718577
 112   H   :   -0.000334099   -0.000517672    0.000612898
 113   H   :    0.000263016    0.000470346    0.000764180
 114   H   :   -0.001233249   -0.000425272    0.001171765
 115   H   :   -0.004720566    0.000663948    0.000885951
 116   H   :    0.003569434   -0.000079971   -0.002537805
 117   H   :    0.000161077    0.000454090    0.002773321
 118   H   :   -0.001613886    0.000088589    0.003545956
 119   H   :   -0.002116502   -0.001832276    0.000596162
 120   H   :   -0.000867973   -0.003163780    0.001108095
 121   H   :    0.000943262    0.000822676    0.003932116
 122   H   :    0.001779435   -0.002144550    0.001664989
 123   H   :    0.003764009    0.000525028    0.000400641
 124   H   :    0.003501732   -0.002114447   -0.003010334
 125   H   :    0.000261132    0.003883687   -0.000806840
 126   H   :   -0.001406887   -0.000628048    0.000004207
 127   H   :    0.000621657   -0.003684960   -0.000129759
 128   H   :    0.002048206   -0.001481481   -0.000114596
 129   H   :    0.003008451   -0.000797592    0.001273182
 130   H   :   -0.001106597   -0.003169415    0.001918528
 131   H   :    0.000877727   -0.000306800    0.003168623
 132   H   :   -0.002308986    0.000865618    0.002876678
 133   H   :   -0.000178320   -0.001138748   -0.000484076
 134   H   :    0.000830935   -0.001261791    0.000276686
 135   H   :   -0.001650362    0.000493424   -0.000854184
 136   H   :   -0.000599396   -0.000779519   -0.001249623
 137   H   :   -0.000212132    0.001481381   -0.001115158
 138   H   :   -0.000555184    0.001120434    0.000690382
 139   H   :    0.000777626   -0.000305552   -0.001948217
 140   H   :   -0.000084061    0.000588781   -0.001690979
 141   H   :   -0.000011567    0.000714652    0.001616942
 142   H   :   -0.000508840   -0.000561648    0.001856363
 143   H   :    0.000506427    0.001250147   -0.000669406
 144   H   :   -0.000127091    0.001435670    0.001152248
 145   H   :    0.000678043   -0.000507753    0.001369333
 146   H   :    0.001221436    0.000913148    0.001128161
 147   H   :   -0.000747668   -0.001375314   -0.000127262
 148   H   :    0.000742307   -0.001049957    0.000768815
 149   H   :   -0.000416361    0.002169112   -0.000456979
 150   H   :    0.000686263    0.002396756   -0.000819356
 151   H   :   -0.001320055    0.001914537   -0.001531647
 152   H   :   -0.000535137   -0.002181502   -0.000540618
 153   H   :   -0.001425653   -0.002006575   -0.000521742
 154   H   :   -0.000226955   -0.001817181   -0.002233082
 155   H   :   -0.001139104    0.002311979    0.000945942
 156   H   :    0.000789401    0.001839843    0.001635887
 157   H   :    0.000416352    0.002123567    0.000739422
 158   H   :    0.000643789   -0.001176373    0.002130721
 159   H   :    0.000282127   -0.001777934    0.001593796
 160   H   :    0.001801047   -0.002152631    0.000713146

Difference to translation invariance:
           :   -0.0000000001    0.0000000000   -0.0000000000

Norm of the cartesian gradient     ...    0.1910993826
RMS gradient                       ...    0.0087224535
MAX gradient                       ...    0.0560064027

-------
TIMINGS
-------

Total CIS gradient time            ...    63982.280 sec

Fock matrix formation       ....    4618.929 sec  (  7.2%)
  Coulomb formation         ....    4618.929 sec  (100.0% of F)
Z-vector equation           ....   54801.949 sec  ( 85.7%)
One electron gradient       ....      37.781 sec  (  0.1%)
Prescreening matrices       ....       1.840 sec  (  0.0%)
Two electron gradient       ....    4512.283 sec  (  7.1%)

                            ***************************************
                            *     ORCA property calculations      *
                            ***************************************

                                    ---------------------
                                    Active property flags
                                    ---------------------
   (+) Dipole Moment


------------------------------------------------------------------------------
                       ORCA ELECTRIC PROPERTIES CALCULATION
------------------------------------------------------------------------------

Dipole Moment Calculation                       ... on
Quadrupole Moment Calculation                   ... off
Polarizability Calculation                      ... off
GBWName                                         ... p-IO2.gbw
Electron density file                           ... p-IO2.scfp
The origin for moment calculation is the CENTER OF MASS  = (20.884279, -4.623835 -6.511533)

-------------
DIPOLE MOMENT
-------------
                                X             Y             Z
Electronic contribution:     11.02579      30.25177      57.14342
Nuclear contribution   :    -11.60895     -29.61927     -59.64403
                        -----------------------------------------
Total Dipole Moment    :     -0.58316       0.63250      -2.50061
                        -----------------------------------------
Magnitude (a.u.)       :      2.64446
Magnitude (Debye)      :      6.72169



--------------------
Rotational spectrum 
--------------------
 
Rotational constants in cm-1:     0.000938     0.000147     0.000142 
Rotational constants in MHz :    28.127019     4.408580     4.248278 

 Dipole components along the rotational axes: 
x,y,z [a.u.] :    -0.441044    -2.566142    -0.462144 
x,y,z [Debye]:    -1.121044    -6.522615    -1.174677 

 

                        *** CIS RELAXED DENSITY ***

------------------------------------------------------------------------------
                       ORCA ELECTRIC PROPERTIES CALCULATION
------------------------------------------------------------------------------

Dipole Moment Calculation                       ... on
Quadrupole Moment Calculation                   ... off
Polarizability Calculation                      ... off
GBWName                                         ... p-IO2.gbw
Electron density file                           ... p-IO2.cisp
The origin for moment calculation is the CENTER OF MASS  = (20.884279, -4.623835 -6.511533)

-------------
DIPOLE MOMENT
-------------
                                X             Y             Z
Electronic contribution:     10.56275      29.77149      57.06159
Nuclear contribution   :    -11.60895     -29.61927     -59.64403
                        -----------------------------------------
Total Dipole Moment    :     -1.04620       0.15221      -2.58244
                        -----------------------------------------
Magnitude (a.u.)       :      2.79047
Magnitude (Debye)      :      7.09280



--------------------
Rotational spectrum 
--------------------
 
Rotational constants in cm-1:     0.000938     0.000147     0.000142 
Rotational constants in MHz :    28.127019     4.408580     4.248278 

 Dipole components along the rotational axes: 
x,y,z [a.u.] :     0.012031    -2.790374    -0.019179 
x,y,z [Debye]:     0.030580    -7.092567    -0.048750 

 

Timings for individual modules:

Sum of individual times         ...   151765.181 sec (=2529.420 min)
GTO integral calculation        ...        2.708 sec (=   0.045 min)   0.0 %
SCF iterations                  ...    18331.241 sec (= 305.521 min)  12.1 %
CIS module                      ...    69446.755 sec (=1157.446 min)  45.8 %
SCF Gradient evaluation         ...    63984.477 sec (=1066.408 min)  42.2 %
                             ****ORCA TERMINATED NORMALLY****
TOTAL RUN TIME: 1 days 18 hours 9 minutes 26 seconds 704 msec
