
                                 *****************
                                 * O   R   C   A *
                                 *****************

           --- An Ab Initio, DFT and Semiempirical electronic structure package ---

                  #######################################################
                  #                        -***-                        #
                  #          Department of theory and spectroscopy      #
                  #               Directorship: Frank Neese             #
                  #        Max Planck Institute fuer Kohlenforschung    #
                  #                Kaiser Wilhelm Platz 1               #
                  #                 D-45470 Muelheim/Ruhr               #
                  #                      Germany                        #
                  #                                                     #
                  #                  All rights reserved                #
                  #                        -***-                        #
                  #######################################################


                         Program Version 4.2.0 -  RELEASE  -


 With contributions from (in alphabetic order):
   Daniel Aravena         : Magnetic Suceptibility
   Michael Atanasov       : Ab Initio Ligand Field Theory (pilot matlab implementation)
   Alexander A. Auer      : GIAO ZORA, VPT2
   Ute Becker             : Parallelization
   Giovanni Bistoni       : ED, misc. LED, open-shell LED, HFLED
   Martin Brehm           : Molecular dynamics
   Dmytro Bykov           : SCF Hessian
   Vijay G. Chilkuri      : MRCI spin determinant printing, contributions to CSF-ICE
   Dipayan Datta          : RHF DLPNO-CCSD density
   Achintya Kumar Dutta   : EOM-CC, STEOM-CC
   Dmitry Ganyushin       : Spin-Orbit,Spin-Spin,Magnetic field MRCI
   Miquel Garcia          : C-PCM Hessian, Gaussian charge scheme
   Yang Guo               : DLPNO-NEVPT2, CIM, IAO-localization
   Andreas Hansen         : Spin unrestricted coupled pair/coupled cluster methods
   Benjamin Helmich-Paris : CASSCF linear response (MC-RPA)
   Lee Huntington         : MR-EOM, pCC
   Robert Izsak           : Overlap fitted RIJCOSX, COSX-SCS-MP3, EOM
   Christian Kollmar      : KDIIS, OOCD, Brueckner-CCSD(T), CCSD density
   Simone Kossmann        : Meta GGA functionals, TD-DFT gradient, OOMP2, MP2 Hessian
   Martin Krupicka        : AUTO-CI
   Lucas Lang             : DCDCAS
   Dagmar Lenk            : GEPOL surface, SMD
   Dimitrios Liakos       : Extrapolation schemes; Compound Job, initial MDCI parallelization
   Dimitrios Manganas     : Further ROCIS development; embedding schemes
   Dimitrios Pantazis     : SARC Basis sets
   Taras Petrenko         : DFT Hessian,TD-DFT gradient, ASA, ECA, R-Raman, ABS, FL, XAS/XES, NRVS
   Peter Pinski           : DLPNO-MP2, DLPNO-MP2 Gradient
   Christoph Reimann      : Effective Core Potentials
   Marius Retegan         : Local ZFS, SOC
   Christoph Riplinger    : Optimizer, TS searches, QM/MM, DLPNO-CCSD(T), (RO)-DLPNO pert. Triples
   Tobias Risthaus        : Range-separated hybrids, TD-DFT gradient, RPA, STAB
   Michael Roemelt        : Original ROCIS implementation
   Masaaki Saitow         : Open-shell DLPNO-CCSD energy and density
   Barbara Sandhoefer     : DKH picture change effects
   Avijit Sen             : IP-ROCIS
   Kantharuban Sivalingam : CASSCF convergence, NEVPT2, FIC-MRCI
   Bernardo de Souza      : ESD, SOC TD-DFT
   Georgi Stoychev        : AutoAux, RI-MP2 NMR
   Willem Van den Heuvel  : Paramagnetic NMR
   Boris Wezisla          : Elementary symmetry handling
   Frank Wennmohs         : Technical directorship


 We gratefully acknowledge several colleagues who have allowed us to
 interface, adapt or use parts of their codes:
   Stefan Grimme, W. Hujo, H. Kruse,             : VdW corrections, initial TS optimization,
                  C. Bannwarth                     DFT functionals, gCP, sTDA/sTD-DF
   Ed Valeev, F. Pavosevic, A. Kumar             : LibInt (2-el integral package), F12 methods
   Garnet Chan, S. Sharma, J. Yang, R. Olivares  : DMRG
   Ulf Ekstrom                                   : XCFun DFT Library
   Mihaly Kallay                                 : mrcc  (arbitrary order and MRCC methods)
   Andreas Klamt, Michael Diedenhofen            : otool_cosmo (COSMO solvation model)
   Jiri Pittner, Ondrej Demel                    : Mk-CCSD
   Frank Weinhold                                : gennbo (NPA and NBO analysis)
   Christopher J. Cramer and Donald G. Truhlar   : smd solvation model
   Lars Goerigk                                  : TD-DFT with DH, B97 family of functionals
   V. Asgeirsson, H. Jonsson                     : NEB implementation
   FAccTs GmbH                                   : IRC, NEB, NEB-TS, Multilevel, MM, QM/MM, CI optimization
   S Lehtola, MJT Oliveira, MAL Marques          : LibXC Library


 Your calculation uses the libint2 library for the computation of 2-el integrals
 For citations please refer to: http://libint.valeyev.net

 Your ORCA version has been built with support for libXC version: 4.2.3
 For citations please refer to: https://tddft.org/programs/libxc/

 This ORCA versions uses:
   CBLAS   interface :  Fast vector & matrix operations
   LAPACKE interface :  Fast linear algebra routines
   SCALAPACK package :  Parallel linear algebra routines


----- Orbital basis set information -----
Your calculation utilizes the basis: def2-SVP
   F. Weigend and R. Ahlrichs, Phys. Chem. Chem. Phys. 7, 3297 (2005).

================================================================================
                                        WARNINGS
                       Please study these warnings very carefully!
================================================================================

INFO   : Checking CIS options ...

WARNING: CIS/ROCIS methods need fully converged wavefunctions
  ===> : Setting SCFConvForced true
         You can overwrite this default with %scf ConvForced false 


INFO   : the flag for use of LIBINT has been found!

================================================================================
                                       INPUT FILE
================================================================================
NAME = p-IO1.inp
|  1> # ORCA input file
|  2> # p-IO1.out
|  3> ! Engrad Keepdens
|  4> %maxcore 1000
|  5> %tddft
|  6>   nroots 3 
|  7>   # nroots is the number of states to be computed
|  8>   Iroot 1
|  9>   end
| 10> * xyz 0 1
| 11>    C        4.78422        -6.62801        -2.55477
| 12>    O        5.77520        -6.23462        -3.13930
| 13>    C        3.77386        -7.54170        -3.13400
| 14>    C        3.74757        -8.08155        -4.40422
| 15>    C        2.68533        -8.90980        -4.72787
| 16>    C        1.68665        -9.17903        -3.79285
| 17>    C        1.71674        -8.63814        -2.51564
| 18>    C        2.77680        -7.80867        -2.18434
| 19>    C        3.10469        -7.09065        -0.95124
| 20>    C        2.37905        -7.17937         0.21015
| 21>    C        2.67118        -6.55207         1.43990
| 22>    N        2.82324        -6.09833         2.48459
| 23>    C        1.20776        -7.95401         0.35070
| 24>    N        0.24986        -8.55794         0.53960
| 25>    C        4.31736        -6.33066        -1.18945
| 26>    F        2.61645        -9.45467        -5.94984
| 27>    F        0.66855        -9.97914        -4.13239
| 28>    C       17.07309        11.94312         7.62220
| 29>    O       16.00397        12.49362         7.74787
| 30>    C       18.41840        12.51131         7.87487
| 31>    C       18.75657        13.79905         8.23938
| 32>    C       20.10326        14.09494         8.38185
| 33>    C       21.07423        13.11802         8.16230
| 34>    C       20.73464        11.82039         7.80778
| 35>    C       19.39067        11.51816         7.66458
| 36>    C       18.71455        10.26091         7.33597
| 37>    C       19.27381         9.01467         7.46659
| 38>    C       18.53285         7.81688         7.42983
| 39>    N       17.97316         6.81474         7.44223
| 40>    C       20.63911         8.78686         7.73063
| 41>    N       21.74608         8.54350         7.91298
| 42>    C       17.32097        10.56657         7.12782
| 43>    F       20.47663        15.33268         8.72953
| 44>    F       22.36741        13.43639         8.29156
| 45>    C        4.85196        -5.45657        -0.26701
| 46>    C        5.99067        -4.64536        -0.30181
| 47>    C        7.00537        -4.47414        -1.23778
| 48>    C        7.95534        -3.53599        -0.85955
| 49>    C        7.69608        -2.95262         0.39535
| 50>    S        6.25799        -3.60348         1.09009
| 51>    C        8.47235        -1.95517         1.01436
| 52>    S        9.90991        -1.34264         0.22020
| 53>    C       10.15913        -0.25310         1.52048
| 54>    C        9.18559        -0.35904         2.50810
| 55>    C        8.23369        -1.32771         2.23122
| 56>    C       11.09438         0.77561         1.84166
| 57>    C       10.69668         1.32564         3.08359
| 58>    C        9.47142         0.60924         3.62787
| 59>    C       12.19966         1.25765         1.14318
| 60>    C       12.87982         2.31589         1.69600
| 61>    C       12.45150         2.89834         2.91440
| 62>    C       11.36393         2.39900         3.62583
| 63>    C       14.08936         3.04927         1.13928
| 64>    C       14.23140         4.16251         2.14458
| 65>    C       13.31630         4.00680         3.17247
| 66>    C       15.13435         5.19786         2.35746
| 67>    C       14.91502         5.84251         3.55976
| 68>    S       13.53740         5.16564         4.41671
| 69>    C       15.65673         6.89323         4.17298
| 70>    S       14.84595         7.94894         5.28252
| 71>    C       16.32542         8.79478         5.65028
| 72>    C       17.36654         8.26456         4.90268
| 73>    C       17.01327         7.20400         4.07148
| 74>    C       16.29217         9.88910         6.53081
| 75>    O        9.04661        -3.13233        -1.53326
| 76>    C        9.27997        -3.69718        -2.81430
| 77>    C       10.53871        -3.05280        -3.39617
| 78>    C       11.76268        -3.43649        -2.56948
| 79>    C       10.70727        -3.47183        -4.85338
| 80>    C        8.37593         1.63003         3.86485
| 81>    C        9.75102        -0.21310         4.87442
| 82>    C       15.39402         2.27816         1.26562
| 83>    C       13.80281         3.48778        -0.27837
| 84>    C       18.05048         6.45528         3.29645
| 85>    C       18.72983         5.36341         4.14699
| 86>    C        8.31309         2.31209         5.07407
| 87>    C        7.35024         3.27970         5.28492
| 88>    C        6.42610         3.59640         4.29632
| 89>    C        6.49905         2.91802         3.08762
| 90>    C        7.46400         1.95100         2.87013
| 91>    C       11.04009        -0.49909         5.29553
| 92>    C       11.25358        -1.29347         6.40939
| 93>    C       10.19049        -1.82831         7.12138
| 94>    C        8.89918        -1.54646         6.68741
| 95>    C        8.68088        -0.75350         5.57932
| 96>    C       16.52211         2.74535         0.60036
| 97>    C       17.75378         2.15596         0.80599
| 98>    C       17.89753         1.09023         1.68702
| 99>    C       16.76601         0.62141         2.33974
|100>    C       15.52927         1.20852         2.13762
|101>    C       13.23410         4.72560        -0.54133
|102>    C       12.93544         5.09873        -1.83908
|103>    C       13.18810         4.24471        -2.90419
|104>    C       13.74826         3.00197        -2.63364
|105>    C       14.05106         2.62554        -1.33926
|106>    C       10.41154        -2.68376         8.33077
|107>    C        5.36884         4.62826         4.54293
|108>    C       19.24544         0.49114         1.94474
|109>    C       12.84468         4.63990        -4.30766
|110>    C       17.73810         4.29032         4.58390
|111>    C       19.86349         4.73182         3.34349
|112>    H        4.52289        -7.86807        -5.12257
|113>    H        0.91818        -8.87879        -1.83389
|114>    H       18.00436        14.55290         8.40840
|115>    H       21.52038        11.10022         7.64727
|116>    H        4.29285        -5.35293         0.65471
|117>    H        7.01827        -5.02753        -2.15760
|118>    H        7.39262        -1.58159         2.85075
|119>    H       12.49262         0.81714         0.20280
|120>    H       11.05945         2.84958         4.55772
|121>    H       15.88618         5.49003         1.64983
|122>    H       18.36369         8.66830         4.92834
|123>    H       15.31195        10.32114         6.70992
|124>    H        8.41688        -3.50462        -3.46416
|125>    H        9.41409        -4.78261        -2.72317
|126>    H       10.40654        -1.96729        -3.34288
|127>    H       11.93332        -4.50986        -2.62069
|128>    H       11.61635        -3.15425        -1.53034
|129>    H       12.64700        -2.92859        -2.94559
|130>    H       10.80577        -4.55254        -4.92806
|131>    H       11.60006        -3.01604        -5.27306
|132>    H        9.85111        -3.16298        -5.44837
|133>    H       18.81459         7.16652         2.97382
|134>    H       17.63024         5.98982         2.40908
|135>    H       19.14539         5.83410         5.04448
|136>    H        9.01536         2.07531         5.86037
|137>    H        7.31467         3.79808         6.23246
|138>    H        5.79322         3.14902         2.30251
|139>    H        7.50353         1.44257         1.91769
|140>    H       11.88700        -0.10008         4.75670
|141>    H       12.26639        -1.49962         6.72514
|142>    H        8.05652        -1.95630         7.22543
|143>    H        7.67076        -0.54079         5.26079
|144>    H       16.43165         3.57604        -0.08512
|145>    H       18.61997         2.53261         0.28007
|146>    H       16.85222        -0.20879         3.02585
|147>    H       14.66661         0.83341         2.66852
|148>    H       13.02552         5.40470         0.27285
|149>    H       12.49881         6.06950        -2.02562
|150>    H       13.95177         2.32127        -3.44807
|151>    H       14.49757         1.65961        -1.15076
|152>    H       11.46747        -2.90313         8.46634
|153>    H        9.86711        -3.62214         8.23841
|154>    H       10.04691        -2.17558         9.22320
|155>    H        4.53718         4.18510         5.09170
|156>    H        4.98369         5.02327         3.60607
|157>    H        5.76173         5.44932         5.13871
|158>    H       19.77825         1.08665         2.68681
|159>    H       19.84407         0.47622         1.03660
|160>    H       19.15517        -0.52266         2.32626
|161>    H       11.85529         4.26234        -4.56827
|162>    H       13.55881         4.22252        -5.01407
|163>    H       12.83143         5.72181        -4.41513
|164>    H       17.26788         3.82260         3.72013
|165>    H       16.96627         4.71318         5.22094
|166>    H       18.25414         3.52016         5.15184
|167>    H       19.46541         4.23122         2.46264
|168>    H       20.38837         3.99653         3.94836
|169>    H       20.58158         5.48321         3.02230
|170> *
|171> 
|172>                          ****END OF INPUT****
================================================================================

                     *******************************
                     * Energy+Gradient Calculation *
                     *******************************

---------------------------------
CARTESIAN COORDINATES (ANGSTROEM)
---------------------------------
  C      4.784220   -6.628010   -2.554770
  O      5.775200   -6.234620   -3.139300
  C      3.773860   -7.541700   -3.134000
  C      3.747570   -8.081550   -4.404220
  C      2.685330   -8.909800   -4.727870
  C      1.686650   -9.179030   -3.792850
  C      1.716740   -8.638140   -2.515640
  C      2.776800   -7.808670   -2.184340
  C      3.104690   -7.090650   -0.951240
  C      2.379050   -7.179370    0.210150
  C      2.671180   -6.552070    1.439900
  N      2.823240   -6.098330    2.484590
  C      1.207760   -7.954010    0.350700
  N      0.249860   -8.557940    0.539600
  C      4.317360   -6.330660   -1.189450
  F      2.616450   -9.454670   -5.949840
  F      0.668550   -9.979140   -4.132390
  C     17.073090   11.943120    7.622200
  O     16.003970   12.493620    7.747870
  C     18.418400   12.511310    7.874870
  C     18.756570   13.799050    8.239380
  C     20.103260   14.094940    8.381850
  C     21.074230   13.118020    8.162300
  C     20.734640   11.820390    7.807780
  C     19.390670   11.518160    7.664580
  C     18.714550   10.260910    7.335970
  C     19.273810    9.014670    7.466590
  C     18.532850    7.816880    7.429830
  N     17.973160    6.814740    7.442230
  C     20.639110    8.786860    7.730630
  N     21.746080    8.543500    7.912980
  C     17.320970   10.566570    7.127820
  F     20.476630   15.332680    8.729530
  F     22.367410   13.436390    8.291560
  C      4.851960   -5.456570   -0.267010
  C      5.990670   -4.645360   -0.301810
  C      7.005370   -4.474140   -1.237780
  C      7.955340   -3.535990   -0.859550
  C      7.696080   -2.952620    0.395350
  S      6.257990   -3.603480    1.090090
  C      8.472350   -1.955170    1.014360
  S      9.909910   -1.342640    0.220200
  C     10.159130   -0.253100    1.520480
  C      9.185590   -0.359040    2.508100
  C      8.233690   -1.327710    2.231220
  C     11.094380    0.775610    1.841660
  C     10.696680    1.325640    3.083590
  C      9.471420    0.609240    3.627870
  C     12.199660    1.257650    1.143180
  C     12.879820    2.315890    1.696000
  C     12.451500    2.898340    2.914400
  C     11.363930    2.399000    3.625830
  C     14.089360    3.049270    1.139280
  C     14.231400    4.162510    2.144580
  C     13.316300    4.006800    3.172470
  C     15.134350    5.197860    2.357460
  C     14.915020    5.842510    3.559760
  S     13.537400    5.165640    4.416710
  C     15.656730    6.893230    4.172980
  S     14.845950    7.948940    5.282520
  C     16.325420    8.794780    5.650280
  C     17.366540    8.264560    4.902680
  C     17.013270    7.204000    4.071480
  C     16.292170    9.889100    6.530810
  O      9.046610   -3.132330   -1.533260
  C      9.279970   -3.697180   -2.814300
  C     10.538710   -3.052800   -3.396170
  C     11.762680   -3.436490   -2.569480
  C     10.707270   -3.471830   -4.853380
  C      8.375930    1.630030    3.864850
  C      9.751020   -0.213100    4.874420
  C     15.394020    2.278160    1.265620
  C     13.802810    3.487780   -0.278370
  C     18.050480    6.455280    3.296450
  C     18.729830    5.363410    4.146990
  C      8.313090    2.312090    5.074070
  C      7.350240    3.279700    5.284920
  C      6.426100    3.596400    4.296320
  C      6.499050    2.918020    3.087620
  C      7.464000    1.951000    2.870130
  C     11.040090   -0.499090    5.295530
  C     11.253580   -1.293470    6.409390
  C     10.190490   -1.828310    7.121380
  C      8.899180   -1.546460    6.687410
  C      8.680880   -0.753500    5.579320
  C     16.522110    2.745350    0.600360
  C     17.753780    2.155960    0.805990
  C     17.897530    1.090230    1.687020
  C     16.766010    0.621410    2.339740
  C     15.529270    1.208520    2.137620
  C     13.234100    4.725600   -0.541330
  C     12.935440    5.098730   -1.839080
  C     13.188100    4.244710   -2.904190
  C     13.748260    3.001970   -2.633640
  C     14.051060    2.625540   -1.339260
  C     10.411540   -2.683760    8.330770
  C      5.368840    4.628260    4.542930
  C     19.245440    0.491140    1.944740
  C     12.844680    4.639900   -4.307660
  C     17.738100    4.290320    4.583900
  C     19.863490    4.731820    3.343490
  H      4.522890   -7.868070   -5.122570
  H      0.918180   -8.878790   -1.833890
  H     18.004360   14.552900    8.408400
  H     21.520380   11.100220    7.647270
  H      4.292850   -5.352930    0.654710
  H      7.018270   -5.027530   -2.157600
  H      7.392620   -1.581590    2.850750
  H     12.492620    0.817140    0.202800
  H     11.059450    2.849580    4.557720
  H     15.886180    5.490030    1.649830
  H     18.363690    8.668300    4.928340
  H     15.311950   10.321140    6.709920
  H      8.416880   -3.504620   -3.464160
  H      9.414090   -4.782610   -2.723170
  H     10.406540   -1.967290   -3.342880
  H     11.933320   -4.509860   -2.620690
  H     11.616350   -3.154250   -1.530340
  H     12.647000   -2.928590   -2.945590
  H     10.805770   -4.552540   -4.928060
  H     11.600060   -3.016040   -5.273060
  H      9.851110   -3.162980   -5.448370
  H     18.814590    7.166520    2.973820
  H     17.630240    5.989820    2.409080
  H     19.145390    5.834100    5.044480
  H      9.015360    2.075310    5.860370
  H      7.314670    3.798080    6.232460
  H      5.793220    3.149020    2.302510
  H      7.503530    1.442570    1.917690
  H     11.887000   -0.100080    4.756700
  H     12.266390   -1.499620    6.725140
  H      8.056520   -1.956300    7.225430
  H      7.670760   -0.540790    5.260790
  H     16.431650    3.576040   -0.085120
  H     18.619970    2.532610    0.280070
  H     16.852220   -0.208790    3.025850
  H     14.666610    0.833410    2.668520
  H     13.025520    5.404700    0.272850
  H     12.498810    6.069500   -2.025620
  H     13.951770    2.321270   -3.448070
  H     14.497570    1.659610   -1.150760
  H     11.467470   -2.903130    8.466340
  H      9.867110   -3.622140    8.238410
  H     10.046910   -2.175580    9.223200
  H      4.537180    4.185100    5.091700
  H      4.983690    5.023270    3.606070
  H      5.761730    5.449320    5.138710
  H     19.778250    1.086650    2.686810
  H     19.844070    0.476220    1.036600
  H     19.155170   -0.522660    2.326260
  H     11.855290    4.262340   -4.568270
  H     13.558810    4.222520   -5.014070
  H     12.831430    5.721810   -4.415130
  H     17.267880    3.822600    3.720130
  H     16.966270    4.713180    5.220940
  H     18.254140    3.520160    5.151840
  H     19.465410    4.231220    2.462640
  H     20.388370    3.996530    3.948360
  H     20.581580    5.483210    3.022300

----------------------------
CARTESIAN COORDINATES (A.U.)
----------------------------
  NO LB      ZA    FRAG     MASS         X           Y           Z
   0 C     6.0000    0    12.011    9.040866  -12.525124   -4.827816
   1 O     8.0000    0    15.999   10.913546  -11.781724   -5.932417
   2 C     6.0000    0    12.011    7.131562  -14.251748   -5.922402
   3 C     6.0000    0    12.011    7.081881  -15.271916   -8.322770
   4 C     6.0000    0    12.011    5.074538  -16.837082   -8.934379
   5 C     6.0000    0    12.011    3.187307  -17.345853   -7.167448
   6 C     6.0000    0    12.011    3.244168  -16.323719   -4.753871
   7 C     6.0000    0    12.011    5.247392  -14.756248   -4.127804
   8 C     6.0000    0    12.011    5.867014  -13.399387   -1.797583
   9 C     6.0000    0    12.011    4.495753  -13.567043    0.397126
  10 C     6.0000    0    12.011    5.047799  -12.381618    2.721017
  11 N     7.0000    0    14.007    5.335150  -11.524174    4.695195
  12 C     6.0000    0    12.011    2.282336  -15.030901    0.662727
  13 N     7.0000    0    14.007    0.472167  -16.172163    1.019696
  14 C     6.0000    0    12.011    8.158628  -11.963214   -2.247735
  15 F     9.0000    0    18.998    4.944374  -17.866737  -11.243568
  16 F     9.0000    0    18.998    1.263376  -18.857842   -7.809085
  17 C     6.0000    0    12.011   32.263464   22.569226   14.403871
  18 O     8.0000    0    15.999   30.243120   23.609520   14.641352
  19 C     6.0000    0    12.011   34.805732   23.642949   14.881348
  20 C     6.0000    0    12.011   35.444781   26.076425   15.570172
  21 C     6.0000    0    12.011   37.989656   26.635576   15.839401
  22 C     6.0000    0    12.011   39.824523   24.789465   15.424512
  23 C     6.0000    0    12.011   39.182791   22.337300   14.754566
  24 C     6.0000    0    12.011   36.643056   21.766168   14.483957
  25 C     6.0000    0    12.011   35.365374   19.390310   13.862974
  26 C     6.0000    0    12.011   36.422222   17.035257   14.109810
  27 C     6.0000    0    12.011   35.022011   14.771762   14.040344
  28 N     7.0000    0    14.007   33.964350   12.877992   14.063777
  29 C     6.0000    0    12.011   39.002266   16.604759   14.608774
  30 N     7.0000    0    14.007   41.094136   16.144875   14.953365
  31 C     6.0000    0    12.011   32.731890   19.967923   13.469628
  32 F     9.0000    0    18.998   38.695223   28.974566   16.496421
  33 F     9.0000    0    18.998   42.268279   25.391097   15.668778
  34 C     6.0000    0    12.011    9.168876  -10.311423   -0.504576
  35 C     6.0000    0    12.011   11.320726   -8.778458   -0.570338
  36 C     6.0000    0    12.011   13.238231   -8.454899   -2.339065
  37 C     6.0000    0    12.011   15.033414   -6.682053   -1.624314
  38 C     6.0000    0    12.011   14.543484   -5.579643    0.747103
  39 S    16.0000    0    32.060   11.825887   -6.809590    2.059972
  40 C     6.0000    0    12.011   16.010421   -3.694736    1.916863
  41 S    16.0000    0    32.060   18.727016   -2.537222    0.416118
  42 C     6.0000    0    12.011   19.197973   -0.478290    2.873291
  43 C     6.0000    0    12.011   17.358249   -0.678487    4.739622
  44 C     6.0000    0    12.011   15.559419   -2.509008    4.216395
  45 C     6.0000    0    12.011   20.965340    1.465690    3.480233
  46 C     6.0000    0    12.011   20.213796    2.505097    5.827141
  47 C     6.0000    0    12.011   17.898390    1.151297    6.855681
  48 C     6.0000    0    12.011   23.054016    2.376614    2.160297
  49 C     6.0000    0    12.011   24.339332    4.376398    3.204976
  50 C     6.0000    0    12.011   23.529925    5.477069    5.507418
  51 C     6.0000    0    12.011   21.474716    4.533453    6.851826
  52 C     6.0000    0    12.011   26.625032    5.762285    2.152927
  53 C     6.0000    0    12.011   26.893449    7.866004    4.052669
  54 C     6.0000    0    12.011   25.164160    7.571755    5.995099
  55 C     6.0000    0    12.011   28.599777    9.822532    4.454954
  56 C     6.0000    0    12.011   28.185303   11.040744    6.726972
  57 S    16.0000    0    32.060   25.581979    9.761645    8.346372
  58 C     6.0000    0    12.011   29.586932   13.026317    7.885789
  59 S    16.0000    0    32.060   28.054780   15.021320    9.982516
  60 C     6.0000    0    12.011   30.850573   16.619726   10.677482
  61 C     6.0000    0    12.011   32.818004   15.617755    9.264723
  62 C     6.0000    0    12.011   32.150421   13.613587    7.693982
  63 C     6.0000    0    12.011   30.787739   18.687691   12.341442
  64 O     8.0000    0    15.999   17.095615   -5.919246   -2.897441
  65 C     6.0000    0    12.011   17.536602   -6.986658   -5.318256
  66 C     6.0000    0    12.011   19.915276   -5.768956   -6.417831
  67 C     6.0000    0    12.011   22.228244   -6.494025   -4.855614
  68 C     6.0000    0    12.011   20.233808   -6.560808   -9.171559
  69 C     6.0000    0    12.011   15.828214    3.080310    7.303508
  70 C     6.0000    0    12.011   18.426757   -0.402701    9.211319
  71 C     6.0000    0    12.011   29.090482    4.305098    2.391675
  72 C     6.0000    0    12.011   26.083531    6.590949   -0.526043
  73 C     6.0000    0    12.011   34.110464   12.198711    6.229388
  74 C     6.0000    0    12.011   35.394249   10.135376    7.836675
  75 C     6.0000    0    12.011   15.709463    4.369217    9.588603
  76 C     6.0000    0    12.011   13.889941    6.197735    9.987051
  77 C     6.0000    0    12.011   12.143569    6.796211    8.118868
  78 C     6.0000    0    12.011   12.281425    5.514259    5.834756
  79 C     6.0000    0    12.011   14.104916    3.686856    5.423760
  80 C     6.0000    0    12.011   20.862747   -0.943143   10.007101
  81 C     6.0000    0    12.011   21.266184   -2.444304   12.111992
  82 C     6.0000    0    12.011   19.257235   -3.455005   13.457458
  83 C     6.0000    0    12.011   16.817013   -2.922386   12.637373
  84 C     6.0000    0    12.011   16.404486   -1.423909   10.543387
  85 C     6.0000    0    12.011   31.222263    5.187960    1.134516
  86 C     6.0000    0    12.011   33.549782    4.074174    1.523100
  87 C     6.0000    0    12.011   33.821430    2.060236    3.188006
  88 C     6.0000    0    12.011   31.683167    1.174295    4.421468
  89 C     6.0000    0    12.011   29.346067    2.283772    4.039516
  90 C     6.0000    0    12.011   25.008825    8.930090   -1.022965
  91 C     6.0000    0    12.011   24.444439    9.635203   -3.475358
  92 C     6.0000    0    12.011   24.921897    8.021339   -5.488124
  93 C     6.0000    0    12.011   25.980446    5.672901   -4.976858
  94 C     6.0000    0    12.011   26.552655    4.961552   -2.530835
  95 C     6.0000    0    12.011   19.674959   -5.071571   15.742874
  96 C     6.0000    0    12.011   10.145637    8.746144    8.584894
  97 C     6.0000    0    12.011   36.368611    0.928120    3.675026
  98 C     6.0000    0    12.011   24.272927    8.768140   -8.140298
  99 C     6.0000    0    12.011   33.520151    8.107530    8.662316
 100 C     6.0000    0    12.011   37.536556    8.941844    6.318280
 101 H     1.0000    0     1.008    8.547023  -14.868498   -9.680254
 102 H     1.0000    0     1.008    1.735109  -16.778482   -3.465550
 103 H     1.0000    0     1.008   34.023310   27.500995   15.889573
 104 H     1.0000    0     1.008   40.667624   20.976376   14.451246
 105 H     1.0000    0     1.008    8.112311  -10.115572    1.237223
 106 H     1.0000    0     1.008   13.262608   -9.500655   -4.077273
 107 H     1.0000    0     1.008   13.970027   -2.988772    5.387137
 108 H     1.0000    0     1.008   23.607630    1.544171    0.383236
 109 H     1.0000    0     1.008   20.899332    5.384926    8.612843
 110 H     1.0000    0     1.008   30.020530   10.374653    3.117727
 111 H     1.0000    0     1.008   34.702345   16.380713    9.313213
 112 H     1.0000    0     1.008   28.935392   19.504128   12.679911
 113 H     1.0000    0     1.008   15.905598   -6.622772   -6.546314
 114 H     1.0000    0     1.008   17.790052   -9.037823   -5.146046
 115 H     1.0000    0     1.008   19.665511   -3.717639   -6.317128
 116 H     1.0000    0     1.008   22.550707   -8.522400   -4.952386
 117 H     1.0000    0     1.008   21.951720   -5.960669   -2.891923
 118 H     1.0000    0     1.008   23.899366   -5.534233   -5.566358
 119 H     1.0000    0     1.008   20.419946   -8.603054   -9.312684
 120 H     1.0000    0     1.008   21.920937   -5.699490   -9.964639
 121 H     1.0000    0     1.008   18.615900   -5.977166  -10.295927
 122 H     1.0000    0     1.008   35.554422   13.542760    5.619705
 123 H     1.0000    0     1.008   33.316325   11.319119    4.552501
 124 H     1.0000    0     1.008   36.179544   11.024851    9.532686
 125 H     1.0000    0     1.008   17.036561    3.921768   11.074494
 126 H     1.0000    0     1.008   13.822723    7.177331   11.777643
 127 H     1.0000    0     1.008   10.947599    5.950785    4.351113
 128 H     1.0000    0     1.008   14.179617    2.726062    3.623909
 129 H     1.0000    0     1.008   22.463175   -0.189124    8.988860
 130 H     1.0000    0     1.008   23.180118   -2.833871   12.708673
 131 H     1.0000    0     1.008   15.224616   -3.696871   13.654084
 132 H     1.0000    0     1.008   14.495636   -1.021945    9.941452
 133 H     1.0000    0     1.008   31.051318    6.757736   -0.160853
 134 H     1.0000    0     1.008   35.186644    4.785939    0.529256
 135 H     1.0000    0     1.008   31.846081   -0.394556    5.718028
 136 H     1.0000    0     1.008   27.715876    1.574917    5.042772
 137 H     1.0000    0     1.008   24.614666   10.213403    0.515612
 138 H     1.0000    0     1.008   23.619328   11.469693   -3.827867
 139 H     1.0000    0     1.008   26.365024    4.386565   -6.515908
 140 H     1.0000    0     1.008   27.396437    3.136208   -2.174621
 141 H     1.0000    0     1.008   21.670378   -5.486121   15.999064
 142 H     1.0000    0     1.008   18.646136   -6.844853   15.568339
 143 H     1.0000    0     1.008   18.985908   -4.111250   17.429322
 144 H     1.0000    0     1.008    8.574028    7.908693    9.621919
 145 H     1.0000    0     1.008    9.417809    9.492605    6.814485
 146 H     1.0000    0     1.008   10.888092   10.297722    9.710755
 147 H     1.0000    0     1.008   37.375476    2.053471    5.077335
 148 H     1.0000    0     1.008   37.499858    0.899925    1.958890
 149 H     1.0000    0     1.008   36.198025   -0.987684    4.395994
 150 H     1.0000    0     1.008   22.403251    8.054655   -8.632779
 151 H     1.0000    0     1.008   25.622438    7.979406   -9.475219
 152 H     1.0000    0     1.008   24.247889   10.812654   -8.343387
 153 H     1.0000    0     1.008   32.631564    7.223667    7.030027
 154 H     1.0000    0     1.008   32.061604    8.906619    9.866147
 155 H     1.0000    0     1.008   34.495325    6.652138    9.735567
 156 H     1.0000    0     1.008   36.784294    7.995847    4.653715
 157 H     1.0000    0     1.008   38.528436    7.552347    7.461319
 158 H     1.0000    0     1.008   38.893550   10.361765    5.711319

--------------------------------
INTERNAL COORDINATES (ANGSTROEM)
--------------------------------
 C      0   0   0     0.000000000000     0.00000000     0.00000000
 O      1   0   0     1.215924493297     0.00000000     0.00000000
 C      1   2   0     1.480258132422   124.60208630     0.00000000
 C      3   1   2     1.380430380352   127.91212463   358.70103225
 C      4   3   1     1.385316282515   117.60634284   180.55222850
 C      5   4   3     1.394313069472   120.52979154     0.00000000
 C      6   5   4     1.387347391355   121.77216882   359.85215281
 C      7   6   5     1.386184466260   118.02831514     0.12630605
 C      8   7   6     1.464103883780   131.76007718   179.99635569
 C      9   8   7     1.372316064214   124.23903143     3.50051604
 C     10   9   8     1.411074161552   126.82258002   177.54577597
 N     11  10   9     1.149077641981   174.42344241   185.63361570
 C     10   9   8     1.411290790801   123.96021062   358.59681239
 N     13  10   9     1.148036177522   176.04629534   181.50491838
 C      9   8   7     1.450826431073   107.80645100   182.06969219
 F      5   4   3     1.339715810237   119.71455816   179.88328027
 F      6   5   4     1.338652693457   119.34436959   179.77528999
 C     12  11  10    23.557316902336   125.50263402   190.56803604
 O     18  12  11     1.209074345646    80.58899239   108.30403055
 C     18  12  11     1.482073210439   151.62691964   282.61266592
 C     20  18  12     1.380398781729   128.68461564   183.45542145
 C     21  20  18     1.386153869201   117.66353303   181.74305280
 C     22  21  20     1.394760778700   120.70674637     0.00000000
 C     23  22  21     1.387389424567   121.66367825   359.41293966
 C     24  23  22     1.384956524155   117.90788755     0.53397817
 C     25  24  23     1.464855060748   131.17738576   181.58327434
 C     26  25  24     1.372205330699   124.75156606    19.63842564
 C     27  26  25     1.408926507416   123.72999756   165.55770857
 N     28  27  26     1.147907328882   176.68164577   211.97476687
 C     27  26  25     1.409133992103   124.02449663   349.44091438
 N     30  27  26     1.147980049043   176.67446563   209.00389438
 C     26  25  24     1.441811247875   107.25077953   188.26033380
 F     22  21  20     1.338763178049   119.66958271   179.76665547
 F     23  22  21     1.338051612196   119.40292331   179.20282241
 C     15   9   8     1.378668213059   123.11849892   174.85100462
 C     35  15   9     1.398546805867   131.82238211   179.93764093
 C     36  35  15     1.391032788722   133.00563303   356.80651744
 C     37  36  35     1.387669397335   113.52751089   179.57144137
 C     38  37  36     1.407945423125   113.39065076     0.08628345
 S     39  38  37     1.724640616273   110.86830678     0.35664007
 C     39  38  37     1.407364556716   125.74059356   181.41757827
 S     41  39  38     1.752843934896   120.05001804   359.52393424
 C     42  41  39     1.714624185762    89.86682511   178.38605748
 C     43  42  41     1.390825898378   112.85228248   359.96069413
 C     44  43  42     1.386036692624   113.08575488     0.46703303
 C     43  42  41     1.426917453464   136.39147959   182.29285897
 C     46  43  42     1.415305061038   107.06836547   178.22956564
 C     44  43  42     1.507696852885   110.22881984   179.24287835
 C     46  43  42     1.393513814212   131.02779164   359.63296720
 C     49  46  43     1.374081320592   117.21668259   177.07265589
 C     50  49  46     1.416758477970   120.86123680   358.95685753
 C     47  46  43     1.375263054728   120.86136919   183.73476870
 C     50  49  46     1.520121835380   128.17533653   181.37421210
 C     53  50  49     1.506687342882   100.78451415   174.34837748
 C     54  53  50     1.384995114143   110.47706546     4.65320802
 C     54  53  50     1.390174888063   135.53557422   176.10053800
 C     56  54  53     1.381739686555   112.18585110   188.87952737
 S     55  54  53     1.714621979679   112.17122038   174.59542806
 C     57  56  54     1.424845609496   129.48690636   176.24901190
 S     59  57  56     1.732907044276   118.76754172   154.29923672
 C     60  59  57     1.743423128245    91.92492184   176.17411027
 C     61  60  59     1.387072407194   109.74291753     1.14867401
 C     62  61  60     1.393011359071   114.97881842   359.19066295
 C     32  26  25     1.368873982878   133.19384548   163.19653555
 O     38  37  36     1.344506144501   128.46492030   180.51322509
 C     65  38  37     1.419357563724   117.78910335     1.32737690
 C     66  65  38     1.529125458849   108.12432193   178.05943588
 C     67  66  65     1.526019964843   110.37399464    65.79315640
 C     67  66  65     1.525601389158   109.79596588   188.58267063
 C     48  44  43     1.516004645310   114.30169067   119.66308107
 C     48  44  43     1.519311073513   107.25617870   244.02586727
 C     53  50  49     1.520759725696   114.05200305   284.87891476
 C     53  50  49     1.511334987718   109.42970800    52.29808228
 C     63  62  61     1.495679686096   120.96058029   185.36373943
 C     74  63  62     1.541789483360   111.97556297    83.19290411
 C     70  48  44     1.389736564101   119.94405816   161.16168756
 C     76  70  48     1.381233853154   120.54129296   177.61226661
 C     77  76  70     1.389843008976   120.96819072   359.84674729
 C     78  77  76     1.387975798384   118.23637299   359.74409849
 C     79  78  77     1.383314166413   121.01405887     0.05876925
 C     71  48  44     1.385938446360   122.15104605    97.93454540
 C     81  71  48     1.384666625618   120.41160883   182.39832234
 C     82  81  71     1.386774651412   121.06886499     0.50340542
 C     83  82  81     1.391132955364   118.24761332     0.00000000
 C     84  83  82     1.379965180611   120.91439080   359.87399518
 C     72  53  50     1.390476325509   119.07131393   169.52282892
 C     86  72  53     1.380824122725   120.59718864   172.99789977
 C     87  86  72     1.390200833081   120.91891933   359.56837525
 C     88  87  86     1.387866384491   118.21010406     0.93869617
 C     89  88  87     1.383862881249   121.10546274   359.04589434
 C     73  53  50     1.387363462868   120.95629335    90.18294246
 C     91  73  53     1.382960178385   120.47148818   182.14626566
 C     92  91  73     1.388397114697   120.97226021     0.41960679
 C     93  92  91     1.389740708082   118.29765431     0.08122321
 C     94  93  92     1.381595805328   120.95515752   359.78219553
 C     83  82  81     1.497758984984   121.44658768   180.26600038
 C     78  77  76     1.497781779599   120.61232966   178.81150807
 C     88  87  86     1.497394335037   120.58812292   182.39228536
 C     93  92  91     1.497945417363   120.98182298   179.02037143
 C     75  74  63     1.525103566680   111.70351710    63.41772313
 C     75  74  63     1.526336520463   109.26288569   185.40569477
 H      4   3   1     1.078295662284   121.45878158     0.46744377
 H      7   6   5     1.077215650926   118.65033055   179.92651087
 H     21  20  18     1.078275227852   121.51284654     1.71887109
 H     24  23  22     1.077866242444   118.98224423   179.92003653
 H     35  15   9     1.083011080322   115.46260049   358.77612466
 H     37  36  35     1.073534226050   121.45518623   359.90411988
 H     45  44  43     1.075021497552   125.96168401   180.01589841
 H     49  46  43     1.078975980317   120.72925626   357.74563903
 H     52  47  46     1.078957542677   121.97529637   178.28322526
 H     56  54  53     1.073010659174   123.84216453    11.43642904
 H     62  61  60     1.076091327769   122.63281984   176.60061104
 H     64  32  26     1.086080200584   114.17424256   168.85437036
 H     66  65  38     1.097415929035   109.59260100    57.70675588
 H     66  65  38     1.097474890920   109.80027362   298.50851307
 H     67  66  65     1.094824503334   107.45287495   307.47868156
 H     68  67  66     1.088054975909   110.38519975    63.65358727
 H     68  67  66     1.086684786909   110.16471739   303.46819955
 H     68  67  66     1.086942042843   110.34118550   183.55663267
 H     69  67  66     1.087756156728   110.39367786   299.63010840
 H     69  67  66     1.086715146945   110.14819795   179.94205833
 H     69  67  66     1.087387404838   110.95524134    59.84830439
 H     74  63  62     1.092619122384   108.18710368   323.78946978
 H     74  63  62     1.086591085045   111.67916664   205.12568571
 H     75  74  63     1.095320724628   108.35266489   304.17635319
 H     76  70  48     1.080516363273   119.75201050   356.85798586
 H     77  76  70     1.080654940719   119.52723031   179.83494061
 H     79  78  77     1.080719529295   119.59329559   180.18649361
 H     80  79  78     1.080372916821   119.54529202   180.43417096
 H     81  71  48     1.080186695484   120.09596939     2.57059748
 H     82  81  71     1.080731225190   119.27146458   180.38244269
 H     84  83  82     1.080513869231   119.45431230   179.76303490
 H     85  84  83     1.080300569008   119.85591828   180.36305571
 H     86  72  53     1.080792171558   119.58955420   352.86363369
 H     87  86  72     1.081083801100   119.57227206   180.00388399
 H     89  88  87     1.080468017204   119.54796520   179.72936087
 H     90  89  88     1.080159524191   119.64449460   180.85637973
 H     91  73  53     1.080542224441   119.80494493     2.33315794
 H     92  91  73     1.080665221704   119.44602247   180.40701540
 H     94  93  92     1.080770574636   119.49875329   179.91506166
 H     95  94  93     1.080705415458   119.83396893   180.75576165
 H     96  83  82     1.086963930726   111.06047139   353.06204609
 H     96  83  82     1.088802745634   110.48447311   232.22190946
 H     96  83  82     1.089785875390   110.21359745   113.31245814
 H     97  78  77     1.090503394814   109.95148152   278.33079477
 H     97  78  77     1.087235062992   111.00673299   158.73152649
 H     97  78  77     1.087867585738   110.80565314    37.46176081
 H     98  88  87     1.090498299448   109.78265775    82.26078795
 H     98  88  87     1.087795358926   110.92696877   323.14941276
 H     98  88  87     1.086966707540   111.02718488   201.76029009
 H     99  93  92     1.090578606887   109.91019790   266.02505067
 H     99  93  92     1.087751262652   110.89880556   146.78526811
 H     99  93  92     1.087315322940   110.97186988    25.47789388
 H    100  75  74     1.089021331150   110.83914287    58.38330817
 H    100  75  74     1.086440099637   110.85995798   297.20166672
 H    100  75  74     1.087198027408   109.84258982   178.10121498
 H    101  75  74     1.088560870553   110.16080156   296.51066380
 H    101  75  74     1.087206565194   110.21550840   176.93257469
 H    101  75  74     1.087843369378   111.09376940    56.98377764

---------------------------
INTERNAL COORDINATES (A.U.)
---------------------------
 C      0   0   0     0.000000000000     0.00000000     0.00000000
 O      1   0   0     2.297764291859     0.00000000     0.00000000
 C      1   2   0     2.797282477786   124.60208630     0.00000000
 C      3   1   2     2.608635365811   127.91212463   358.70103225
 C      4   3   1     2.617868382814   117.60634284   180.55222850
 C      5   4   3     2.634869846249   120.52979154     0.00000000
 C      6   5   4     2.621706622271   121.77216882   359.85215281
 C      7   6   5     2.619509012327   118.02831514     0.12630605
 C      8   7   6     2.766755371955   131.76007718   179.99635569
 C      9   8   7     2.593301530545   124.23903143     3.50051604
 C     10   9   8     2.666543719986   126.82258002   177.54577597
 N     11  10   9     2.171442049956   174.42344241   185.63361570
 C     10   9   8     2.666953089939   123.96021062   358.59681239
 N     13  10   9     2.169473967351   176.04629534   181.50491838
 C      9   8   7     2.741664622582   107.80645100   182.06969219
 F      5   4   3     2.531695978633   119.71455816   179.88328027
 F      6   5   4     2.529686979070   119.34436959   179.77528999
 C     12  11  10    44.516877395410   125.50263402   190.56803604
 O     18  12  11     2.284819388822    80.58899239   108.30403055
 C     18  12  11     2.800712478151   151.62691964   282.61266592
 C     20  18  12     2.608575653067   128.68461564   183.45542145
 C     21  20  18     2.619451192265   117.66353303   181.74305280
 C     22  21  20     2.635715894078   120.70674637     0.00000000
 C     23  22  21     2.621786053530   121.66367825   359.41293966
 C     24  23  22     2.617188538041   117.90788755     0.53397817
 C     25  24  23     2.768174890703   131.17738576   181.58327434
 C     26  25  24     2.593092274529   124.75156606    19.63842564
 C     27  26  25     2.662485241839   123.72999756   165.55770857
 N     28  27  26     2.169230478707   176.68164577   211.97476687
 C     27  26  25     2.662877331074   124.02449663   349.44091438
 N     30  27  26     2.169367899896   176.67446563   209.00389438
 C     26  25  24     2.724628395292   107.25077953   188.26033380
 F     22  21  20     2.529895764691   119.66958271   179.76665547
 F     23  22  21     2.528551100102   119.40292331   179.20282241
 C     15   9   8     2.605305352225   123.11849892   174.85100462
 C     35  15   9     2.642870448558   131.82238211   179.93764093
 C     36  35  15     2.628671013990   133.00563303   356.80651744
 C     37  36  35     2.622315125387   113.52751089   179.57144137
 C     38  37  36     2.660631261215   113.39065076     0.08628345
 S     39  38  37     3.259098444194   110.86830678     0.35664007
 C     39  38  37     2.659533582780   125.74059356   181.41757827
 S     41  39  38     3.312394992457   120.05001804   359.52393424
 C     42  41  39     3.240170133688    89.86682511   178.38605748
 C     43  42  41     2.628280047900   112.85228248   359.96069413
 C     44  43  42     2.619229760625   113.08575488     0.46703303
 C     43  42  41     2.696483202759   136.39147959   182.29285897
 C     46  43  42     2.674538961315   107.06836547   178.22956564
 C     44  43  42     2.849134144928   110.22881984   179.24287835
 C     46  43  42     2.633359472697   131.02779164   359.63296720
 C     49  46  43     2.596637381656   117.21668259   177.07265589
 C     50  49  46     2.677285521274   120.86123680   358.95685753
 C     47  46  43     2.598870535536   120.86136919   183.73476870
 C     50  49  46     2.872613959063   128.17533653   181.37421210
 C     53  50  49     2.847226447492   100.78451415   174.34837748
 C     54  53  50     2.617261462549   110.47706546     4.65320802
 C     54  53  50     2.627049816693   135.53557422   176.10053800
 C     56  54  53     2.611109595958   112.18585110   188.87952737
 S     55  54  53     3.240165964796   112.17122038   174.59542806
 C     57  56  54     2.692567985068   129.48690636   176.24901190
 S     59  57  56     3.274719729224   118.76754172   154.29923672
 C     60  59  57     3.294592247928    91.92492184   176.17411027
 C     61  60  59     2.621186977516   109.74291753     1.14867401
 C     62  61  60     2.632409970085   114.97881842   359.19066295
 C     32  26  25     2.586796939489   133.19384548   163.19653555
 O     38  37  36     2.540748398481   128.46492030   180.51322509
 C     65  38  37     2.682197081548   117.78910335     1.32737690
 C     66  65  38     2.889628341631   108.12432193   178.05943588
 C     67  66  65     2.883759808450   110.37399464    65.79315640
 C     67  66  65     2.882968815038   109.79596588   188.58267063
 C     48  44  43     2.864833597387   114.30169067   119.66308107
 C     48  44  43     2.871081841174   107.25617870   244.02586727
 C     53  50  49     2.873819397063   114.05200305   284.87891476
 C     53  50  49     2.856009223400   109.42970800    52.29808228
 C     63  62  61     2.826424990791   120.96058029   185.36373943
 C     74  63  62     2.913559879711   111.97556297    83.19290411
 C     70  48  44     2.626221504448   119.94405816   161.16168756
 C     76  70  48     2.610153709363   120.54129296   177.61226661
 C     77  76  70     2.626422656110   120.96819072   359.84674729
 C     78  77  76     2.622894139457   118.23637299   359.74409849
 C     79  78  77     2.614084931695   121.01405887     0.05876925
 C     71  48  44     2.619044102094   122.15104605    97.93454540
 C     81  71  48     2.616640709199   120.41160883   182.39832234
 C     82  81  71     2.620624300634   121.06886499     0.50340542
 C     83  82  81     2.628860301511   118.24761332     0.00000000
 C     84  83  82     2.607756265703   120.91439080   359.87399518
 C     72  53  50     2.627619450912   119.07131393   169.52282892
 C     86  72  53     2.609379431063   120.59718864   172.99789977
 C     87  86  72     2.627098845673   120.91891933   359.56837525
 C     88  87  86     2.622687377163   118.21010406     0.93869617
 C     89  88  87     2.615121852461   121.10546274   359.04589434
 C     73  53  50     2.621736993028   120.95629335    90.18294246
 C     91  73  53     2.613415991267   120.47148818   182.14626566
 C     92  91  73     2.623690311904   120.97226021     0.41960679
 C     93  92  91     2.626229335437   118.29765431     0.08122321
 C     94  93  92     2.610837699844   120.95515752   359.78219553
 C     83  82  81     2.830354296239   121.44658768   180.26600038
 C     78  77  76     2.830397371820   120.61232966   178.81150807
 C     88  87  86     2.829665207704   120.58812292   182.39228536
 C     93  92  91     2.830706602379   120.98182298   179.02037143
 C     75  74  63     2.882028066892   111.70351710    63.41772313
 C     75  74  63     2.884358011878   109.26288569   185.40569477
 H      4   3   1     2.037683493112   121.45878158     0.46744377
 H      7   6   5     2.035642567424   118.65033055   179.92651087
 H     21  20  18     2.037644877632   121.51284654     1.71887109
 H     24  23  22     2.036872007218   118.98224423   179.92003653
 H     35  15   9     2.046594341811   115.46260049   358.77612466
 H     37  36  35     2.028685682625   121.45518623   359.90411988
 H     45  44  43     2.031496218452   125.96168401   180.01589841
 H     49  46  43     2.038969107877   120.72925626   357.74563903
 H     52  47  46     2.038934265789   121.97529637   178.28322526
 H     56  54  53     2.027696284616   123.84216453    11.43642904
 H     62  61  60     2.033517904571   122.63281984   176.60061104
 H     64  32  26     2.052394138578   114.17424256   168.85437036
 H     66  65  38     2.073815560879   109.59260100    57.70675588
 H     66  65  38     2.073926982694   109.80027362   298.50851307
 H     67  66  65     2.068918476007   107.45287495   307.47868156
 H     68  67  66     2.056125923118   110.38519975    63.65358727
 H     68  67  66     2.053536641157   110.16471739   303.46819955
 H     68  67  66     2.054022784418   110.34118550   183.55663267
 H     69  67  66     2.055561236703   110.39367786   299.63010840
 H     69  67  66     2.053594013310   110.14819795   179.94205833
 H     69  67  66     2.054864396619   110.95524134    59.84830439
 H     74  63  62     2.064750909992   108.18710368   323.78946978
 H     74  63  62     2.053359570296   111.67916664   205.12568571
 H     75  74  63     2.069856198355   108.35266489   304.17635319
 H     76  70  48     2.041880009806   119.75201050   356.85798586
 H     77  76  70     2.042141883227   119.52723031   179.83494061
 H     79  78  77     2.042263937948   119.59329559   180.18649361
 H     80  79  78     2.041608935297   119.54529202   180.43417096
 H     81  71  48     2.041257027970   120.09596939     2.57059748
 H     82  81  71     2.042286039986   119.27146458   180.38244269
 H     84  83  82     2.041875296750   119.45431230   179.76303490
 H     85  84  83     2.041472217745   119.85591828   180.36305571
 H     86  72  53     2.042401211930   119.58955420   352.86363369
 H     87  86  72     2.042952311897   119.57227206   180.00388399
 H     89  88  87     2.041788648976   119.54796520   179.72936087
 H     90  89  88     2.041205681667   119.64449460   180.85637973
 H     91  73  53     2.041928880332   119.80494493     2.33315794
 H     92  91  73     2.042161311473   119.44602247   180.40701540
 H     94  93  92     2.042360399664   119.49875329   179.91506166
 H     95  94  93     2.042237266661   119.83396893   180.75576165
 H     96  83  82     2.054064146523   111.06047139   353.06204609
 H     96  83  82     2.057539003110   110.48447311   232.22190946
 H     96  83  82     2.059396849103   110.21359745   113.31245814
 H     97  78  77     2.060752764309   109.95148152   278.33079477
 H     97  78  77     2.054576512252   111.00673299   158.73152649
 H     97  78  77     2.055771807015   110.80565314    37.46176081
 H     98  88  87     2.060743135464   109.78265775    82.26078795
 H     98  88  87     2.055635318120   110.92696877   323.14941276
 H     98  88  87     2.054069393940   111.02718488   201.76029009
 H     99  93  92     2.060894894530   109.91019790   266.02505067
 H     99  93  92     2.055551988238   110.89880556   146.78526811
 H     99  93  92     2.054728181573   110.97186988    25.47789388
 H    100  75  74     2.057952069872   110.83914287    58.38330817
 H    100  75  74     2.053074249225   110.85995798   297.20166672
 H    100  75  74     2.054506525141   109.84258982   178.10121498
 H    101  75  74     2.057081925449   110.16080156   296.51066380
 H    101  75  74     2.054522659217   110.21550840   176.93257469
 H    101  75  74     2.055726044727   111.09376940    56.98377764

---------------------
BASIS SET INFORMATION
---------------------
There are 6 groups of distinct atoms

 Group   1 Type C   : 7s4p1d contracted to 3s2p1d pattern {511/31/1}
 Group   2 Type O   : 7s4p1d contracted to 3s2p1d pattern {511/31/1}
 Group   3 Type N   : 7s4p1d contracted to 3s2p1d pattern {511/31/1}
 Group   4 Type F   : 7s4p1d contracted to 3s2p1d pattern {511/31/1}
 Group   5 Type S   : 10s7p1d contracted to 4s3p1d pattern {5311/511/1}
 Group   6 Type H   : 4s1p contracted to 2s1p pattern {31/1}

Atom   0C    basis set group =>   1
Atom   1O    basis set group =>   2
Atom   2C    basis set group =>   1
Atom   3C    basis set group =>   1
Atom   4C    basis set group =>   1
Atom   5C    basis set group =>   1
Atom   6C    basis set group =>   1
Atom   7C    basis set group =>   1
Atom   8C    basis set group =>   1
Atom   9C    basis set group =>   1
Atom  10C    basis set group =>   1
Atom  11N    basis set group =>   3
Atom  12C    basis set group =>   1
Atom  13N    basis set group =>   3
Atom  14C    basis set group =>   1
Atom  15F    basis set group =>   4
Atom  16F    basis set group =>   4
Atom  17C    basis set group =>   1
Atom  18O    basis set group =>   2
Atom  19C    basis set group =>   1
Atom  20C    basis set group =>   1
Atom  21C    basis set group =>   1
Atom  22C    basis set group =>   1
Atom  23C    basis set group =>   1
Atom  24C    basis set group =>   1
Atom  25C    basis set group =>   1
Atom  26C    basis set group =>   1
Atom  27C    basis set group =>   1
Atom  28N    basis set group =>   3
Atom  29C    basis set group =>   1
Atom  30N    basis set group =>   3
Atom  31C    basis set group =>   1
Atom  32F    basis set group =>   4
Atom  33F    basis set group =>   4
Atom  34C    basis set group =>   1
Atom  35C    basis set group =>   1
Atom  36C    basis set group =>   1
Atom  37C    basis set group =>   1
Atom  38C    basis set group =>   1
Atom  39S    basis set group =>   5
Atom  40C    basis set group =>   1
Atom  41S    basis set group =>   5
Atom  42C    basis set group =>   1
Atom  43C    basis set group =>   1
Atom  44C    basis set group =>   1
Atom  45C    basis set group =>   1
Atom  46C    basis set group =>   1
Atom  47C    basis set group =>   1
Atom  48C    basis set group =>   1
Atom  49C    basis set group =>   1
Atom  50C    basis set group =>   1
Atom  51C    basis set group =>   1
Atom  52C    basis set group =>   1
Atom  53C    basis set group =>   1
Atom  54C    basis set group =>   1
Atom  55C    basis set group =>   1
Atom  56C    basis set group =>   1
Atom  57S    basis set group =>   5
Atom  58C    basis set group =>   1
Atom  59S    basis set group =>   5
Atom  60C    basis set group =>   1
Atom  61C    basis set group =>   1
Atom  62C    basis set group =>   1
Atom  63C    basis set group =>   1
Atom  64O    basis set group =>   2
Atom  65C    basis set group =>   1
Atom  66C    basis set group =>   1
Atom  67C    basis set group =>   1
Atom  68C    basis set group =>   1
Atom  69C    basis set group =>   1
Atom  70C    basis set group =>   1
Atom  71C    basis set group =>   1
Atom  72C    basis set group =>   1
Atom  73C    basis set group =>   1
Atom  74C    basis set group =>   1
Atom  75C    basis set group =>   1
Atom  76C    basis set group =>   1
Atom  77C    basis set group =>   1
Atom  78C    basis set group =>   1
Atom  79C    basis set group =>   1
Atom  80C    basis set group =>   1
Atom  81C    basis set group =>   1
Atom  82C    basis set group =>   1
Atom  83C    basis set group =>   1
Atom  84C    basis set group =>   1
Atom  85C    basis set group =>   1
Atom  86C    basis set group =>   1
Atom  87C    basis set group =>   1
Atom  88C    basis set group =>   1
Atom  89C    basis set group =>   1
Atom  90C    basis set group =>   1
Atom  91C    basis set group =>   1
Atom  92C    basis set group =>   1
Atom  93C    basis set group =>   1
Atom  94C    basis set group =>   1
Atom  95C    basis set group =>   1
Atom  96C    basis set group =>   1
Atom  97C    basis set group =>   1
Atom  98C    basis set group =>   1
Atom  99C    basis set group =>   1
Atom 100C    basis set group =>   1
Atom 101H    basis set group =>   6
Atom 102H    basis set group =>   6
Atom 103H    basis set group =>   6
Atom 104H    basis set group =>   6
Atom 105H    basis set group =>   6
Atom 106H    basis set group =>   6
Atom 107H    basis set group =>   6
Atom 108H    basis set group =>   6
Atom 109H    basis set group =>   6
Atom 110H    basis set group =>   6
Atom 111H    basis set group =>   6
Atom 112H    basis set group =>   6
Atom 113H    basis set group =>   6
Atom 114H    basis set group =>   6
Atom 115H    basis set group =>   6
Atom 116H    basis set group =>   6
Atom 117H    basis set group =>   6
Atom 118H    basis set group =>   6
Atom 119H    basis set group =>   6
Atom 120H    basis set group =>   6
Atom 121H    basis set group =>   6
Atom 122H    basis set group =>   6
Atom 123H    basis set group =>   6
Atom 124H    basis set group =>   6
Atom 125H    basis set group =>   6
Atom 126H    basis set group =>   6
Atom 127H    basis set group =>   6
Atom 128H    basis set group =>   6
Atom 129H    basis set group =>   6
Atom 130H    basis set group =>   6
Atom 131H    basis set group =>   6
Atom 132H    basis set group =>   6
Atom 133H    basis set group =>   6
Atom 134H    basis set group =>   6
Atom 135H    basis set group =>   6
Atom 136H    basis set group =>   6
Atom 137H    basis set group =>   6
Atom 138H    basis set group =>   6
Atom 139H    basis set group =>   6
Atom 140H    basis set group =>   6
Atom 141H    basis set group =>   6
Atom 142H    basis set group =>   6
Atom 143H    basis set group =>   6
Atom 144H    basis set group =>   6
Atom 145H    basis set group =>   6
Atom 146H    basis set group =>   6
Atom 147H    basis set group =>   6
Atom 148H    basis set group =>   6
Atom 149H    basis set group =>   6
Atom 150H    basis set group =>   6
Atom 151H    basis set group =>   6
Atom 152H    basis set group =>   6
Atom 153H    basis set group =>   6
Atom 154H    basis set group =>   6
Atom 155H    basis set group =>   6
Atom 156H    basis set group =>   6
Atom 157H    basis set group =>   6
Atom 158H    basis set group =>   6
------------------------------------------------------------------------------
                           ORCA GTO INTEGRAL CALCULATION
------------------------------------------------------------------------------

                         BASIS SET STATISTICS AND STARTUP INFO

 # of primitive gaussian shells          ... 1526
 # of primitive gaussian functions       ... 2878
 # of contracted shells                  ...  788
 # of contracted basis functions         ... 1720
 Highest angular momentum                ...    2
 Maximum contraction depth               ...    5
 Integral package used                   ... LIBINT
 Integral threshhold            Thresh   ...  2.500e-11
 Primitive cut-off              TCut     ...  2.500e-12


------------------------------ INTEGRAL EVALUATION ----------------------------


 * One electron integrals 
 Pre-screening matrix                    ... done
 Shell pair data                         ... done (   0.034 sec)

-------------------------------------------------------------------------------
                                 ORCA SCF
-------------------------------------------------------------------------------

------------
SCF SETTINGS
------------
Hamiltonian:
 Ab initio Hamiltonian  Method          .... Hartree-Fock(GTOs)


General Settings:
 Integral files         IntName         .... p-IO1
 Hartree-Fock type      HFTyp           .... RHF
 Total Charge           Charge          ....    0
 Multiplicity           Mult            ....    1
 Number of Electrons    NEL             ....  726
 Basis Dimension        Dim             .... 1720
 Nuclear Repulsion      ENuc            ....  18188.3606599039 Eh

Convergence Acceleration:
 DIIS                   CNVDIIS         .... on
   Start iteration      DIISMaxIt       ....    12
   Startup error        DIISStart       ....  0.200000
   # of expansion vecs  DIISMaxEq       ....     5
   Bias factor          DIISBfac        ....   1.050
   Max. coefficient     DIISMaxC        ....  10.000
 Newton-Raphson         CNVNR           .... off
 SOSCF                  CNVSOSCF        .... on
   Start iteration      SOSCFMaxIt      ....   150
   Startup grad/error   SOSCFStart      ....  0.003300
 Level Shifting         CNVShift        .... on
   Level shift para.    LevelShift      ....    0.2500
   Turn off err/grad.   ShiftErr        ....    0.0010
 Zerner damping         CNVZerner       .... off
 Static damping         CNVDamp         .... on
   Fraction old density DampFac         ....    0.7000
   Max. Damping (<1)    DampMax         ....    0.9800
   Min. Damping (>=0)   DampMin         ....    0.0000
   Turn off err/grad.   DampErr         ....    0.1000
 Fernandez-Rico         CNVRico         .... off

SCF Procedure:
 Maximum # iterations   MaxIter         ....   125
 SCF integral mode      SCFMode         .... Direct
   Integral package                     .... LIBINT
 Reset frequency        DirectResetFreq ....    20
 Integral Threshold     Thresh          ....  2.500e-11 Eh
 Primitive CutOff       TCut            ....  2.500e-12 Eh

Convergence Tolerance:
 Convergence Check Mode ConvCheckMode   .... Total+1el-Energy
 Convergence forced     ConvForced      .... 1
 Energy Change          TolE            ....  1.000e-08 Eh
 1-El. energy change                    ....  1.000e-05 Eh
 Orbital Gradient       TolG            ....  1.000e-05
 Orbital Rotation angle TolX            ....  1.000e-05
 DIIS Error             TolErr          ....  5.000e-07


Diagonalization of the overlap matrix:
Smallest eigenvalue                        ... 1.908e-04
Time for diagonalization                   ...    1.083 sec
Threshold for overlap eigenvalues          ... 1.000e-08
Number of eigenvalues below threshold      ... 0
Time for construction of square roots      ...    0.438 sec
Total time needed                          ...    1.532 sec

-------------------
DFT GRID GENERATION
-------------------

General Integration Accuracy     IntAcc      ...  4.340
Radial Grid Type                 RadialGrid  ... Gauss-Chebyshev
Angular Grid (max. acc.)         AngularGrid ... Lebedev-110
Angular grid pruning method      GridPruning ... 3 (G Style)
Weight generation scheme         WeightScheme... Becke
Basis function cutoff            BFCut       ...    1.0000e-11
Integration weight cutoff        WCut        ...    1.0000e-14
Grids for H and He will be reduced by one unit

# of grid points (after initial pruning)     ... 214608 (   0.5 sec)
# of grid points (after weights+screening)   ... 185110 (  18.7 sec)
nearest neighbour list constructed           ...    0.0 sec
Grid point re-assignment to atoms done       ...    0.0 sec
Grid point division into batches done        ...    0.2 sec
Reduced shell lists constructed in    3.9 sec

Total number of grid points                  ...   185110
Total number of batches                      ...     2972
Average number of points per batch           ...       62
Average number of grid points per atom       ...     1164
Average number of shells per batch           ...   124.87 (15.85%)
Average number of basis functions per batch  ...   251.14 (14.60%)
Average number of large shells per batch     ...    71.13 (56.97%)
Average number of large basis fcns per batch ...   146.48 (58.33%)
Maximum spatial batch extension              ...  25.41, 20.57, 39.51 au
Average spatial batch extension              ...   3.13,  3.22,  3.26 au

Time for grid setup =   23.120 sec

------------------------------
INITIAL GUESS: MODEL POTENTIAL
------------------------------
Loading Hartree-Fock densities                     ... done
Calculating cut-offs                               ... done
Setting up the integral package                    ... done
Initializing the effective Hamiltonian             ... done
Starting the Coulomb interaction                   ... done (  22.2 sec)
Reading the grid                                   ... done
Mapping shells                                     ... done
Starting the XC term evaluation                    ... done (   3.7 sec)
Transforming the Hamiltonian                       ... done (   0.4 sec)
Diagonalizing the Hamiltonian                      ... done (   1.1 sec)
Back transforming the eigenvectors                 ... done (   0.2 sec)
Now organizing SCF variables                       ... done
                      ------------------
                      INITIAL GUESS DONE (  51.2 sec)
                      ------------------
--------------
SCF ITERATIONS
--------------
ITER       Energy         Delta-E        Max-DP      RMS-DP      [F,P]     Damp
               ***  Starting incremental Fock matrix formation  ***
  0  -5713.6117542919   0.000000000000 0.37923960  0.00125225  0.2415755 0.7000
  1  -5714.7365615819  -1.124807289998 0.28620826  0.00096835  0.1480711 0.7000
                               ***Turning on DIIS***
  2  -5715.4264992092  -0.689937627274 0.67290368  0.00226179  0.0842746 0.0000
  3  -5711.0661088424   4.360390366750 0.06398950  0.00045599  0.0483598 0.0000
  4  -5717.1175240651  -6.051415222631 0.03341420  0.00017537  0.0157391 0.0000
  5  -5717.0410533235   0.076470741573 0.01309784  0.00008165  0.0097971 0.0000
  6  -5716.8272146831   0.213838640411 0.00528106  0.00004690  0.0024760 0.0000
  7  -5716.9229308395  -0.095716156433 0.00310154  0.00002857  0.0015501 0.0000
                      *** Initiating the SOSCF procedure ***
                           *** Shutting down DIIS ***
                      *** Re-Reading the Fockian *** 
                      *** Removing any level shift *** 
ITER      Energy       Delta-E        Grad      Rot      Max-DP    RMS-DP
  8  -5716.89939377   0.0235370674  0.002825  0.002825  0.002949  0.000023
               *** Restarting incremental Fock matrix formation ***
  9  -5716.90852554  -0.0091317702  0.001154  0.005133  0.001130  0.000012
 10  -5716.90863041  -0.0001048688  0.000507  0.005767  0.002204  0.000018
 11  -5716.90867692  -0.0000465100  0.000216  0.000707  0.000525  0.000004
 12  -5716.90868363  -0.0000067100  0.000102  0.000514  0.000175  0.000002
 13  -5716.90868483  -0.0000012008  0.000017  0.000051  0.000105  0.000001
 14  -5716.90868499  -0.0000001597  0.000008  0.000037  0.000055  0.000000
 15  -5716.90868503  -0.0000000361  0.000004  0.000023  0.000016  0.000000
                  ***Gradient check signals convergence***
              ***Rediagonalizing the Fockian in SOSCF/NRSCF***

               *****************************************************
               *                     SUCCESS                       *
               *           SCF CONVERGED AFTER  16 CYCLES          *
               *****************************************************


----------------
TOTAL SCF ENERGY
----------------

Total Energy       :        -5716.90868504 Eh         -155564.99409 eV

Components:
Nuclear Repulsion  :        18188.36065990 Eh          494930.45533 eV
Electronic Energy  :       -23905.26934495 Eh         -650495.44943 eV
One Electron Energy:       -44084.29428521 Eh        -1199594.63371 eV
Two Electron Energy:        20179.02494026 Eh          549099.18429 eV

Virial components:
Potential Energy   :       -11418.06367638 Eh         -310701.30838 eV
Kinetic Energy     :         5701.15499134 Eh          155136.31429 eV
Virial Ratio       :            2.00276325


---------------
SCF CONVERGENCE
---------------

  Last Energy change         ...   -1.6909e-08  Tolerance :   1.0000e-08
  Last MAX-Density change    ...    7.2569e-06  Tolerance :   1.0000e-07
  Last RMS-Density change    ...    6.3078e-08  Tolerance :   5.0000e-09
  Last Orbital Gradient      ...    1.7255e-06  Tolerance :   1.0000e-05
  Last Orbital Rotation      ...    1.3517e-05  Tolerance :   1.0000e-05

             **** THE GBW FILE WAS UPDATED (p-IO1.gbw) ****
             **** DENSITY FILE WAS UPDATED (p-IO1.scfp) ****
             **** ENERGY FILE WAS UPDATED (p-IO1.en.tmp) ****
             **** THE GBW FILE WAS UPDATED (p-IO1.gbw) ****
             **** DENSITY FILE WAS UPDATED (p-IO1.scfp) ****
----------------
ORBITAL ENERGIES
----------------

  NO   OCC          E(Eh)            E(eV) 
   0   2.0000     -91.981176     -2502.9350 
   1   2.0000     -91.975539     -2502.7817 
   2   2.0000     -91.973535     -2502.7271 
   3   2.0000     -91.970825     -2502.6534 
   4   2.0000     -26.335188      -716.6169 
   5   2.0000     -26.334492      -716.5980 
   6   2.0000     -26.334047      -716.5858 
   7   2.0000     -26.331439      -716.5149 
   8   2.0000     -20.606067      -560.7196 
   9   2.0000     -20.570852      -559.7614 
  10   2.0000     -20.566360      -559.6391 
  11   2.0000     -15.593341      -424.3164 
  12   2.0000     -15.592162      -424.2843 
  13   2.0000     -15.590089      -424.2279 
  14   2.0000     -15.585127      -424.0929 
  15   2.0000     -11.378637      -309.6285 
  16   2.0000     -11.377375      -309.5941 
  17   2.0000     -11.376381      -309.5671 
  18   2.0000     -11.374855      -309.5255 
  19   2.0000     -11.369933      -309.3916 
  20   2.0000     -11.364904      -309.2547 
  21   2.0000     -11.345117      -308.7163 
  22   2.0000     -11.341038      -308.6053 
  23   2.0000     -11.329566      -308.2932 
  24   2.0000     -11.324248      -308.1485 
  25   2.0000     -11.321419      -308.0715 
  26   2.0000     -11.320750      -308.0533 
  27   2.0000     -11.317055      -307.9527 
  28   2.0000     -11.316557      -307.9392 
  29   2.0000     -11.313075      -307.8444 
  30   2.0000     -11.307566      -307.6945 
  31   2.0000     -11.305129      -307.6282 
  32   2.0000     -11.303723      -307.5899 
  33   2.0000     -11.301252      -307.5227 
  34   2.0000     -11.300892      -307.5129 
  35   2.0000     -11.300644      -307.5061 
  36   2.0000     -11.297092      -307.4095 
  37   2.0000     -11.296819      -307.4021 
  38   2.0000     -11.296739      -307.3999 
  39   2.0000     -11.296410      -307.3909 
  40   2.0000     -11.296212      -307.3855 
  41   2.0000     -11.294559      -307.3406 
  42   2.0000     -11.294014      -307.3257 
  43   2.0000     -11.293011      -307.2984 
  44   2.0000     -11.291753      -307.2642 
  45   2.0000     -11.289355      -307.1990 
  46   2.0000     -11.286630      -307.1248 
  47   2.0000     -11.282994      -307.0259 
  48   2.0000     -11.282417      -307.0102 
  49   2.0000     -11.279927      -306.9424 
  50   2.0000     -11.278635      -306.9072 
  51   2.0000     -11.276932      -306.8609 
  52   2.0000     -11.274641      -306.7986 
  53   2.0000     -11.274528      -306.7955 
  54   2.0000     -11.274178      -306.7860 
  55   2.0000     -11.270184      -306.6773 
  56   2.0000     -11.268147      -306.6219 
  57   2.0000     -11.267823      -306.6131 
  58   2.0000     -11.266648      -306.5811 
  59   2.0000     -11.265590      -306.5523 
  60   2.0000     -11.261623      -306.4443 
  61   2.0000     -11.261299      -306.4355 
  62   2.0000     -11.258665      -306.3638 
  63   2.0000     -11.257503      -306.3322 
  64   2.0000     -11.256390      -306.3019 
  65   2.0000     -11.254431      -306.2486 
  66   2.0000     -11.254060      -306.2386 
  67   2.0000     -11.252172      -306.1872 
  68   2.0000     -11.249123      -306.1042 
  69   2.0000     -11.248406      -306.0847 
  70   2.0000     -11.248377      -306.0839 
  71   2.0000     -11.247425      -306.0580 
  72   2.0000     -11.245133      -305.9956 
  73   2.0000     -11.244828      -305.9873 
  74   2.0000     -11.244427      -305.9764 
  75   2.0000     -11.244345      -305.9742 
  76   2.0000     -11.243795      -305.9592 
  77   2.0000     -11.243536      -305.9522 
  78   2.0000     -11.243040      -305.9387 
  79   2.0000     -11.242855      -305.9336 
  80   2.0000     -11.241906      -305.9078 
  81   2.0000     -11.241775      -305.9042 
  82   2.0000     -11.240513      -305.8699 
  83   2.0000     -11.240058      -305.8575 
  84   2.0000     -11.239723      -305.8484 
  85   2.0000     -11.239586      -305.8447 
  86   2.0000     -11.239280      -305.8364 
  87   2.0000     -11.238623      -305.8185 
  88   2.0000     -11.237442      -305.7863 
  89   2.0000     -11.236814      -305.7693 
  90   2.0000     -11.236598      -305.7634 
  91   2.0000     -11.236188      -305.7522 
  92   2.0000     -11.235728      -305.7397 
  93   2.0000     -11.235594      -305.7361 
  94   2.0000     -11.234426      -305.7043 
  95   2.0000     -11.232876      -305.6621 
  96   2.0000     -11.231972      -305.6375 
  97   2.0000     -11.231879      -305.6350 
  98   2.0000     -11.226458      -305.4875 
  99   2.0000     -11.220655      -305.3296 
 100   2.0000     -11.208817      -305.0074 
 101   2.0000      -9.016725      -245.3576 
 102   2.0000      -9.011690      -245.2205 
 103   2.0000      -9.008814      -245.1423 
 104   2.0000      -9.005137      -245.0422 
 105   2.0000      -6.704153      -182.4293 
 106   2.0000      -6.703094      -182.4004 
 107   2.0000      -6.701219      -182.3495 
 108   2.0000      -6.699139      -182.2928 
 109   2.0000      -6.697989      -182.2615 
 110   2.0000      -6.696334      -182.2165 
 111   2.0000      -6.696174      -182.2122 
 112   2.0000      -6.695321      -182.1890 
 113   2.0000      -6.693409      -182.1369 
 114   2.0000      -6.692476      -182.1115 
 115   2.0000      -6.691409      -182.0825 
 116   2.0000      -6.689564      -182.0323 
 117   2.0000      -1.644912       -44.7603 
 118   2.0000      -1.642528       -44.6955 
 119   2.0000      -1.630031       -44.3554 
 120   2.0000      -1.627597       -44.2892 
 121   2.0000      -1.432692       -38.9855 
 122   2.0000      -1.402586       -38.1663 
 123   2.0000      -1.399236       -38.0751 
 124   2.0000      -1.255587       -34.1663 
 125   2.0000      -1.251416       -34.0528 
 126   2.0000      -1.239619       -33.7318 
 127   2.0000      -1.233059       -33.5532 
 128   2.0000      -1.230969       -33.4964 
 129   2.0000      -1.230248       -33.4768 
 130   2.0000      -1.228341       -33.4249 
 131   2.0000      -1.223670       -33.2977 
 132   2.0000      -1.214630       -33.0518 
 133   2.0000      -1.209826       -32.9211 
 134   2.0000      -1.177445       -32.0399 
 135   2.0000      -1.175131       -31.9770 
 136   2.0000      -1.171552       -31.8795 
 137   2.0000      -1.168548       -31.7978 
 138   2.0000      -1.163677       -31.6653 
 139   2.0000      -1.160398       -31.5760 
 140   2.0000      -1.155712       -31.4485 
 141   2.0000      -1.133160       -30.8349 
 142   2.0000      -1.114286       -30.3213 
 143   2.0000      -1.109110       -30.1804 
 144   2.0000      -1.101129       -29.9632 
 145   2.0000      -1.099737       -29.9254 
 146   2.0000      -1.098827       -29.9006 
 147   2.0000      -1.089936       -29.6587 
 148   2.0000      -1.086338       -29.5608 
 149   2.0000      -1.077960       -29.3328 
 150   2.0000      -1.073911       -29.2226 
 151   2.0000      -1.070783       -29.1375 
 152   2.0000      -1.053877       -28.6775 
 153   2.0000      -1.049327       -28.5536 
 154   2.0000      -1.044704       -28.4279 
 155   2.0000      -1.040848       -28.3229 
 156   2.0000      -1.033600       -28.1257 
 157   2.0000      -1.027590       -27.9621 
 158   2.0000      -1.024655       -27.8823 
 159   2.0000      -1.020477       -27.7686 
 160   2.0000      -1.018193       -27.7064 
 161   2.0000      -1.017353       -27.6836 
 162   2.0000      -1.014066       -27.5941 
 163   2.0000      -1.013647       -27.5827 
 164   2.0000      -1.007576       -27.4175 
 165   2.0000      -1.002988       -27.2927 
 166   2.0000      -0.978097       -26.6154 
 167   2.0000      -0.971897       -26.4467 
 168   2.0000      -0.967321       -26.3221 
 169   2.0000      -0.962455       -26.1897 
 170   2.0000      -0.948032       -25.7973 
 171   2.0000      -0.942492       -25.6465 
 172   2.0000      -0.942323       -25.6419 
 173   2.0000      -0.938516       -25.5383 
 174   2.0000      -0.935760       -25.4633 
 175   2.0000      -0.931353       -25.3434 
 176   2.0000      -0.930743       -25.3268 
 177   2.0000      -0.922360       -25.0987 
 178   2.0000      -0.918986       -25.0069 
[...]

STATE  2:  E=   0.108634 au      2.956 eV    23842.4 cm**-1
   356a -> 364a  :     0.021156 (c= -0.14545003)
   357a -> 364a  :     0.012676 (c=  0.11258996)
   359a -> 364a  :     0.053739 (c=  0.23181705)
   360a -> 364a  :     0.038089 (c= -0.19516349)
   361a -> 363a  :     0.256859 (c= -0.50681272)
   361a -> 364a  :     0.138497 (c= -0.37215153)
   362a -> 364a  :     0.312264 (c= -0.55880573)
   362a -> 366a  :     0.018301 (c=  0.13527967)
   362a -> 368a  :     0.014717 (c=  0.12131521)

STATE  3:  E=   0.142878 au      3.888 eV    31358.0 cm**-1
   348a -> 364a  :     0.013184 (c=  0.11482368)
   352a -> 364a  :     0.023459 (c= -0.15316452)
   356a -> 363a  :     0.045754 (c= -0.21390123)
   357a -> 364a  :     0.016933 (c=  0.13012551)
   359a -> 363a  :     0.070740 (c=  0.26597063)
   360a -> 363a  :     0.044712 (c= -0.21145297)
   361a -> 363a  :     0.040419 (c=  0.20104420)
   361a -> 364a  :     0.103990 (c= -0.32247500)
   361a -> 366a  :     0.019829 (c= -0.14081701)
   361a -> 368a  :     0.012196 (c= -0.11043353)
   361a -> 371a  :     0.019473 (c=  0.13954728)
   362a -> 365a  :     0.140788 (c= -0.37521670)
   362a -> 366a  :     0.014384 (c= -0.11993271)
   362a -> 367a  :     0.203547 (c=  0.45116142)
   362a -> 369a  :     0.035707 (c=  0.18896428)


----------------------
CIS-EXCITATION SPECTRA
----------------------

Center of mass = ( 22.1050,  3.2322,  4.4831)
Calculating the Dipole integrals                  ... done
Transforming integrals                            ... done
Calculating the Linear Momentum integrals         ... done
Transforming integrals                            ... done
Calculating angular momentum integrals            ... done
Transforming integrals                            ... done

-----------------------------------------------------------------------------
         ABSORPTION SPECTRUM VIA TRANSITION ELECTRIC DIPOLE MOMENTS
-----------------------------------------------------------------------------
State   Energy    Wavelength  fosc         T2        TX        TY        TZ  
        (cm-1)      (nm)                 (au**2)    (au)      (au)      (au) 
-----------------------------------------------------------------------------
   1   20149.6    496.3   3.300411086  53.92337   4.69641   5.10966   2.39968
   2   23842.4    419.4   0.140948443   1.94619  -0.34624  -0.61535  -1.20318
   3   31358.0    318.9   0.054476620   0.57192  -0.09932   0.73065  -0.16796

-----------------------------------------------------------------------------
         ABSORPTION SPECTRUM VIA TRANSITION VELOCITY DIPOLE MOMENTS
-----------------------------------------------------------------------------
State   Energy    Wavelength   fosc        P2         PX        PY        PZ  
        (cm-1)      (nm)                 (au**2)     (au)      (au)      (au) 
-----------------------------------------------------------------------------
   1   20149.6    496.3   2.355977937   0.32445  -0.36466  -0.39345  -0.19149
   2   23842.4    419.4   0.062378496   0.01016   0.03511   0.08252   0.04606
   3   31358.0    318.9   0.013504103   0.00289  -0.00190   0.05283   0.00996

-------------------------------------------------------------------
                             CD SPECTRUM
-------------------------------------------------------------------
State  Energy     Wavelength     R         MX        MY        MZ   
       (cm-1)       (nm)     (1e40*cgs)   (au)      (au)      (au)  
-------------------------------------------------------------------
   1   20149.6    496.3    326.30332   0.11256   0.13918  -0.22822
   2   23842.4    419.4    -125.60929  -0.53180  -0.14165   0.44692
   3   31358.0    318.9    105.48334  -0.51544   0.15349  -0.35960

Total run time:    53368.809 sec

           *** ORCA-CIS/TD-DFT FINISHED WITHOUT ERROR ***

-----------------------
CIS/TD-DFT TOTAL ENERGY
-----------------------

    E(SCF)  =  -5716.908685045 Eh
    DE(CIS) =      0.091808370 Eh (Root  1)
    ----------------------------- ---------
    E(tot)  =  -5716.816876675 Eh


-------------------------   --------------------
FINAL SINGLE POINT ENERGY     -5716.816876674930
-------------------------   --------------------

------------------------------------------------------------------------------
                         ORCA SCF GRADIENT CALCULATION
------------------------------------------------------------------------------


------------
CIS GRADIENT
------------

Reference wavefunction             ... RHF
State of interest                  ... 1
Basis dimension                    ... 1720
DFT-XC contribution needed         ... NO
RI-approximation                   ... OFF
CIS-vectors being read from        ... p-IO1.cis

 => Number of Vectors found: 3
 => Orbital Window: 117...362 -> 363...1719

Reading the CIS file                     ... done
Norm of the CI vector                    ... 1.000000000
Making the CIS (pseudo)densities         ... done
Making operators G(D) and Q(T)           ... done
Transforming the Fock operators          ... done
Making the frozen-core relaxed density   ... done
Constructing the G(H) operator           ... done
Transforming the G(H) operator           ... done
Calculating the CIS Lagrangian           ... done
Solving the Z-vector equations           ... done
Finalizing the relaxed density           ... done
Storing the relaxed density              ... done
Constructing the G(Z) operator           ... done
Transforming the G(Z) operator           ... done
Making the W-matrix                      ... done
Finalizing the W-matrix                  ... done
Transforming the W-matrix                ... done
Nuclear repulsion gradient               ... done
One-Electron gradient                    ... done
Prescreening matrices                    ... done
Two-Electron gradient (4-center)         ... done
                 ---------------------------
                 EXCITED STATE GRADIENT DONE
                 ---------------------------


------------------
CARTESIAN GRADIENT
------------------

   1   C   :   -0.029921958   -0.012377517    0.016786832
   2   O   :    0.032674556    0.014629878   -0.015506020
   3   C   :    0.010120727    0.006624858   -0.000427456
   4   C   :    0.001997813    0.000841099   -0.001597718
   5   C   :    0.005077426    0.009515699    0.015112169
   6   C   :    0.011763445    0.011336998    0.009278184
   7   C   :    0.001280333    0.002285527    0.003882736
   8   C   :   -0.005104707    0.005097754    0.021277800
   9   C   :   -0.002634804   -0.006976587   -0.016928867
  10   C   :   -0.007414940   -0.000578785    0.015859002
  11   C   :   -0.010639489   -0.023234894   -0.051499095
  12   N   :    0.002959290    0.011973413    0.031671172
  13   C   :    0.047029709    0.030756392   -0.005194239
  14   N   :   -0.026858172   -0.016477116    0.006385618
  15   C   :    0.004277154    0.003630913    0.000879204
  16   F   :    0.000445851   -0.009722199   -0.024423560
  17   F   :   -0.020636664   -0.015238379   -0.004597369
  18   C   :    0.036576833   -0.015710932   -0.002708307
  19   O   :   -0.036456732    0.016346324    0.003394833
  20   C   :   -0.011811954    0.001345551   -0.000689667
  21   C   :   -0.003706999    0.000562726   -0.000655494
  22   C   :   -0.007676963   -0.016502092   -0.004890351
  23   C   :   -0.017229555   -0.007128561   -0.002123727
  24   C   :   -0.003529677   -0.005204906   -0.000962933
  25   C   :    0.002866929   -0.020798769   -0.003428914
  26   C   :   -0.004112435    0.024378407   -0.004369609
  27   C   :    0.010890186   -0.023935880    0.006041602
  28   C   :    0.029696778    0.050988501   -0.007337802
  29   N   :   -0.018668859   -0.030315688   -0.002560604
  30   C   :   -0.058383535    0.009615884   -0.008628106
  31   N   :    0.032504082   -0.008041777    0.004619462
  32   C   :    0.014319665    0.000362925    0.002920522
  33   F   :    0.005406008    0.025501450    0.007225238
  34   F   :    0.026277400    0.004180663    0.001953757
  35   C   :   -0.003023037   -0.005553449   -0.005401861
  36   C   :    0.004472778   -0.003588794   -0.011425281
  37   C   :   -0.014740260   -0.004084414    0.010721953
  38   C   :   -0.004256716   -0.000312771    0.003537877
  39   C   :   -0.005598383   -0.007679741   -0.005295804
  40   S   :    0.003040081    0.001951045   -0.000977262
  41   C   :    0.003342964    0.012780200    0.016192732
  42   S   :   -0.010069422   -0.011487695   -0.005023305
  43   C   :    0.003613115    0.000322772   -0.002484189
  44   C   :   -0.002690844    0.004079651    0.011217068
  45   C   :   -0.003000624   -0.006709699   -0.006618733
  46   C   :    0.007700789    0.006049210   -0.002875584
  47   C   :   -0.006455401   -0.005417949    0.001342795
  48   C   :    0.002552943   -0.000012409   -0.004136833
  49   C   :   -0.007862842   -0.007115406   -0.000298855
  50   C   :    0.007516235    0.006350924   -0.000548357
  51   C   :   -0.001127624    0.001262235    0.002344644
  52   C   :    0.004378821    0.005203754    0.000963473
  53   C   :   -0.003224419    0.000029730    0.000941969
  54   C   :    0.019887611    0.002868102   -0.018219410
  55   C   :   -0.010924301   -0.007627040    0.011005582
  56   C   :    0.000968493   -0.010180661   -0.006312662
  57   C   :    0.007707447    0.010209961    0.007805627
  58   S   :   -0.002074169    0.003964317    0.002952567
  59   C   :   -0.007616184   -0.016955728   -0.007469128
  60   S   :   -0.007965090   -0.002049017    0.001431008
  61   C   :    0.004247746    0.013930863    0.012775308
  62   C   :    0.011547258   -0.011830721   -0.002237250
  63   C   :    0.012399944    0.001204468    0.004688431
  64   C   :   -0.003996844   -0.010940613   -0.005976601
  65   O   :    0.020729889    0.018513477    0.004422220
  66   C   :   -0.004248183   -0.007067726    0.003100025
  67   C   :    0.002411169    0.006311799   -0.003109560
  68   C   :    0.003785450   -0.004799259   -0.000314474
  69   C   :    0.002384201   -0.003537435   -0.004202502
  70   C   :    0.005556745   -0.002334619    0.001859782
  71   C   :   -0.006262349    0.001761161   -0.003584462
  72   C   :   -0.002409180    0.006426933   -0.000871738
  73   C   :    0.000981087   -0.004788244    0.004096537
  74   C   :   -0.005666741    0.004370149   -0.002581753
  75   C   :   -0.001103307    0.003192159    0.004958684
  76   C   :    0.001590992   -0.001707820   -0.001180651
  77   C   :   -0.001314844   -0.000532767   -0.000515056
  78   C   :   -0.000710351    0.000329219    0.002101615
  79   C   :    0.001298586   -0.002250001   -0.000167481
  80   C   :   -0.000319668    0.001145152   -0.000094397
  81   C   :    0.001387039   -0.001648375    0.001555382
  82   C   :    0.000041282    0.002866838   -0.002976221
  83   C   :   -0.003465481   -0.000778410    0.001438486
  84   C   :    0.001995509   -0.000423407    0.002048526
  85   C   :    0.000211059    0.002763441   -0.003095463
  86   C   :   -0.002360660    0.001219998    0.000821077
  87   C   :    0.000221232   -0.001141756    0.000993853
  88   C   :    0.002121352    0.001936362   -0.000091517
  89   C   :   -0.002827281    0.000606336   -0.000471203
  90   C   :    0.001261894    0.000079898    0.001561869
  91   C   :   -0.000620093    0.000375429   -0.000809301
  92   C   :    0.000887308   -0.000330471    0.002192908
  93   C   :   -0.000544532   -0.001512764   -0.001320426
  94   C   :    0.000307579    0.001324232    0.000075042
  95   C   :    0.000634162   -0.000102671    0.001854584
  96   C   :    0.000581464    0.000935548   -0.002753322
  97   C   :    0.002897928   -0.000522254   -0.001416989
  98   C   :   -0.002748391    0.000213309   -0.001184633
  99   C   :    0.002023625    0.000160906    0.002373920
 100   C   :   -0.002207475   -0.002632892   -0.003137916
 101   C   :    0.000705136   -0.003239123   -0.004088443
 102   H   :   -0.000677373    0.000205585    0.001566087
 103   H   :    0.000213949    0.001219806    0.002450315
 104   H   :    0.000527944   -0.001786755   -0.000396245
 105   H   :   -0.001109664   -0.002160540   -0.000763061
 106   H   :   -0.004153788   -0.000532742    0.004978500
 107   H   :   -0.000422249   -0.000827170   -0.000688239
 108   H   :    0.002323335    0.000035342   -0.002642003
 109   H   :   -0.000341866   -0.000225347    0.000800942
 110   H   :    0.000581591   -0.000199619   -0.000468972
 111   H   :   -0.002222901   -0.000535374   -0.000084612
 112   H   :   -0.001894978    0.000236154   -0.000016930
 113   H   :   -0.001806356   -0.001420068   -0.000343546
 114   H   :   -0.002370662    0.000850793   -0.004138427
 115   H   :    0.001700346   -0.003632956   -0.000363128
 116   H   :    0.001075248    0.001202183    0.000737995
 117   H   :   -0.001911145    0.003111332   -0.000625402
 118   H   :   -0.002676446    0.001013299   -0.001744017
 119   H   :   -0.003704112   -0.000562390    0.000253780
 120   H   :   -0.000840296    0.003297701    0.002152137
 121   H   :   -0.002009052   -0.000278825    0.002635888
 122   H   :    0.001443683   -0.000310110    0.003507530
 123   H   :    0.001683110    0.000570501    0.002466779
 124   H   :   -0.003186248   -0.003016925    0.000560240
 125   H   :    0.000176825    0.001174670    0.002462477
 126   H   :    0.001100042   -0.000842484   -0.000806522
 127   H   :   -0.000287040   -0.000698224   -0.001713021
 128   H   :    0.000799465   -0.000303283    0.001313868
 129   H   :    0.000974310   -0.000853272    0.000099074
 130   H   :   -0.000087271    0.001043357   -0.001463386
 131   H   :   -0.001345916    0.000362304   -0.000366548
 132   H   :    0.001903946    0.000565667   -0.000634025
 133   H   :    0.000915878    0.000556561   -0.001442135
 134   H   :   -0.001561467    0.000418900    0.000432176
 135   H   :   -0.000919948   -0.000565119    0.001169207
 136   H   :    0.000088255    0.001471542   -0.000933227
 137   H   :   -0.001346549    0.000831567   -0.000294067
 138   H   :    0.000397930   -0.000739617    0.000802243
 139   H   :    0.000471733   -0.001576766    0.000070577
 140   H   :   -0.000756504    0.001220130    0.001107063
 141   H   :   -0.000322386    0.000030221    0.001490238
 142   H   :   -0.000963128    0.001360711   -0.001516490
 143   H   :   -0.000333243    0.002246721   -0.001250849
 144   H   :   -0.000414550    0.000614315   -0.002685349
 145   H   :    0.002519883   -0.001221878   -0.000732406
 146   H   :    0.001278685   -0.001903899    0.000377541
 147   H   :    0.000844562   -0.002321833   -0.000277947
 148   H   :   -0.002503071    0.000606909   -0.001117146
 149   H   :   -0.002012654    0.001412579    0.000620815
 150   H   :   -0.001691863    0.001860855   -0.000211784
 151   H   :    0.001478066   -0.000364298    0.002424737
 152   H   :   -0.000480280   -0.000682246    0.002324052
 153   H   :   -0.000040439   -0.001296169    0.002006893
 154   H   :    0.000228686    0.001854555   -0.000427974
 155   H   :    0.001300633    0.002403262   -0.001593864
 156   H   :   -0.000307060    0.002592189   -0.001950941
 157   H   :   -0.000944865    0.001334128    0.002421808
 158   H   :   -0.002554257    0.002384277   -0.000160866
 159   H   :   -0.003161440   -0.000804566    0.001754953

Difference to translation invariance:
           :   -0.0000000001   -0.0000000001   -0.0000000001

Norm of the cartesian gradient     ...    0.1976944495
RMS gradient                       ...    0.0090518070
MAX gradient                       ...    0.0583835348

-------
TIMINGS
-------

Total CIS gradient time            ...    47452.873 sec

Fock matrix formation       ....    3351.680 sec  (  7.1%)
  Coulomb formation         ....    3351.680 sec  (100.0% of F)
Z-vector equation           ....   39635.770 sec  ( 83.5%)
One electron gradient       ....      38.401 sec  (  0.1%)
Prescreening matrices       ....       1.916 sec  (  0.0%)
Two electron gradient       ....    4418.130 sec  (  9.3%)

                            ***************************************
                            *     ORCA property calculations      *
                            ***************************************

                                    ---------------------
                                    Active property flags
                                    ---------------------
   (+) Dipole Moment


------------------------------------------------------------------------------
                       ORCA ELECTRIC PROPERTIES CALCULATION
------------------------------------------------------------------------------

Dipole Moment Calculation                       ... on
Quadrupole Moment Calculation                   ... off
Polarizability Calculation                      ... off
GBWName                                         ... p-IO1.gbw
Electron density file                           ... p-IO1.scfp
The origin for moment calculation is the CENTER OF MASS  = (22.104967,  3.232230  4.483146)

-------------
DIPOLE MOMENT
-------------
                                X             Y             Z
Electronic contribution:    -52.56212      14.17540      28.43535
Nuclear contribution   :     54.32624     -12.89663     -31.26850
                        -----------------------------------------
Total Dipole Moment    :      1.76413       1.27877      -2.83315
                        -----------------------------------------
Magnitude (a.u.)       :      3.57409
Magnitude (Debye)      :      9.08462



--------------------
Rotational spectrum 
--------------------
 
Rotational constants in cm-1:     0.001127     0.000146     0.000139 
Rotational constants in MHz :    33.782506     4.383156     4.172298 

 Dipole components along the rotational axes: 
x,y,z [a.u.] :     1.007843     3.128613    -1.403626 
x,y,z [Debye]:     2.561732     7.952302    -3.567733 

 

                        *** CIS RELAXED DENSITY ***

------------------------------------------------------------------------------
                       ORCA ELECTRIC PROPERTIES CALCULATION
------------------------------------------------------------------------------

Dipole Moment Calculation                       ... on
Quadrupole Moment Calculation                   ... off
Polarizability Calculation                      ... off
GBWName                                         ... p-IO1.gbw
Electron density file                           ... p-IO1.cisp
The origin for moment calculation is the CENTER OF MASS  = (22.104967,  3.232230  4.483146)

-------------
DIPOLE MOMENT
-------------
                                X             Y             Z
Electronic contribution:    -51.33243      15.32970      28.76967
Nuclear contribution   :     54.32624     -12.89663     -31.26850
                        -----------------------------------------
Total Dipole Moment    :      2.99381       2.43307      -2.49883
                        -----------------------------------------
Magnitude (a.u.)       :      4.59640
Magnitude (Debye)      :     11.68313



--------------------
Rotational spectrum 
--------------------
 
Rotational constants in cm-1:     0.001127     0.000146     0.000139 
Rotational constants in MHz :    33.782506     4.383156     4.172298 

 Dipole components along the rotational axes: 
x,y,z [a.u.] :     2.698078     3.443879    -1.409612 
x,y,z [Debye]:     6.857970     8.753645    -3.582948 

 

Timings for individual modules:

Sum of individual times         ...   116754.368 sec (=1945.906 min)
GTO integral calculation        ...        3.043 sec (=   0.051 min)   0.0 %
SCF iterations                  ...    15929.480 sec (= 265.491 min)  13.6 %
CIS module                      ...    53368.896 sec (= 889.482 min)  45.7 %
SCF Gradient evaluation         ...    47452.949 sec (= 790.882 min)  40.6 %
                             ****ORCA TERMINATED NORMALLY****
TOTAL RUN TIME: 1 days 8 hours 25 minutes 56 seconds 353 msec
