
                                 *****************
                                 * O   R   C   A *
                                 *****************

           --- An Ab Initio, DFT and Semiempirical electronic structure package ---

                  #######################################################
                  #                        -***-                        #
                  #          Department of theory and spectroscopy      #
                  #               Directorship: Frank Neese             #
                  #        Max Planck Institute fuer Kohlenforschung    #
                  #                Kaiser Wilhelm Platz 1               #
                  #                 D-45470 Muelheim/Ruhr               #
                  #                      Germany                        #
                  #                                                     #
                  #                  All rights reserved                #
                  #                        -***-                        #
                  #######################################################


                         Program Version 4.2.0 -  RELEASE  -


 With contributions from (in alphabetic order):
   Daniel Aravena         : Magnetic Suceptibility
   Michael Atanasov       : Ab Initio Ligand Field Theory (pilot matlab implementation)
   Alexander A. Auer      : GIAO ZORA, VPT2
   Ute Becker             : Parallelization
   Giovanni Bistoni       : ED, misc. LED, open-shell LED, HFLED
   Martin Brehm           : Molecular dynamics
   Dmytro Bykov           : SCF Hessian
   Vijay G. Chilkuri      : MRCI spin determinant printing, contributions to CSF-ICE
   Dipayan Datta          : RHF DLPNO-CCSD density
   Achintya Kumar Dutta   : EOM-CC, STEOM-CC
   Dmitry Ganyushin       : Spin-Orbit,Spin-Spin,Magnetic field MRCI
   Miquel Garcia          : C-PCM Hessian, Gaussian charge scheme
   Yang Guo               : DLPNO-NEVPT2, CIM, IAO-localization
   Andreas Hansen         : Spin unrestricted coupled pair/coupled cluster methods
   Benjamin Helmich-Paris : CASSCF linear response (MC-RPA)
   Lee Huntington         : MR-EOM, pCC
   Robert Izsak           : Overlap fitted RIJCOSX, COSX-SCS-MP3, EOM
   Christian Kollmar      : KDIIS, OOCD, Brueckner-CCSD(T), CCSD density
   Simone Kossmann        : Meta GGA functionals, TD-DFT gradient, OOMP2, MP2 Hessian
   Martin Krupicka        : AUTO-CI
   Lucas Lang             : DCDCAS
   Dagmar Lenk            : GEPOL surface, SMD
   Dimitrios Liakos       : Extrapolation schemes; Compound Job, initial MDCI parallelization
   Dimitrios Manganas     : Further ROCIS development; embedding schemes
   Dimitrios Pantazis     : SARC Basis sets
   Taras Petrenko         : DFT Hessian,TD-DFT gradient, ASA, ECA, R-Raman, ABS, FL, XAS/XES, NRVS
   Peter Pinski           : DLPNO-MP2, DLPNO-MP2 Gradient
   Christoph Reimann      : Effective Core Potentials
   Marius Retegan         : Local ZFS, SOC
   Christoph Riplinger    : Optimizer, TS searches, QM/MM, DLPNO-CCSD(T), (RO)-DLPNO pert. Triples
   Tobias Risthaus        : Range-separated hybrids, TD-DFT gradient, RPA, STAB
   Michael Roemelt        : Original ROCIS implementation
   Masaaki Saitow         : Open-shell DLPNO-CCSD energy and density
   Barbara Sandhoefer     : DKH picture change effects
   Avijit Sen             : IP-ROCIS
   Kantharuban Sivalingam : CASSCF convergence, NEVPT2, FIC-MRCI
   Bernardo de Souza      : ESD, SOC TD-DFT
   Georgi Stoychev        : AutoAux, RI-MP2 NMR
   Willem Van den Heuvel  : Paramagnetic NMR
   Boris Wezisla          : Elementary symmetry handling
   Frank Wennmohs         : Technical directorship


 We gratefully acknowledge several colleagues who have allowed us to
 interface, adapt or use parts of their codes:
   Stefan Grimme, W. Hujo, H. Kruse,             : VdW corrections, initial TS optimization,
                  C. Bannwarth                     DFT functionals, gCP, sTDA/sTD-DF
   Ed Valeev, F. Pavosevic, A. Kumar             : LibInt (2-el integral package), F12 methods
   Garnet Chan, S. Sharma, J. Yang, R. Olivares  : DMRG
   Ulf Ekstrom                                   : XCFun DFT Library
   Mihaly Kallay                                 : mrcc  (arbitrary order and MRCC methods)
   Andreas Klamt, Michael Diedenhofen            : otool_cosmo (COSMO solvation model)
   Jiri Pittner, Ondrej Demel                    : Mk-CCSD
   Frank Weinhold                                : gennbo (NPA and NBO analysis)
   Christopher J. Cramer and Donald G. Truhlar   : smd solvation model
   Lars Goerigk                                  : TD-DFT with DH, B97 family of functionals
   V. Asgeirsson, H. Jonsson                     : NEB implementation
   FAccTs GmbH                                   : IRC, NEB, NEB-TS, Multilevel, MM, QM/MM, CI optimization
   S Lehtola, MJT Oliveira, MAL Marques          : LibXC Library


 Your calculation uses the libint2 library for the computation of 2-el integrals
 For citations please refer to: http://libint.valeyev.net

 Your ORCA version has been built with support for libXC version: 4.2.3
 For citations please refer to: https://tddft.org/programs/libxc/

 This ORCA versions uses:
   CBLAS   interface :  Fast vector & matrix operations
   LAPACKE interface :  Fast linear algebra routines
   SCALAPACK package :  Parallel linear algebra routines


----- Orbital basis set information -----
Your calculation utilizes the basis: def2-SVP
   F. Weigend and R. Ahlrichs, Phys. Chem. Chem. Phys. 7, 3297 (2005).

================================================================================
                                        WARNINGS
                       Please study these warnings very carefully!
================================================================================

INFO   : Checking CIS options ...

WARNING: CIS/ROCIS methods need fully converged wavefunctions
  ===> : Setting SCFConvForced true
         You can overwrite this default with %scf ConvForced false 


INFO   : the flag for use of LIBINT has been found!

================================================================================
                                       INPUT FILE
================================================================================
NAME = SeTIC4Cl.inp
|  1> # ORCA input file
|  2> # SeTIC4Cl.out
|  3> ! Engrad Keepdens
|  4> %maxcore 1000
|  5> %tddft
|  6>   nroots 3 
|  7>   # nroots is the number of states to be computed
|  8>   Iroot 1
|  9>   end
| 10> * xyz 0 1
| 11>    C        0.81537        -0.27587         0.55228
| 12>    C        2.07006        -0.87940         0.56457
| 13>    C        3.16542        -0.05676         0.44756
| 14>    C        3.00739         1.34305         0.31808
| 15>    C        1.75222         1.94669         0.30654
| 16>    C        0.65707         1.12322         0.41586
| 17>    C        4.63224        -0.44024         0.39263
| 18>    C        5.27517         0.90957         0.21048
| 19>    C        4.31426         1.90862         0.19195
| 20>    C       -0.81263         1.50176         0.42145
| 21>    C       -1.45508         0.15182         0.60377
| 22>    C       -0.49275        -0.84460         0.65266
| 23>    C        5.17016        -1.03049         1.68418
| 24>    C        4.83042        -1.37185        -0.78932
| 25>    C       -1.06192         2.46648         1.56389
| 26>    C       -1.30710         2.04005        -0.91136
| 27>    C       -2.76217        -0.32571         0.66744
| 28>    C       -2.86594        -1.72809         0.77668
| 29>   Se       -1.18804        -2.57206         0.80501
| 30>    S       -4.31317         0.41125         0.64968
| 31>    C       -5.09984        -1.16045         0.72810
| 32>    C       -4.17315        -2.19025         0.80206
| 33>    C        6.58329         1.37251         0.08216
| 34>    C        6.68563         2.77606        -0.05245
| 35>   Se        5.00785         3.63387        -0.00401
| 36>    S        8.12140         0.60574         0.03076
| 37>    C        8.91204         2.16363        -0.17826
| 38>    C        7.98621         3.21239        -0.19829
| 39>    C        4.49617        -0.88187         2.88747
| 40>    C        5.04170        -1.37675         4.05874
| 41>    C        6.27479        -2.01369         4.06028
| 42>    C        6.94888        -2.14947         2.85287
| 43>    C        6.40694        -1.66454         1.67898
| 44>    C        4.63490        -2.73845        -0.63505
| 45>    C        4.76037        -3.59040        -1.71538
| 46>    C        5.08102        -3.10301        -2.97596
| 47>    C        5.26555        -1.73557        -3.12588
| 48>    C        5.13834        -0.87805        -2.04869
| 49>    C       -1.44157         2.01216         2.81860
| 50>    C       -1.62149         2.90224         3.86157
| 51>    C       -1.42023         4.26368         3.68139
| 52>    C       -1.02726         4.71160         2.42652
| 53>    C       -0.84886         3.82714         1.38046
| 54>    C       -0.61504         1.79948        -2.08952
| 55>    C       -1.12675         2.23086        -3.29967
| 56>    C       -2.34299         2.89661        -3.36612
| 57>    C       -3.03360         3.12814        -2.18342
| 58>    C       -2.52667         2.70279        -0.97087
| 59>    C       -6.50582        -1.20902         0.77066
| 60>    C       -7.34853        -2.26346         0.55763
| 61>    C       -7.17168        -3.56176        -0.05015
| 62>    C       -8.30212        -4.39171         0.36694
| 63>    C       -9.25078        -3.57538         1.00881
| 64>    C       -8.73392        -2.19075         1.08969
| 65>    C       -8.55153        -5.74320         0.20334
| 66>    C       -9.75163        -6.26036         0.68002
| 67>    C      -10.69728        -5.43945         1.30398
| 68>    C      -10.44677        -4.08279         1.47268
| 69>   Cl      -12.17475        -6.10857         1.86791
| 70>   Cl      -10.06733        -7.93777         0.49451
| 71>    O       -9.29354        -1.21451         1.53178
| 72>    C       -6.27975        -3.89344        -1.03812
| 73>    C       -6.21594        -5.16267        -1.64806
| 74>    C       -5.37876        -2.97967        -1.62046
| 75>    N       -6.10159        -6.18514        -2.15698
| 76>    N       -4.65743        -2.26316        -2.15335
| 77>    C        6.84773        -2.58450         5.32534
| 78>    C        6.44778        -4.05346         5.47821
| 79>    C        5.17030        -4.02592        -4.15653
| 80>    C        3.79832        -4.18071        -4.81618
| 81>    C       -1.57024         5.22287         4.82640
| 82>    C       -0.23632         5.39376         5.55636
| 83>    C       -2.87823         3.39203        -4.67811
| 84>    C       -2.38580         4.81397        -4.95517
| 85>    C       10.28636         2.39220        -0.31804
| 86>    C       11.34401         1.51494        -0.31241
| 87>    C       12.73939         1.87410        -0.47256
| 88>    C       13.52210         0.64244        -0.36609
| 89>    C       12.64455        -0.43566        -0.16015
| 90>    C       11.25520         0.06332        -0.12460
| 91>    C       14.88578         0.41029        -0.43337
| 92>    C       15.34855        -0.89425        -0.29331
| 93>    C       14.46597        -1.96000        -0.08897
| 94>    C       13.09726        -1.73116        -0.02145
| 95>   Cl       15.07245        -3.55764         0.08018
| 96>   Cl       17.03822        -1.18974        -0.37432
| 97>    O       10.25533        -0.61295         0.03254
| 98>    C       13.26423         3.12147        -0.69346
| 99>    C       14.64284         3.38439        -0.84224
|100>    C       12.53038         4.32054        -0.81139
|101>    N       12.01598         5.34193        -0.92235
|102>    N       15.74645         3.67232        -0.97174
|103>    H        2.16251        -1.95131         0.66056
|104>    H        1.65990         3.01794         0.20416
|105>    H       -4.44468        -3.22497         0.91619
|106>    H        8.28158         4.24051        -0.31664
|107>    H        3.54062        -0.37803         2.91469
|108>    H        4.50116        -1.25737         4.98708
|109>    H        7.91388        -2.63416         2.82976
|110>    H        6.94765        -1.78218         0.75167
|111>    H        4.39681        -3.13960         0.33950
|112>    H        4.60989        -4.65156        -1.57678
|113>    H        5.51339        -1.33412        -4.09816
|114>    H        5.28198         0.18296        -2.19405
|115>    H       -1.60019         0.95645         2.98616
|116>    H       -1.92508         2.53156         4.83024
|117>    H       -0.86276         5.76740         2.26503
|118>    H       -0.55677         4.19744         0.40845
|119>    H        0.32663         1.27025        -2.06603
|120>    H       -0.57473         2.03629        -4.20802
|121>    H       -3.98473         3.63986        -2.21134
|122>    H       -3.08018         2.88978        -0.06187
|123>    H       -7.00021        -0.29483         1.08587
|124>    H       -7.84372        -6.40396        -0.27027
|125>    H      -11.16841        -3.44080         1.95246
|126>    H        6.48271        -2.02042         6.18596
|127>    H        7.93676        -2.50936         5.30358
|128>    H        5.36477        -4.14851         5.51657
|129>    H        6.86567        -4.46872         6.39231
|130>    H        6.81247        -4.63424         4.63393
|131>    H        5.52722        -5.00617        -3.83454
|132>    H        5.87766        -3.62698        -4.88618
|133>    H        3.08086        -4.58788        -4.10723
|134>    H        3.86036        -4.84995        -5.67099
|135>    H        3.43083        -3.21507        -5.15645
|136>    H       -2.31903         4.84935         5.52757
|137>    H       -1.90359         6.19387         4.45494
|138>    H        0.10741         4.43776         5.94520
|139>    H       -0.34281         6.08859         6.38599
|140>    H        0.52087         5.77758         4.87625
|141>    H       -3.96961         3.38673        -4.65718
|142>    H       -2.54848         2.73351        -5.48388
|143>    H       -2.71875         5.48961        -4.17038
|144>    H       -2.77104         5.17095        -5.90738
|145>    H       -1.29881         4.83817        -4.98905
|146>    H       10.52774         3.44031        -0.44770
|147>    H       15.59796         1.20357        -0.58940
|148>    H       12.40431        -2.54259         0.13508
|149> *
|150> 
|151>                          ****END OF INPUT****
================================================================================

                     *******************************
                     * Energy+Gradient Calculation *
                     *******************************

---------------------------------
CARTESIAN COORDINATES (ANGSTROEM)
---------------------------------
  C      0.815370   -0.275870    0.552280
  C      2.070060   -0.879400    0.564570
  C      3.165420   -0.056760    0.447560
  C      3.007390    1.343050    0.318080
  C      1.752220    1.946690    0.306540
  C      0.657070    1.123220    0.415860
  C      4.632240   -0.440240    0.392630
  C      5.275170    0.909570    0.210480
  C      4.314260    1.908620    0.191950
  C     -0.812630    1.501760    0.421450
  C     -1.455080    0.151820    0.603770
  C     -0.492750   -0.844600    0.652660
  C      5.170160   -1.030490    1.684180
  C      4.830420   -1.371850   -0.789320
  C     -1.061920    2.466480    1.563890
  C     -1.307100    2.040050   -0.911360
  C     -2.762170   -0.325710    0.667440
  C     -2.865940   -1.728090    0.776680
  Se    -1.188040   -2.572060    0.805010
  S     -4.313170    0.411250    0.649680
  C     -5.099840   -1.160450    0.728100
  C     -4.173150   -2.190250    0.802060
  C      6.583290    1.372510    0.082160
  C      6.685630    2.776060   -0.052450
  Se     5.007850    3.633870   -0.004010
  S      8.121400    0.605740    0.030760
  C      8.912040    2.163630   -0.178260
  C      7.986210    3.212390   -0.198290
  C      4.496170   -0.881870    2.887470
  C      5.041700   -1.376750    4.058740
  C      6.274790   -2.013690    4.060280
  C      6.948880   -2.149470    2.852870
  C      6.406940   -1.664540    1.678980
  C      4.634900   -2.738450   -0.635050
  C      4.760370   -3.590400   -1.715380
  C      5.081020   -3.103010   -2.975960
  C      5.265550   -1.735570   -3.125880
  C      5.138340   -0.878050   -2.048690
  C     -1.441570    2.012160    2.818600
  C     -1.621490    2.902240    3.861570
  C     -1.420230    4.263680    3.681390
  C     -1.027260    4.711600    2.426520
  C     -0.848860    3.827140    1.380460
  C     -0.615040    1.799480   -2.089520
  C     -1.126750    2.230860   -3.299670
  C     -2.342990    2.896610   -3.366120
  C     -3.033600    3.128140   -2.183420
  C     -2.526670    2.702790   -0.970870
  C     -6.505820   -1.209020    0.770660
  C     -7.348530   -2.263460    0.557630
  C     -7.171680   -3.561760   -0.050150
  C     -8.302120   -4.391710    0.366940
  C     -9.250780   -3.575380    1.008810
  C     -8.733920   -2.190750    1.089690
  C     -8.551530   -5.743200    0.203340
  C     -9.751630   -6.260360    0.680020
  C    -10.697280   -5.439450    1.303980
  C    -10.446770   -4.082790    1.472680
  Cl   -12.174750   -6.108570    1.867910
  Cl   -10.067330   -7.937770    0.494510
  O     -9.293540   -1.214510    1.531780
  C     -6.279750   -3.893440   -1.038120
  C     -6.215940   -5.162670   -1.648060
  C     -5.378760   -2.979670   -1.620460
  N     -6.101590   -6.185140   -2.156980
  N     -4.657430   -2.263160   -2.153350
  C      6.847730   -2.584500    5.325340
  C      6.447780   -4.053460    5.478210
  C      5.170300   -4.025920   -4.156530
  C      3.798320   -4.180710   -4.816180
  C     -1.570240    5.222870    4.826400
  C     -0.236320    5.393760    5.556360
  C     -2.878230    3.392030   -4.678110
  C     -2.385800    4.813970   -4.955170
  C     10.286360    2.392200   -0.318040
  C     11.344010    1.514940   -0.312410
  C     12.739390    1.874100   -0.472560
  C     13.522100    0.642440   -0.366090
  C     12.644550   -0.435660   -0.160150
  C     11.255200    0.063320   -0.124600
  C     14.885780    0.410290   -0.433370
  C     15.348550   -0.894250   -0.293310
  C     14.465970   -1.960000   -0.088970
  C     13.097260   -1.731160   -0.021450
  Cl    15.072450   -3.557640    0.080180
  Cl    17.038220   -1.189740   -0.374320
  O     10.255330   -0.612950    0.032540
  C     13.264230    3.121470   -0.693460
  C     14.642840    3.384390   -0.842240
  C     12.530380    4.320540   -0.811390
  N     12.015980    5.341930   -0.922350
  N     15.746450    3.672320   -0.971740
  H      2.162510   -1.951310    0.660560
  H      1.659900    3.017940    0.204160
  H     -4.444680   -3.224970    0.916190
  H      8.281580    4.240510   -0.316640
  H      3.540620   -0.378030    2.914690
  H      4.501160   -1.257370    4.987080
  H      7.913880   -2.634160    2.829760
  H      6.947650   -1.782180    0.751670
  H      4.396810   -3.139600    0.339500
  H      4.609890   -4.651560   -1.576780
  H      5.513390   -1.334120   -4.098160
  H      5.281980    0.182960   -2.194050
  H     -1.600190    0.956450    2.986160
  H     -1.925080    2.531560    4.830240
  H     -0.862760    5.767400    2.265030
  H     -0.556770    4.197440    0.408450
  H      0.326630    1.270250   -2.066030
  H     -0.574730    2.036290   -4.208020
  H     -3.984730    3.639860   -2.211340
  H     -3.080180    2.889780   -0.061870
  H     -7.000210   -0.294830    1.085870
  H     -7.843720   -6.403960   -0.270270
  H    -11.168410   -3.440800    1.952460
  H      6.482710   -2.020420    6.185960
  H      7.936760   -2.509360    5.303580
  H      5.364770   -4.148510    5.516570
  H      6.865670   -4.468720    6.392310
  H      6.812470   -4.634240    4.633930
  H      5.527220   -5.006170   -3.834540
  H      5.877660   -3.626980   -4.886180
  H      3.080860   -4.587880   -4.107230
  H      3.860360   -4.849950   -5.670990
  H      3.430830   -3.215070   -5.156450
  H     -2.319030    4.849350    5.527570
  H     -1.903590    6.193870    4.454940
  H      0.107410    4.437760    5.945200
  H     -0.342810    6.088590    6.385990
  H      0.520870    5.777580    4.876250
  H     -3.969610    3.386730   -4.657180
  H     -2.548480    2.733510   -5.483880
  H     -2.718750    5.489610   -4.170380
  H     -2.771040    5.170950   -5.907380
  H     -1.298810    4.838170   -4.989050
  H     10.527740    3.440310   -0.447700
  H     15.597960    1.203570   -0.589400
  H     12.404310   -2.542590    0.135080

----------------------------
CARTESIAN COORDINATES (A.U.)
----------------------------
  NO LB      ZA    FRAG     MASS         X           Y           Z
   0 C     6.0000    0    12.011    1.540826   -0.521319    1.043658
   1 C     6.0000    0    12.011    3.911846   -1.661825    1.066883
   2 C     6.0000    0    12.011    5.981777   -0.107261    0.845766
   3 C     6.0000    0    12.011    5.683143    2.537997    0.601084
   4 C     6.0000    0    12.011    3.311216    3.678711    0.579277
   5 C     6.0000    0    12.011    1.241682    2.122578    0.785862
   6 C     6.0000    0    12.011    8.753665   -0.831933    0.741963
   7 C     6.0000    0    12.011    9.968627    1.718838    0.397750
   8 C     6.0000    0    12.011    8.152770    3.606769    0.362733
   9 C     6.0000    0    12.011   -1.535648    2.837915    0.796425
  10 C     6.0000    0    12.011   -2.749703    0.286898    1.140960
  11 C     6.0000    0    12.011   -0.931163   -1.596063    1.233349
  12 C     6.0000    0    12.011    9.770186   -1.947344    3.182639
  13 C     6.0000    0    12.011    9.128171   -2.592421   -1.491599
  14 C     6.0000    0    12.011   -2.006738    4.660972    2.955324
  15 C     6.0000    0    12.011   -2.470061    3.855136   -1.722221
  16 C     6.0000    0    12.011   -5.219745   -0.615503    1.261279
  17 C     6.0000    0    12.011   -5.415842   -3.265617    1.467712
  18 Se   34.0000    0    78.960   -2.245070   -4.860489    1.521248
  19 S    16.0000    0    32.060   -8.150710    0.777150    1.227717
  20 C     6.0000    0    12.011   -9.637301   -2.192933    1.375910
  21 C     6.0000    0    12.011   -7.886111   -4.138973    1.515674
  22 C     6.0000    0    12.011   12.440615    2.593668    0.155260
  23 C     6.0000    0    12.011   12.634010    5.245993   -0.099116
  24 Se   34.0000    0    78.960    9.463465    6.867019   -0.007578
  25 S    16.0000    0    32.060   15.347222    1.144683    0.058128
  26 C     6.0000    0    12.011   16.841315    4.088668   -0.336863
  27 C     6.0000    0    12.011   15.091750    6.070537   -0.374714
  28 C     6.0000    0    12.011    8.496530   -1.666493    5.456528
  29 C     6.0000    0    12.011    9.527432   -2.601680    7.669907
  30 C     6.0000    0    12.011   11.857635   -3.805323    7.672817
  31 C     6.0000    0    12.011   13.131480   -4.061910    5.391143
  32 C     6.0000    0    12.011   12.107362   -3.145525    3.172812
  33 C     6.0000    0    12.011    8.758692   -5.174921   -1.200071
  34 C     6.0000    0    12.011    8.995796   -6.784873   -3.241598
  35 C     6.0000    0    12.011    9.601736   -5.863839   -5.623749
  36 C     6.0000    0    12.011    9.950447   -3.279752   -5.907057
  37 C     6.0000    0    12.011    9.710055   -1.659274   -3.871463
  38 C     6.0000    0    12.011   -2.724173    3.802431    5.326382
  39 C     6.0000    0    12.011   -3.064172    5.484439    7.297310
  40 C     6.0000    0    12.011   -2.683846    8.057188    6.956819
  41 C     6.0000    0    12.011   -1.941240    8.903634    4.585458
  42 C     6.0000    0    12.011   -1.604113    7.232246    2.608691
  43 C     6.0000    0    12.011   -1.162257    3.400524   -3.948621
  44 C     6.0000    0    12.011   -2.129249    4.215714   -6.235473
  45 C     6.0000    0    12.011   -4.427609    5.473800   -6.361045
  46 C     6.0000    0    12.011   -5.732673    5.911328   -4.126066
  47 C     6.0000    0    12.011   -4.774714    5.107533   -1.834678
  48 C     6.0000    0    12.011  -12.294218   -2.284717    1.456336
  49 C     6.0000    0    12.011  -13.886709   -4.277320    1.053768
  50 C     6.0000    0    12.011  -13.552511   -6.730751   -0.094770
  51 C     6.0000    0    12.011  -15.688733   -8.299129    0.693416
  52 C     6.0000    0    12.011  -17.481441   -6.756489    1.906375
  53 C     6.0000    0    12.011  -16.504717   -4.139918    2.059216
  54 C     6.0000    0    12.011  -16.160050  -10.853075    0.384257
  55 C     6.0000    0    12.011  -18.427910  -11.830366    1.285052
  56 C     6.0000    0    12.011  -20.214930  -10.279071    2.464165
  57 C     6.0000    0    12.011  -19.741534   -7.715355    2.782962
  58 Cl   17.0000    0    35.453  -23.006943  -11.543524    3.529838
  59 Cl   17.0000    0    35.453  -19.024497  -15.000211    0.934488
  60 O     8.0000    0    15.999  -17.562245   -2.295091    2.894645
  61 C     6.0000    0    12.011  -11.867008   -7.357535   -1.961762
  62 C     6.0000    0    12.011  -11.746424   -9.756032   -3.114382
  63 C     6.0000    0    12.011  -10.164383   -5.630760   -3.062226
  64 N     7.0000    0    14.007  -11.530334  -11.688221   -4.076101
  65 N     7.0000    0    14.007   -8.801267   -4.276753   -4.069242
  66 C     6.0000    0    12.011   12.940334   -4.883997   10.063434
  67 C     6.0000    0    12.011   12.184538   -7.659929   10.352317
  68 C     6.0000    0    12.011    9.770451   -7.607886   -7.854703
  69 C     6.0000    0    12.011    7.177785   -7.900397   -9.101261
  70 C     6.0000    0    12.011   -2.967324    9.869794    9.120574
  71 C     6.0000    0    12.011   -0.446580   10.192729   10.499999
  72 C     6.0000    0    12.011   -5.439066    6.410008   -8.840347
  73 C     6.0000    0    12.011   -4.508509    9.097085   -9.363914
  74 C     6.0000    0    12.011   19.438403    4.520603   -0.601008
  75 C     6.0000    0    12.011   21.437072    2.862822   -0.590369
  76 C     6.0000    0    12.011   24.073958    3.541536   -0.893009
  77 C     6.0000    0    12.011   25.553066    1.214036   -0.691810
  78 C     6.0000    0    12.011   23.894737   -0.823278   -0.302640
  79 C     6.0000    0    12.011   21.269246    0.119657   -0.235460
  80 C     6.0000    0    12.011   28.130047    0.775336   -0.818951
  81 C     6.0000    0    12.011   29.004556   -1.689888   -0.554276
  82 C     6.0000    0    12.011   27.336722   -3.703863   -0.168129
  83 C     6.0000    0    12.011   24.750235   -3.271418   -0.040535
  84 Cl   17.0000    0    35.453   28.482803   -6.722965    0.151518
  85 Cl   17.0000    0    35.453   32.197570   -2.248283   -0.707362
  86 O     8.0000    0    15.999   19.379765   -1.158308    0.061492
  87 C     6.0000    0    12.011   25.065762    5.898723   -1.310449
  88 C     6.0000    0    12.011   27.670957    6.395570   -1.591603
  89 C     6.0000    0    12.011   23.678987    8.164637   -1.533305
  90 N     7.0000    0    14.007   22.706911   10.094785   -1.742989
  91 N     7.0000    0    14.007   29.756478    6.939679   -1.836322
  92 H     1.0000    0     1.008    4.086552   -3.687442    1.248277
  93 H     1.0000    0     1.008    3.136756    5.703080    0.385806
  94 H     1.0000    0     1.008   -8.399228   -6.094310    1.731348
  95 H     1.0000    0     1.008   15.649918    8.013403   -0.598363
  96 H     1.0000    0     1.008    6.690802   -0.714373    5.507966
  97 H     1.0000    0     1.008    8.505960   -2.376085    9.424215
  98 H     1.0000    0     1.008   14.955066   -4.977841    5.347471
  99 H     1.0000    0     1.008   13.129156   -3.367832    1.420450
 100 H     1.0000    0     1.008    8.308767   -5.932984    0.641562
 101 H     1.0000    0     1.008    8.711430   -8.790174   -2.979682
 102 H     1.0000    0     1.008   10.418797   -2.521121   -7.744400
 103 H     1.0000    0     1.008    9.981496    0.345744   -4.146154
 104 H     1.0000    0     1.008   -3.023921    1.807429    5.643025
 105 H     1.0000    0     1.008   -3.637874    4.783955    9.127831
 106 H     1.0000    0     1.008   -1.630380   10.898807    4.280286
 107 H     1.0000    0     1.008   -1.052143    7.932012    0.771859
 108 H     1.0000    0     1.008    0.617241    2.400425   -3.904231
 109 H     1.0000    0     1.008   -1.086082    3.848030   -7.952005
 110 H     1.0000    0     1.008   -7.530048    6.878339   -4.178827
 111 H     1.0000    0     1.008   -5.820697    5.460893   -0.116917
 112 H     1.0000    0     1.008  -13.228480   -0.557148    2.051997
 113 H     1.0000    0     1.008  -14.822483  -12.101731   -0.510736
 114 H     1.0000    0     1.008  -21.105236   -6.502170    3.689615
 115 H     1.0000    0     1.008   12.250547   -3.818040   11.689770
 116 H     1.0000    0     1.008   14.998303   -4.742003   10.022314
 117 H     1.0000    0     1.008   10.137946   -7.839548   10.424806
 118 H     1.0000    0     1.008   12.974236   -8.444657   12.079715
 119 H     1.0000    0     1.008   12.873703   -8.757444    8.756859
 120 H     1.0000    0     1.008   10.444932   -9.460290   -7.246230
 121 H     1.0000    0     1.008   11.107168   -6.853999   -9.233542
 122 H     1.0000    0     1.008    5.821982   -8.669837   -7.761540
 123 H     1.0000    0     1.008    7.295023   -9.165077  -10.716618
 124 H     1.0000    0     1.008    6.483329   -6.075602   -9.744278
 125 H     1.0000    0     1.008   -4.382332    9.163943   10.445593
 126 H     1.0000    0     1.008   -3.597264   11.704718    8.418617
 127 H     1.0000    0     1.008    0.202975    8.386151   11.234800
 128 H     1.0000    0     1.008   -0.647817   11.505768   12.067772
 129 H     1.0000    0     1.008    0.984302   10.918044    9.214777
 130 H     1.0000    0     1.008   -7.501476    6.399992   -8.800795
 131 H     1.0000    0     1.008   -4.815929    5.165585  -10.363031
 132 H     1.0000    0     1.008   -5.137693   10.373859   -7.880876
 133 H     1.0000    0     1.008   -5.236507    9.771679  -11.163330
 134 H     1.0000    0     1.008   -2.454395    9.142816   -9.427938
 135 H     1.0000    0     1.008   19.894545    6.501244   -0.846030
 136 H     1.0000    0     1.008   29.475873    2.274418   -1.113805
 137 H     1.0000    0     1.008   23.440749   -4.804799    0.255264

--------------------------------
INTERNAL COORDINATES (ANGSTROEM)
--------------------------------
 C      0   0   0     0.000000000000     0.00000000     0.00000000
 C      1   0   0     1.392352865153     0.00000000     0.00000000
 C      2   1   0     1.374860516307   117.24688117     0.00000000
 C      3   2   1     1.414640091119   120.72120078   359.87678357
 C      4   3   2     1.392826676259   122.02415723     0.16507755
 C      5   4   3     1.374557101688   117.23821070   359.47837097
 C      3   2   1     1.517114078670   128.47205549   181.86297744
 C      7   3   2     1.506162223501   100.98571085   177.91253776
 C      8   7   3     1.386287232683   110.58443524     1.02392039
 C      6   5   4     1.517676470695   128.49257484   180.47662849
 C     10   6   5     1.506094481930   100.95090653   181.37808970
 C     11  10   6     1.386117627548   110.63691341   358.40843470
 C      7   3   2     1.518503997822   114.20213769   292.89247691
 C      7   3   2     1.517952010770   108.03232382    58.45102085
 C     10   6   5     1.515915345954   108.70863649   301.73510957
 C     10   6   5     1.520078682536   113.58471977    67.73868285
 C     11  10   6     1.393044521148   135.48228563   182.20963057
 C     17  11  10     1.410450727569   114.41903600   176.43473358
 Se    12  11  10     1.868356699937   114.15204368   182.44912636
 S     17  11  10     1.717272971662   134.41623634   356.14480060
 C     20  17  11     1.759329495944    91.14651208   178.31623715
 C     18  17  11     1.386735012214   113.71175337   181.67006596
 C      8   7   3     1.393541316359   135.19870637   179.73983318
 C     23   8   7     1.413699377591   113.98773371   180.90327261
 Se     9   8   7     1.869747301696   114.15738557   179.11758808
 S     23   8   7     1.719407038778   133.97384959     1.82209159
 C     26  23   8     1.759494876975    90.61158071   178.88288577
 C     24  23   8     1.379551199086   113.09937014   180.91721184
 C     13   7   3     1.387175997702   121.60296072   343.04744459
 C     29  13   7     1.383612159603   120.29308272   183.03232542
 C     30  29  13     1.387878194691   121.02368160     0.82559796
 C     31  30  29     1.389486395975   118.35360882   359.69035162
 C     32  31  30     1.380896013681   120.92980065   359.94658305
 C     14   7   3     1.389108657845   119.92944490   273.19157269
 C     34  14   7     1.381547839309   120.46720644   177.42306155
 C     35  34  14     1.389038289969   120.94681272   359.88083044
 C     36  35  34     1.387955143692   118.32115839   359.65254470
 C     37  36  35     1.382700701743   120.97275006     0.20503316
 C     15  10   6     1.387385299403   121.20921306   268.55388321
 C     39  15  10     1.382895525230   120.45782013   177.82700855
 C     40  39  15     1.387980292944   120.96786436   359.62804802
 C     41  40  39     1.389156745727   118.33064337   359.73407891
 C     42  41  40     1.381425920996   120.93874829     0.40488658
 C     16  10   6     1.387401151110   121.39287655    19.41183634
 C     44  16  10     1.382895097612   120.29437114   176.09873588
 C     45  44  16     1.388120456805   121.04485721   359.27458712
 C     46  45  44     1.389002376888   118.34751291     0.39635473
 C     47  46  45     1.381368216624   120.90580783   359.76163915
 C     21  20  17     1.407462311716   118.61015584   178.77446215
 C     49  21  20     1.366523193583   129.63884285   164.87940094
 C     50  49  21     1.444387531413   133.13114723   343.97559084
 C     51  50  49     1.463104802876   107.17700816   163.29858812
 C     52  51  50     1.406537436900   108.78274696     9.77858404
 C     53  52  51     1.480164204033   109.41099067   357.20088398
 C     52  51  50     1.384014280345   131.25860740   188.31755058
 C     55  52  51     1.391013406837   118.55592626   181.86120369
 C     56  55  52     1.399097291899   121.18612886     0.46599756
 C     53  52  51     1.379504391113   121.64908339   177.90478545
 Cl    57  56  55     1.717165169749   119.95901542   179.44193858
 Cl    56  55  52     1.716911400801   119.00238659   180.48995734
 O     54  53  52     1.208992411101   127.85839707   177.18774770
 C     51  50  49     1.371727184319   126.87145152   331.35048902
 C     62  51  50     1.409625238352   123.97239017   184.18629451
 C     62  51  50     1.409212002716   123.81874705   359.94353331
 N     63  62  51     1.147832910227   176.77822806   206.82848309
 N     64  62  51     1.147900388144   176.70428074   220.39406021
 C     31  30  29     1.501486298073   120.95923675   181.74519605
 C     67  31  30     1.530089121914   110.45128954    92.04860922
 C     36  35  34     1.501159322457   120.77819116   182.10794969
 C     69  36  35     1.530172273635   110.35871861    87.91753457
 C     41  40  39     1.501198306787   120.87913606   182.11546582
 C     71  41  40     1.530159325070   110.37155026    89.66995771
 C     46  45  44     1.501079809371   120.83376725   178.51169003
 C     73  46  45     1.530085916575   110.50105320   270.50678221
 C     27  26  23     1.400192185273   126.68747817   180.42464945
 C     75  27  26     1.374132572571   130.60491594   359.00553913
 C     76  75  27     1.449734207536   125.60645309   179.77999857
 C     77  76  75     1.463200998018   107.35535798   178.45824383
 C     78  77  76     1.405277515689   108.80789114     0.48973712
 C     76  75  27     1.466410732571   125.86526609   358.83745404
 C     78  77  76     1.384934425632   131.62751669   180.51136859
 C     81  78  77     1.391257520411   118.67291903   179.95431223
 C     82  81  78     1.398758504711   121.28278439     0.03784633
 C     79  78  77     1.379312975398   122.02841126   179.99880733
 Cl    83  82  81     1.717231283928   120.02715869   180.01737731
 Cl    82  81  78     1.717224990821   118.93972433   180.04942165
 O     80  76  75     1.217281442149   128.04159823     1.38118426
 C     77  76  75     1.371198655374   127.70347265   358.02486494
 C     88  77  76     1.411321347851   124.07940874   180.18538032
 C     88  77  76     1.410748798440   125.98386155   359.91720072
 N     90  88  77     1.148980858718   175.22435133   181.22036095
 N     89  88  77     1.147880205858   176.17404153   180.51050141
 H      2   1   3     1.080163011170   120.53467738   180.13281188
 H      5   4   3     1.080083889936   120.50808047   180.13616399
 H     22  18  17     1.075825114133   124.08335153   182.25420684
 H     28  24  23     1.076234590505   124.92518854   179.89164500
 H     29  13   7     1.080588486196   120.09636170     3.03231272
 H     30  29  13     1.080856249276   119.36647886   180.33015134
 H     32  31  30     1.080131227305   119.72695518   179.49075229
 H     33  32  31     1.079865875838   119.68501047   180.08092286
 H     34  14   7     1.080442443215   119.76579855   356.55133537
 H     35  34  14     1.080701039141   119.51025773   179.68643589
 H     37  36  35     1.080701238317   119.58073736   180.13815318
 H     38  37  36     1.080511082451   119.46881632   180.32966709
 H     39  15  10     1.080629567474   120.02050725   357.74224426
 H     40  39  15     1.080690575234   119.45871619   179.51058805
 H     42  41  40     1.080672434228   119.54248683   180.14468081
 H     43  42  41     1.080389789937   119.78456889   179.11693731
 H     44  16  10     1.080452942936   120.08049954   356.29973901
 H     45  44  16     1.080593951399   119.36703834   179.93940868
 H     47  46  45     1.080409719366   119.64668691   180.32168385
 H     48  47  46     1.080564472949   119.81190238   180.17883758
 H     49  21  20     1.086058088824   115.75119511   340.10860477
 H     55  52  51     1.077917068146   122.15396109     2.49592221
 H     58  53  52     1.078473132767   120.71402430   180.72037813
 H     67  31  30     1.091829946100   109.88556526   331.43430302
 H     67  31  30     1.091836003299   109.73357464   212.48355465
 H     68  67  31     1.087849554028   110.34264770   299.93672449
 H     68  67  31     1.087497921699   110.49520480   179.77606442
 H     68  67  31     1.087709944287   110.32999605    59.61172570
 H     69  36  35     1.091768981516   109.84654616   327.41932030
 H     69  36  35     1.091741918083   109.84533701   208.44119056
 H     70  69  36     1.087725315969   110.38317784   300.25833269
 H     70  69  36     1.087396558437   110.48669073   180.07250826
 H     70  69  36     1.087792803157   110.36235476    59.89252280
 H     71  41  40     1.091715633029   109.86483863   329.12887007
 H     71  41  40     1.091762682134   109.83264877   210.14628426
 H     72  71  41     1.087788057712   110.35522949   300.15804259
 H     72  71  41     1.087388976356   110.48472865   179.97791652
 H     72  71  41     1.087751856169   110.36304768    59.79733108
 H     73  46  45     1.091593541251   109.76354959   149.94746280
 H     73  46  45     1.091626742893   109.77623489    31.07296228
 H     74  73  46     1.087768567389   110.36969972   299.94767825
 H     74  73  46     1.087450441216   110.46369133   179.80069221
 H     74  73  46     1.087787090611   110.35953972    59.65922559
 H     75  27  26     1.083333093790   112.86603366   179.18947439
 H     81  78  77     1.077422327456   122.30838426     0.00000000
 H     84  79  78     1.078471134662   120.68903295   180.04967124

---------------------------
INTERNAL COORDINATES (A.U.)
---------------------------
 C      0   0   0     0.000000000000     0.00000000     0.00000000
 C      1   0   0     2.631165596920     0.00000000     0.00000000
 C      2   1   0     2.598109848162   117.24688117     0.00000000
 C      3   2   1     2.673282350280   120.72120078   359.87678357
 C      4   3   2     2.632060970150   122.02415723     0.16507755
 C      5   4   3     2.597536477626   117.23821070   359.47837097
 C      3   2   1     2.866930122603   128.47205549   181.86297744
 C      7   3   2     2.846234115674   100.98571085   177.91253776
 C      8   7   3     2.619703212723   110.58443524     1.02392039
 C      6   5   4     2.867992889509   128.49257484   180.47662849
 C     10   6   5     2.846106102658   100.95090653   181.37808970
 C     11  10   6     2.619382705467   110.63691341   358.40843470
 C      7   3   2     2.869556689147   114.20213769   292.89247691
 C      7   3   2     2.868513584790   108.03232382    58.45102085
 C     10   6   5     2.864664846062   108.70863649   301.73510957
 C     10   6   5     2.872532412005   113.58471977    67.73868285
 C     11  10   6     2.632472637329   135.48228563   182.20963057
 C     17  11  10     2.665365600495   114.41903600   176.43473358
 Se    12  11  10     3.530682483358   114.15204368   182.44912636
 S     17  11  10     3.245175613626   134.41623634   356.14480060
 C     20  17  11     3.324650926665    91.14651208   178.31623715
 C     18  17  11     2.620549393404   113.71175337   181.67006596
 C      8   7   3     2.633411444223   135.19870637   179.73983318
 C     23   8   7     2.671504659341   113.98773371   180.90327261
 Se     9   8   7     3.533310339844   114.15738557   179.11758808
 S     23   8   7     3.249208416027   133.97384959     1.82209159
 C     26  23   8     3.324963451520    90.61158071   178.88288577
 C     24  23   8     2.606973953995   113.09937014   180.91721184
 C     13   7   3     2.621382735205   121.60296072   343.04744459
 C     29  13   7     2.614648057212   120.29308272   183.03232542
 C     30  29  13     2.622709695208   121.02368160     0.82559796
 C     31  30  29     2.625748755202   118.35360882   359.69035162
 C     32  31  30     2.609515285281   120.92980065   359.94658305
 C     14   7   3     2.625034933586   119.92944490   273.19157269
 C     34  14   7     2.610747057205   120.46720644   177.42306155
 C     35  34  14     2.624901957572   120.94681272   359.88083044
 C     36  35  34     2.622855107744   118.32115839   359.65254470
 C     37  36  35     2.612925651475   120.97275006     0.20503316
 C     15  10   6     2.621778258100   121.20921306   268.55388321
 C     39  15  10     2.613293814509   120.45782013   177.82700855
 C     40  39  15     2.622902632943   120.96786436   359.62804802
 C     41  40  39     2.625125806514   118.33064337   359.73407891
 C     42  41  40     2.610516664983   120.93874829     0.40488658
 C     16  10   6     2.621808213484   121.39287655    19.41183634
 C     44  16  10     2.613293006429   120.29437114   176.09873588
 C     45  44  16     2.623167504255   121.04485721   359.27458712
 C     46  45  44     2.624834091684   118.34751291     0.39635473
 C     47  46  45     2.610407619523   120.90580783   359.76163915
 C     21  20  17     2.659718312958   118.61015584   178.77446215
 C     49  21  20     2.582354591523   129.63884285   164.87940094
 C     50  49  21     2.729496865620   133.13114723   343.97559084
 C     51  50  49     2.764867382661   107.17700816   163.29858812
 C     52  51  50     2.657970552848   108.78274696     9.77858404
 C     53  52  51     2.797104978855   109.41099067   357.20088398
 C     52  51  50     2.615407955289   131.25860740   188.31755058
 C     55  52  51     2.628634387535   118.55592626   181.86120369
 C     56  55  52     2.643910716401   121.18612886     0.46599756
 C     53  52  51     2.606885499745   121.64908339   177.90478545
 Cl    57  56  55     3.244971897534   119.95901542   179.44193858
 Cl    56  55  52     3.244492343721   119.00238659   180.48995734
 O     54  53  52     2.284664554970   127.85839707   177.18774770
 C     51  50  49     2.592188708818   126.87145152   331.35048902
 C     62  51  50     2.663805651949   123.97239017   184.18629451
 C     62  51  50     2.663024749769   123.81874705   359.94353331
 N     63  62  51     2.169089847831   176.77822806   206.82848309
 N     64  62  51     2.169217362613   176.70428074   220.39406021
 C     31  30  29     2.837397897193   120.95923675   181.74519605
 C     67  31  30     2.891449400910   110.45128954    92.04860922
 C     36  35  34     2.836780002827   120.77819116   182.10794969
 C     69  36  35     2.891606534889   110.35871861    87.91753457
 C     41  40  39     2.836853672534   120.87913606   182.11546582
 C     71  41  40     2.891582065649   110.37155026    89.66995771
 C     46  45  44     2.836629744869   120.83376725   178.51169003
 C     73  46  45     2.891443343696   110.50105320   270.50678221
 C     27  26  23     2.645979765023   126.68747817   180.42464945
 C     75  27  26     2.596734233859   130.60491594   359.00553913
 C     76  75  27     2.739600619220   125.60645309   179.77999857
 C     77  76  75     2.765049165134   107.35535798   178.45824383
 C     78  77  76     2.655589646809   108.80789114     0.48973712
 C     76  75  27     2.771114684402   125.86526609   358.83745404
 C     78  77  76     2.617146777884   131.62751669   180.51136859
 C     81  78  77     2.629095695335   118.67291903   179.95431223
 C     82  81  78     2.643270501396   121.28278439     0.03784633
 C     79  78  77     2.606523776465   122.02841126   179.99880733
 Cl    83  82  81     3.245096835225   120.02715869   180.01737731
 Cl    82  81  78     3.245084942977   118.93972433   180.04942165
 O     80  76  75     2.300328553566   128.04159823     1.38118426
 C     77  76  75     2.591189933858   127.70347265   358.02486494
 C     88  77  76     2.667010834395   124.07940874   180.18538032
 C     88  77  76     2.665928872810   125.98386155   359.91720072
 N     90  88  77     2.171259156094   175.22435133   181.22036095
 N     89  88  77     2.169179223620   176.17404153   180.51050141
 H      2   1   3     2.041212271103   120.53467738   180.13281188
 H      5   4   3     2.041062753640   120.50808047   180.13616399
 H     22  18  17     2.033014833707   124.08335153   182.25420684
 H     28  24  23     2.033788631908   124.92518854   179.89164500
 H     29  13   7     2.042016302380   120.09636170     3.03231272
 H     30  29  13     2.042522301270   119.36647886   180.33015134
 H     32  31  30     2.041152208303   119.72695518   179.49075229
 H     33  32  31     2.040650766701   119.68501047   180.08092286
 H     34  14   7     2.041740321141   119.76579855   356.55133537
 H     35  34  14     2.042228996620   119.51025773   179.68643589
 H     37  36  35     2.042229373009   119.58073736   180.13815318
 H     38  37  36     2.041870030500   119.46881632   180.32966709
 H     39  15  10     2.042093934744   120.02050725   357.74224426
 H     40  39  15     2.042209222702   119.45871619   179.51058805
 H     42  41  40     2.042174941169   119.54248683   180.14468081
 H     43  42  41     2.041640820866   119.78456889   179.11693731
 H     44  16  10     2.041760162739   120.08049954   356.29973901
 H     45  44  16     2.042026630116   119.36703834   179.93940868
 H     47  46  45     2.041678482028   119.64668691   180.32168385
 H     48  47  46     2.041970923919   119.81190238   180.17883758
 H     49  21  20     2.052352353407   115.75119511   340.10860477
 H     55  52  51     2.036968053875   122.15396109     2.49592221
 H     58  53  52     2.038018863721   120.71402430   180.72037813
 H     67  31  30     2.063259582942   109.88556526   331.43430302
 H     67  31  30     2.063271029390   109.73357464   212.48355465
 H     68  67  31     2.055737732022   110.34264770   299.93672449
 H     68  67  31     2.055073243220   110.49520480   179.77606442
 H     68  67  31     2.055473907844   110.32999605    59.61172570
 H     69  36  35     2.063144376575   109.84654616   327.41932030
 H     69  36  35     2.063093234099   109.84533701   208.44119056
 H     70  69  36     2.055502956114   110.38317784   300.25833269
 H     70  69  36     2.054881694414   110.48669073   180.07250826
 H     70  69  36     2.055630488417   110.36235476    59.89252280
 H     71  41  40     2.063043562545   109.86483863   329.12887007
 H     71  41  40     2.063132472468   109.83264877   210.14628426
 H     72  71  41     2.055621520825   110.35522949   300.15804259
 H     72  71  41     2.054867366357   110.48472865   179.97791652
 H     72  71  41     2.055553109825   110.36304768    59.79733108
 H     73  46  45     2.062812842521   109.76354959   149.94746280
 H     73  46  45     2.062875584533   109.77623489    31.07296228
 H     74  73  46     2.055584689453   110.36969972   299.94767825
 H     74  73  46     2.054983518109   110.46369133   179.80069221
 H     74  73  46     2.055619693270   110.35953972    59.65922559
 H     75  27  26     2.047202859076   112.86603366   179.18947439
 H     81  78  77     2.036033129463   122.30838426     0.00000000
 H     84  79  78     2.038015087851   120.68903295   180.04967124

---------------------
BASIS SET INFORMATION
---------------------
There are 7 groups of distinct atoms

 Group   1 Type C   : 7s4p1d contracted to 3s2p1d pattern {511/31/1}
 Group   2 Type Se  : 14s10p6d contracted to 5s4p3d pattern {63311/5311/411}
 Group   3 Type S   : 10s7p1d contracted to 4s3p1d pattern {5311/511/1}
 Group   4 Type Cl  : 10s7p1d contracted to 4s3p1d pattern {5311/511/1}
 Group   5 Type O   : 7s4p1d contracted to 3s2p1d pattern {511/31/1}
 Group   6 Type N   : 7s4p1d contracted to 3s2p1d pattern {511/31/1}
 Group   7 Type H   : 4s1p contracted to 2s1p pattern {31/1}

Atom   0C    basis set group =>   1
Atom   1C    basis set group =>   1
Atom   2C    basis set group =>   1
Atom   3C    basis set group =>   1
Atom   4C    basis set group =>   1
Atom   5C    basis set group =>   1
Atom   6C    basis set group =>   1
Atom   7C    basis set group =>   1
Atom   8C    basis set group =>   1
Atom   9C    basis set group =>   1
Atom  10C    basis set group =>   1
Atom  11C    basis set group =>   1
Atom  12C    basis set group =>   1
Atom  13C    basis set group =>   1
Atom  14C    basis set group =>   1
Atom  15C    basis set group =>   1
Atom  16C    basis set group =>   1
Atom  17C    basis set group =>   1
Atom  18Se   basis set group =>   2
Atom  19S    basis set group =>   3
Atom  20C    basis set group =>   1
Atom  21C    basis set group =>   1
Atom  22C    basis set group =>   1
Atom  23C    basis set group =>   1
Atom  24Se   basis set group =>   2
Atom  25S    basis set group =>   3
Atom  26C    basis set group =>   1
Atom  27C    basis set group =>   1
Atom  28C    basis set group =>   1
Atom  29C    basis set group =>   1
Atom  30C    basis set group =>   1
Atom  31C    basis set group =>   1
Atom  32C    basis set group =>   1
Atom  33C    basis set group =>   1
Atom  34C    basis set group =>   1
Atom  35C    basis set group =>   1
Atom  36C    basis set group =>   1
Atom  37C    basis set group =>   1
Atom  38C    basis set group =>   1
Atom  39C    basis set group =>   1
Atom  40C    basis set group =>   1
Atom  41C    basis set group =>   1
Atom  42C    basis set group =>   1
Atom  43C    basis set group =>   1
Atom  44C    basis set group =>   1
Atom  45C    basis set group =>   1
Atom  46C    basis set group =>   1
Atom  47C    basis set group =>   1
Atom  48C    basis set group =>   1
Atom  49C    basis set group =>   1
Atom  50C    basis set group =>   1
Atom  51C    basis set group =>   1
Atom  52C    basis set group =>   1
Atom  53C    basis set group =>   1
Atom  54C    basis set group =>   1
Atom  55C    basis set group =>   1
Atom  56C    basis set group =>   1
Atom  57C    basis set group =>   1
Atom  58Cl   basis set group =>   4
Atom  59Cl   basis set group =>   4
Atom  60O    basis set group =>   5
Atom  61C    basis set group =>   1
Atom  62C    basis set group =>   1
Atom  63C    basis set group =>   1
Atom  64N    basis set group =>   6
Atom  65N    basis set group =>   6
Atom  66C    basis set group =>   1
Atom  67C    basis set group =>   1
Atom  68C    basis set group =>   1
Atom  69C    basis set group =>   1
Atom  70C    basis set group =>   1
Atom  71C    basis set group =>   1
Atom  72C    basis set group =>   1
Atom  73C    basis set group =>   1
Atom  74C    basis set group =>   1
Atom  75C    basis set group =>   1
Atom  76C    basis set group =>   1
Atom  77C    basis set group =>   1
Atom  78C    basis set group =>   1
Atom  79C    basis set group =>   1
Atom  80C    basis set group =>   1
Atom  81C    basis set group =>   1
Atom  82C    basis set group =>   1
Atom  83C    basis set group =>   1
Atom  84Cl   basis set group =>   4
Atom  85Cl   basis set group =>   4
Atom  86O    basis set group =>   5
Atom  87C    basis set group =>   1
Atom  88C    basis set group =>   1
Atom  89C    basis set group =>   1
Atom  90N    basis set group =>   6
Atom  91N    basis set group =>   6
Atom  92H    basis set group =>   7
Atom  93H    basis set group =>   7
Atom  94H    basis set group =>   7
Atom  95H    basis set group =>   7
Atom  96H    basis set group =>   7
Atom  97H    basis set group =>   7
Atom  98H    basis set group =>   7
Atom  99H    basis set group =>   7
Atom 100H    basis set group =>   7
Atom 101H    basis set group =>   7
Atom 102H    basis set group =>   7
Atom 103H    basis set group =>   7
Atom 104H    basis set group =>   7
Atom 105H    basis set group =>   7
Atom 106H    basis set group =>   7
Atom 107H    basis set group =>   7
Atom 108H    basis set group =>   7
Atom 109H    basis set group =>   7
Atom 110H    basis set group =>   7
Atom 111H    basis set group =>   7
Atom 112H    basis set group =>   7
Atom 113H    basis set group =>   7
Atom 114H    basis set group =>   7
Atom 115H    basis set group =>   7
Atom 116H    basis set group =>   7
Atom 117H    basis set group =>   7
Atom 118H    basis set group =>   7
Atom 119H    basis set group =>   7
Atom 120H    basis set group =>   7
Atom 121H    basis set group =>   7
Atom 122H    basis set group =>   7
Atom 123H    basis set group =>   7
Atom 124H    basis set group =>   7
Atom 125H    basis set group =>   7
Atom 126H    basis set group =>   7
Atom 127H    basis set group =>   7
Atom 128H    basis set group =>   7
Atom 129H    basis set group =>   7
Atom 130H    basis set group =>   7
Atom 131H    basis set group =>   7
Atom 132H    basis set group =>   7
Atom 133H    basis set group =>   7
Atom 134H    basis set group =>   7
Atom 135H    basis set group =>   7
Atom 136H    basis set group =>   7
Atom 137H    basis set group =>   7
------------------------------------------------------------------------------
                           ORCA GTO INTEGRAL CALCULATION
------------------------------------------------------------------------------

                         BASIS SET STATISTICS AND STARTUP INFO

 # of primitive gaussian shells          ... 1406
 # of primitive gaussian functions       ... 2702
 # of contracted shells                  ...  714
 # of contracted basis functions         ... 1578
 Highest angular momentum                ...    2
 Maximum contraction depth               ...    6
 Integral package used                   ... LIBINT
 Integral threshhold            Thresh   ...  2.500e-11
 Primitive cut-off              TCut     ...  2.500e-12


------------------------------ INTEGRAL EVALUATION ----------------------------


 * One electron integrals 
 Pre-screening matrix                    ... done
 Shell pair data                         ... done (   0.031 sec)

-------------------------------------------------------------------------------
                                 ORCA SCF
-------------------------------------------------------------------------------

------------
SCF SETTINGS
------------
Hamiltonian:
 Ab initio Hamiltonian  Method          .... Hartree-Fock(GTOs)


General Settings:
 Integral files         IntName         .... SeTIC4Cl
 Hartree-Fock type      HFTyp           .... RHF
 Total Charge           Charge          ....    0
 Multiplicity           Mult            ....    1
 Number of Electrons    NEL             ....  726
 Basis Dimension        Dim             .... 1578
 Nuclear Repulsion      ENuc            ....  18782.9159519223 Eh

Convergence Acceleration:
 DIIS                   CNVDIIS         .... on
   Start iteration      DIISMaxIt       ....    12
   Startup error        DIISStart       ....  0.200000
   # of expansion vecs  DIISMaxEq       ....     5
   Bias factor          DIISBfac        ....   1.050
   Max. coefficient     DIISMaxC        ....  10.000
 Newton-Raphson         CNVNR           .... off
 SOSCF                  CNVSOSCF        .... on
   Start iteration      SOSCFMaxIt      ....   150
   Startup grad/error   SOSCFStart      ....  0.003300
 Level Shifting         CNVShift        .... on
   Level shift para.    LevelShift      ....    0.2500
   Turn off err/grad.   ShiftErr        ....    0.0010
 Zerner damping         CNVZerner       .... off
 Static damping         CNVDamp         .... on
   Fraction old density DampFac         ....    0.7000
   Max. Damping (<1)    DampMax         ....    0.9800
   Min. Damping (>=0)   DampMin         ....    0.0000
   Turn off err/grad.   DampErr         ....    0.1000
 Fernandez-Rico         CNVRico         .... off

SCF Procedure:
 Maximum # iterations   MaxIter         ....   125
 SCF integral mode      SCFMode         .... Direct
   Integral package                     .... LIBINT
 Reset frequency        DirectResetFreq ....    20
 Integral Threshold     Thresh          ....  2.500e-11 Eh
 Primitive CutOff       TCut            ....  2.500e-12 Eh

Convergence Tolerance:
 Convergence Check Mode ConvCheckMode   .... Total+1el-Energy
 Convergence forced     ConvForced      .... 1
 Energy Change          TolE            ....  1.000e-08 Eh
 1-El. energy change                    ....  1.000e-05 Eh
 Orbital Gradient       TolG            ....  1.000e-05
 Orbital Rotation angle TolX            ....  1.000e-05
 DIIS Error             TolErr          ....  5.000e-07


Diagonalization of the overlap matrix:
Smallest eigenvalue                        ... 1.892e-04
Time for diagonalization                   ...    1.034 sec
Threshold for overlap eigenvalues          ... 1.000e-08
Number of eigenvalues below threshold      ... 0
Time for construction of square roots      ...    0.378 sec
Total time needed                          ...    1.427 sec

-------------------
DFT GRID GENERATION
-------------------

General Integration Accuracy     IntAcc      ...  4.340
Radial Grid Type                 RadialGrid  ... Gauss-Chebyshev
Angular Grid (max. acc.)         AngularGrid ... Lebedev-110
Angular grid pruning method      GridPruning ... 3 (G Style)
Weight generation scheme         WeightScheme... Becke
Basis function cutoff            BFCut       ...    1.0000e-11
Integration weight cutoff        WCut        ...    1.0000e-14
Grids for H and He will be reduced by one unit

# of grid points (after initial pruning)     ... 192820 (   0.4 sec)
# of grid points (after weights+screening)   ... 166895 (   9.0 sec)
nearest neighbour list constructed           ...    0.0 sec
Grid point re-assignment to atoms done       ...    0.0 sec
Grid point division into batches done        ...    0.2 sec
Reduced shell lists constructed in    4.6 sec

Total number of grid points                  ...   166895
Total number of batches                      ...     2682
Average number of points per batch           ...       62
Average number of grid points per atom       ...     1209
Average number of shells per batch           ...   123.32 (17.27%)
Average number of basis functions per batch  ...   252.91 (16.03%)
Average number of large shells per batch     ...    69.69 (56.51%)
Average number of large basis fcns per batch ...   146.45 (57.90%)
Maximum spatial batch extension              ...  25.60, 20.95, 25.60 au
Average spatial batch extension              ...   3.06,  3.11,  3.42 au

Time for grid setup =   14.164 sec

------------------------------
INITIAL GUESS: MODEL POTENTIAL
------------------------------
Loading Hartree-Fock densities                     ... done
Calculating cut-offs                               ... done
Setting up the integral package                    ... done
Initializing the effective Hamiltonian             ... done
Starting the Coulomb interaction                   ... done (  19.7 sec)
Reading the grid                                   ... done
Mapping shells                                     ... done
Starting the XC term evaluation                    ... done (   3.5 sec)
Transforming the Hamiltonian                       ... done (   0.4 sec)
Diagonalizing the Hamiltonian                      ... done (   1.0 sec)
Back transforming the eigenvectors                 ... done (   0.1 sec)
Now organizing SCF variables                       ... done
                      ------------------
                      INITIAL GUESS DONE (  39.3 sec)
                      ------------------
--------------
SCF ITERATIONS
--------------
ITER       Energy         Delta-E        Max-DP      RMS-DP      [F,P]     Damp
               ***  Starting incremental Fock matrix formation  ***
  0 -10773.7429177072   0.000000000000 0.33834374  0.00131230  0.2385304 0.7000
  1 -10774.7413978720  -0.998480164741 0.25768387  0.00101921  0.1458553 0.7000
                               ***Turning on DIIS***
  2 -10775.3555285360  -0.614130664031 0.60493070  0.00239810  0.0854429 0.0000
  3 -10771.9027570039   3.452771532047 0.09076299  0.00044674  0.0479660 0.0000
  4 -10776.9641440528  -5.061387048820 0.02635391  0.00019055  0.0156572 0.0000
  5 -10776.9236615500   0.040482502729 0.01170621  0.00008909  0.0093794 0.0000
  6 -10776.6097029297   0.313958620292 0.00650906  0.00004998  0.0029478 0.0000
                      *** Initiating the SOSCF procedure ***
                           *** Shutting down DIIS ***
                      *** Re-Reading the Fockian *** 
                      *** Removing any level shift *** 
ITER      Energy       Delta-E        Grad      Rot      Max-DP    RMS-DP
  7 -10776.70361342  -0.0939104913  0.002933  0.002933  0.003518  0.000030
               *** Restarting incremental Fock matrix formation ***
  8 -10776.68471916   0.0188942602  0.001810  0.007493  0.002302  0.000019
  9 -10776.68493180  -0.0002126348  0.000739  0.007353  0.003220  0.000026
 10 -10776.68501874  -0.0000869464  0.000235  0.000720  0.000762  0.000006
 11 -10776.68502663  -0.0000078832  0.000119  0.000569  0.000260  0.000002
 12 -10776.68502877  -0.0000021441  0.000021  0.000103  0.000136  0.000001
 13 -10776.68502901  -0.0000002447  0.000022  0.000087  0.000093  0.000001
 14 -10776.68502912  -0.0000001073  0.000011  0.000084  0.000051  0.000000
 15 -10776.68502916  -0.0000000430  0.000007  0.000064  0.000027  0.000000
 16 -10776.68502916   0.0000000021  0.000004  0.000047  0.000016  0.000000
                  ***Gradient check signals convergence***
              ***Rediagonalizing the Fockian in SOSCF/NRSCF***

               *****************************************************
               *                     SUCCESS                       *
               *           SCF CONVERGED AFTER  17 CYCLES          *
               *****************************************************


----------------
TOTAL SCF ENERGY
----------------

Total Energy       :       -10776.68502911 Eh         -293248.50811 eV

Components:
Nuclear Repulsion  :        18782.91595192 Eh          511109.12734 eV
Electronic Energy  :       -29559.60098103 Eh         -804357.63545 eV
One Electron Energy:       -52330.77395397 Eh        -1423992.75368 eV
Two Electron Energy:        22771.17297294 Eh          619635.11823 eV

Virial components:
Potential Energy   :       -21540.06119226 Eh         -586134.86356 eV
Kinetic Energy     :        10763.37616314 Eh          292886.35545 eV
Virial Ratio       :            2.00123650


---------------
SCF CONVERGENCE
---------------

  Last Energy change         ...    5.0153e-08  Tolerance :   1.0000e-08
  Last MAX-Density change    ...    7.2218e-06  Tolerance :   1.0000e-07
  Last RMS-Density change    ...    5.3297e-08  Tolerance :   5.0000e-09
  Last Orbital Gradient      ...    1.1676e-06  Tolerance :   1.0000e-05
  Last Orbital Rotation      ...    1.2026e-05  Tolerance :   1.0000e-05

             **** THE GBW FILE WAS UPDATED (SeTIC4Cl.gbw) ****
             **** DENSITY FILE WAS UPDATED (SeTIC4Cl.scfp) ****
             **** ENERGY FILE WAS UPDATED (SeTIC4Cl.en.tmp) ****
             **** THE GBW FILE WAS UPDATED (SeTIC4Cl.gbw) ****
             **** DENSITY FILE WAS UPDATED (SeTIC4Cl.scfp) ****
----------------
ORBITAL ENERGIES
----------------

  NO   OCC          E(Eh)            E(eV) 
   0   2.0000    -460.837744    -12540.0325 
   1   2.0000    -460.837092    -12540.0148 
   2   2.0000    -104.823400     -2852.3897 
   3   2.0000    -104.822897     -2852.3760 
   4   2.0000    -104.822414     -2852.3629 
   5   2.0000    -104.820228     -2852.3034 
   6   2.0000     -91.980306     -2502.9114 
   7   2.0000     -91.971962     -2502.6843 
   8   2.0000     -60.665052     -1650.7800 
   9   2.0000     -60.664394     -1650.7621 
  10   2.0000     -54.281697     -1477.0801 
  11   2.0000     -54.281098     -1477.0638 
  12   2.0000     -54.281048     -1477.0624 
  13   2.0000     -54.280465     -1477.0466 
  14   2.0000     -54.280449     -1477.0461 
  15   2.0000     -54.279795     -1477.0283 
  16   2.0000     -20.569488      -559.7242 
  17   2.0000     -20.566255      -559.6362 
  18   2.0000     -15.592258      -424.2869 
  19   2.0000     -15.592126      -424.2833 
  20   2.0000     -15.589813      -424.2204 
  21   2.0000     -15.586263      -424.1238 
  22   2.0000     -11.367181      -309.3167 
  23   2.0000     -11.364511      -309.2441 
  24   2.0000     -11.345794      -308.7347 
  25   2.0000     -11.344504      -308.6996 
  26   2.0000     -11.344252      -308.6928 
  27   2.0000     -11.343752      -308.6792 
  28   2.0000     -11.342831      -308.6541 
  29   2.0000     -11.341506      -308.6181 
  30   2.0000     -11.324145      -308.1457 
  31   2.0000     -11.320710      -308.0522 
  32   2.0000     -11.320266      -308.0401 
  33   2.0000     -11.318362      -307.9883 
  34   2.0000     -11.308443      -307.7184 
  35   2.0000     -11.303305      -307.5786 
  36   2.0000     -11.302680      -307.5615 
  37   2.0000     -11.302536      -307.5576 
  38   2.0000     -11.302433      -307.5548 
  39   2.0000     -11.301976      -307.5424 
  40   2.0000     -11.299816      -307.4836 
  41   2.0000     -11.299810      -307.4835 
  42   2.0000     -11.297552      -307.4220 
  43   2.0000     -11.297434      -307.4188 
  44   2.0000     -11.296930      -307.4051 
  45   2.0000     -11.296881      -307.4038 
  46   2.0000     -11.295531      -307.3670 
  47   2.0000     -11.295522      -307.3668 
  48   2.0000     -11.295447      -307.3647 
  49   2.0000     -11.295252      -307.3594 
  50   2.0000     -11.293992      -307.3251 
  51   2.0000     -11.293237      -307.3046 
  52   2.0000     -11.292366      -307.2809 
  53   2.0000     -11.289406      -307.2003 
  54   2.0000     -11.287025      -307.1356 
  55   2.0000     -11.285162      -307.0849 
  56   2.0000     -11.282909      -307.0236 
  57   2.0000     -11.281116      -306.9748 
  58   2.0000     -11.275775      -306.8294 
  59   2.0000     -11.275337      -306.8175 
  60   2.0000     -11.274732      -306.8011 
  61   2.0000     -11.272767      -306.7476 
  62   2.0000     -11.272235      -306.7331 
  63   2.0000     -11.270438      -306.6842 
  64   2.0000     -11.269962      -306.6713 
  65   2.0000     -11.269879      -306.6690 
  66   2.0000     -11.267640      -306.6081 
  67   2.0000     -11.266541      -306.5782 
  68   2.0000     -11.255151      -306.2682 
  69   2.0000     -11.252134      -306.1861 
  70   2.0000     -11.251965      -306.1815 
  71   2.0000     -11.251411      -306.1664 
  72   2.0000     -11.246893      -306.0435 
  73   2.0000     -11.245900      -306.0165 
  74   2.0000     -11.245726      -306.0118 
  75   2.0000     -11.243304      -305.9459 
  76   2.0000     -11.242726      -305.9301 
  77   2.0000     -11.242503      -305.9241 
  78   2.0000     -11.242383      -305.9208 
  79   2.0000     -11.242366      -305.9203 
  80   2.0000     -11.241813      -305.9053 
  81   2.0000     -11.241681      -305.9017 
  82   2.0000     -11.241522      -305.8974 
  83   2.0000     -11.241451      -305.8954 
  84   2.0000     -11.240858      -305.8793 
  85   2.0000     -11.239826      -305.8512 
  86   2.0000     -11.239216      -305.8346 
  87   2.0000     -11.238631      -305.8187 
  88   2.0000     -11.238201      -305.8070 
  89   2.0000     -11.237356      -305.7840 
  90   2.0000     -11.237313      -305.7828 
  91   2.0000     -11.236618      -305.7639 
  92   2.0000     -11.236411      -305.7583 
  93   2.0000     -11.235311      -305.7284 
  94   2.0000     -11.235018      -305.7204 
  95   2.0000     -11.233263      -305.6726 
  96   2.0000     -11.229023      -305.5573 
  97   2.0000     -11.226673      -305.4933 
  98   2.0000     -11.225217      -305.4537 
  99   2.0000     -11.225094      -305.4503 
 100   2.0000     -10.587189      -288.0921 
 101   2.0000     -10.586682      -288.0783 
 102   2.0000     -10.586228      -288.0659 
 103   2.0000     -10.584034      -288.0062 
 104   2.0000      -9.015326      -245.3195 
 105   2.0000      -9.005631      -245.0557 
 106   2.0000      -8.947268      -243.4675 
 107   2.0000      -8.946565      -243.4484 
 108   2.0000      -8.062293      -219.3862 
 109   2.0000      -8.061787      -219.3724 
 110   2.0000      -8.061329      -219.3599 
 111   2.0000      -8.059135      -219.3002 
 112   2.0000      -8.058505      -219.2831 
 113   2.0000      -8.058497      -219.2828 
 114   2.0000      -8.058001      -219.2694 
 115   2.0000      -8.057997      -219.2692 
 116   2.0000      -8.057535      -219.2567 
 117   2.0000      -8.057520      -219.2563 
 118   2.0000      -8.055343      -219.1970 
 119   2.0000      -8.055329      -219.1966 
 120   2.0000      -6.702772      -182.3917 
 121   2.0000      -6.701773      -182.3645 
 122   2.0000      -6.699801      -182.3109 
 123   2.0000      -6.692596      -182.1148 
 124   2.0000      -6.691374      -182.0815 
 125   2.0000      -6.689383      -182.0274 
 126   2.0000      -6.685143      -181.9120 
 127   2.0000      -6.684450      -181.8931 
 128   2.0000      -6.682289      -181.8343 
 129   2.0000      -6.681608      -181.8158 
 130   2.0000      -6.676790      -181.6847 
 131   2.0000      -6.676053      -181.6646 
 132   2.0000      -2.675664       -72.8085 
 133   2.0000      -2.674987       -72.7901 
 134   2.0000      -2.673695       -72.7550 
 135   2.0000      -2.673036       -72.7370 
 136   2.0000      -2.667859       -72.5961 
 137   2.0000      -2.667109       -72.5757 
 138   2.0000      -2.664018       -72.4916 
 139   2.0000      -2.663541       -72.4786 
 140   2.0000      -2.663303       -72.4722 
 141   2.0000      -2.662790       -72.4582 
 142   2.0000      -1.403373       -38.1877 
 143   2.0000      -1.399054       -38.0702 
 144   2.0000      -1.258580       -34.2477 
 145   2.0000      -1.256481       -34.1906 
 146   2.0000      -1.246547       -33.9203 
 147   2.0000      -1.244173       -33.8557 
 148   2.0000      -1.243570       -33.8393 
 149   2.0000      -1.236416       -33.6446 
 150   2.0000      -1.227208       -33.3940 
 151   2.0000      -1.225594       -33.3501 
 152   2.0000      -1.214255       -33.0416 
 153   2.0000      -1.210595       -32.9420 
 154   2.0000      -1.207255       -32.8511 
 155   2.0000      -1.198582       -32.6151 
 156   2.0000      -1.170932       -31.8627 
 157   2.0000      -1.164032       -31.6749 
 158   2.0000      -1.161796       -31.6141 
 159   2.0000      -1.160302       -31.5734 
 160   2.0000      -1.160056       -31.5667 
 161   2.0000      -1.159076       -31.5401 
 162   2.0000      -1.144960       -31.1559 
 163   2.0000      -1.138050       -30.9679 
 164   2.0000      -1.129271       -30.7290 
 165   2.0000      -1.115279       -30.3483 
 166   2.0000      -1.104731       -30.0613 
 167   2.0000      -1.099902       -29.9299 
 168   2.0000      -1.094002       -29.7693 
 169   2.0000      -1.076734       -29.2994 
 170   2.0000      -1.066592       -29.0234 
 171   2.0000      -1.065071       -28.9821 
 172   2.0000      -1.060367       -28.8540 
 173   2.0000      -1.055412       -28.7192 
 174   2.0000      -1.052806       -28.6483 
 175   2.0000      -1.051058       -28.6007 
 176   2.0000      -1.045793       -28.4575 
 177   2.0000      -1.040874       -28.3236 
 178   2.0000      -1.039151       -28.2767 
 179   2.0000      -1.026605       -27.9353 
 180   2.0000      -1.020712       -27.7750 
 181   2.0000      -1.017967       -27.7003 
 182   2.0000      -1.015512       -27.6335 
 183   2.0000      -1.014506       -27.6061 
 184   2.0000      -1.004841       -27.3431 
 185   2.0000      -1.000624       -27.2284 
 186   2.0000      -0.983002       -26.7488 
 187   2.0000      -0.981425       -26.7059 
 188   2.0000      -0.974966       -26.5302 
 189   2.0000      -0.968083       -26.3429 
 190   2.0000      -0.959500       -26.1093 
 191   2.0000      -0.948558       -25.8116 
 192   2.0000      -0.934667       -25.4336 
 193   2.0000      -0.931544       -25.3486 
 194   2.0000      -0.924867       -25.1669 
 195   2.0000      -0.914266       -24.8784 
 196   2.0000      -0.912628       -24.8339 
 197   2.0000      -0.890170       -24.2228 
 198   2.0000      -0.869788       -23.6681 
 199   2.0000      -0.866626       -23.5821 
 200   2.0000      -0.864686       -23.5293 
 201   2.0000      -0.864089       -23.5130 
 202   2.0000      -0.853601       -23.2277 
 203   2.0000      -0.847756       -23.0686 
 204   2.0000      -0.840437       -22.8695 
 205   2.0000      -0.838172       -22.8078 
 206   2.0000      -0.837049       -22.7773 
 207   2.0000      -0.836597       -22.7650 
 208   2.0000      -0.835359       -22.7313 
 209   2.0000      -0.832828       -22.6624 
 210   2.0000      -0.824305       -22.4305 
 211   2.0000      -0.820001       -22.3134 
 212   2.0000      -0.810528       -22.0556 
 213   2.0000      -0.795414       -21.6443 
 214   2.0000      -0.793965       -21.6049 
 215   2.0000      -0.793026       -21.5793 
 216   2.0000      -0.788821       -21.4649 
 217   2.0000      -0.786873       -21.4119 
 218   2.0000      -0.782561       -21.2946 
 219   2.0000      -0.777829       -21.1658 
 220   2.0000      -0.767092       -20.8736 
 221   2.0000      -0.759498       -20.6670 
 222   2.0000      -0.752440       -20.4749 
 223   2.0000      -0.749726       -20.4011 
 224   2.0000      -0.746850       -20.3228 
 225   2.0000      -0.733725       -19.9657 
 226   2.0000      -0.724156       -19.7053 
 227   2.0000      -0.714348       -19.4384 
 228   2.0000      -0.709283       -19.3006 
 229   2.0000      -0.708347       -19.2751 
 230   2.0000      -0.707169       -19.2430 
 231   2.0000      -0.702037       -19.1034 
 232   2.0000      -0.697129       -18.9698 
 233   2.0000      -0.692456       -18.8427 
 234   2.0000      -0.687310       -18.7027 
 235   2.0000      -0.681195       -18.5363 
 236   2.0000      -0.677082       -18.4243 
 237   2.0000      -0.671099       -18.2615 
 238   2.0000      -0.668649       -18.1949 
 239   2.0000      -0.664878       -18.0923 
 240   2.0000      -0.663201       -18.0466 
 241   2.0000      -0.661181       -17.9916 
 242   2.0000      -0.657914       -17.9028 
 243   2.0000      -0.656133       -17.8543 
 244   2.0000      -0.653661       -17.7870 
 245   2.0000      -0.652111       -17.7448 
 246   2.0000      -0.649969       -17.6866 
 247   2.0000      -0.648130       -17.6365 
 248   2.0000      -0.641533       -17.4570 
 249   2.0000      -0.640689       -17.4340 
 250   2.0000      -0.639152       -17.3922 
 251   2.0000      -0.637422       -17.3451 
 252   2.0000      -0.633621       -17.2417 
 253   2.0000      -0.631573       -17.1860 
 254   2.0000      -0.629564       -17.1313 
 255   2.0000      -0.628236       -17.0952 
 256   2.0000      -0.618463       -16.8292 
 257   2.0000      -0.617425       -16.8010 
 258   2.0000      -0.616320       -16.7709 
 259   2.0000      -0.611914       -16.6510 
 260   2.0000      -0.609848       -16.5948 
 261   2.0000      -0.606312       -16.4986 
 262   2.0000      -0.604521       -16.4499 
 263   2.0000      -0.602873       -16.4050 
 264   2.0000      -0.602060       -16.3829 
 265   2.0000      -0.600559       -16.3420 
 266   2.0000      -0.599202       -16.3051 
 267   2.0000      -0.597787       -16.2666 
 268   2.0000      -0.593367       -16.1463 
 269   2.0000      -0.592285       -16.1169 
 270   2.0000      -0.592236       -16.1156 
 271   2.0000      -0.590878       -16.0786 
 272   2.0000      -0.590143       -16.0586 
 273   2.0000      -0.587851       -15.9962 
 274   2.0000      -0.587316       -15.9817 
 275   2.0000      -0.582826       -15.8595 
 276   2.0000      -0.581717       -15.8293 
 277   2.0000      -0.579064       -15.7571 
 278   2.0000      -0.578898       -15.7526 
 279   2.0000      -0.577364       -15.7109 
 280   2.0000      -0.576256       -15.6807 
 281   2.0000      -0.575799       -15.6683 
 282   2.0000      -0.574800       -15.6411 
 283   2.0000      -0.572594       -15.5811 
 284   2.0000      -0.570641       -15.5279 
 285   2.0000      -0.569591       -15.4994 
 286   2.0000      -0.567089       -15.4313 
 287   2.0000      -0.563873       -15.3438 
 288   2.0000      -0.562373       -15.3030 
 289   2.0000      -0.560680       -15.2569 
 290   2.0000      -0.558536       -15.1985 
 291   2.0000      -0.547154       -14.8888 
 292   2.0000      -0.543408       -14.7869 
 293   2.0000      -0.541172       -14.7260 
 294   2.0000      -0.539897       -14.6913 
 295   2.0000      -0.538782       -14.6610 
 296   2.0000      -0.534900       -14.5554 
 297   2.0000      -0.531443       -14.4613 
 298   2.0000      -0.529054       -14.3963 
 299   2.0000      -0.527443       -14.3525 
 300   2.0000      -0.521327       -14.1860 
 301   2.0000      -0.518270       -14.1028 
 302   2.0000      -0.515502       -14.0275 
 303   2.0000      -0.513429       -13.9711 
 304   2.0000      -0.511188       -13.9101 
 305   2.0000      -0.511086       -13.9073 
 306   2.0000      -0.510544       -13.8926 
 307   2.0000      -0.509849       -13.8737 
 308   2.0000      -0.507176       -13.8010 
 309   2.0000      -0.506888       -13.7931 
 310   2.0000      -0.503381       -13.6977 
 311   2.0000      -0.503013       -13.6877 
 312   2.0000      -0.502568       -13.6756 
 313   2.0000      -0.501294       -13.6409 
 314   2.0000      -0.499701       -13.5976 
 315   2.0000      -0.498271       -13.5586 
 316   2.0000      -0.497675       -13.5424 
 317   2.0000      -0.497098       -13.5267 
 318   2.0000      -0.495027       -13.4704 
 319   2.0000      -0.494614       -13.4591 
 320   2.0000      -0.493754       -13.4357 
 321   2.0000      -0.491797       -13.3825 
 322   2.0000      -0.490397       -13.3444 
 323   2.0000      -0.490103       -13.3364 
 324   2.0000      -0.489636       -13.3237 
 325   2.0000      -0.484270       -13.1777 
 326   2.0000      -0.483159       -13.1474 
 327   2.0000      -0.482748       -13.1362 
 328   2.0000      -0.480745       -13.0817 
 329   2.0000      -0.479352       -13.0438 
 330   2.0000      -0.478348       -13.0165 
 331   2.0000      -0.477192       -12.9850 
 332   2.0000      -0.476368       -12.9626 
 333   2.0000      -0.473874       -12.8948 
[...]
   Time for densities:     3.121
   Using LibInt in JK Direct
   Time for J+K (Direct):  3851.281
   Time for Sigma-Completion:    51.777
   Size of expansion space: 21
   Lowest Energy          :     0.097218189743
   Maximum Energy change  :     0.000001485478 (vector 2)
   Maximum residual norm  :     0.000000269267

                       ****Iteration   14****
   Time for densities:     3.100
   Using LibInt in JK Direct
   Time for J+K (Direct):  3843.309
   Time for Sigma-Completion:    51.990
   Size of expansion space: 24
   Lowest Energy          :     0.097218189736
   Maximum Energy change  :     0.000000561469 (vector 2)
   Maximum residual norm  :     0.000000044827

      *** CONVERGENCE OF RESIDUAL NORM REACHED ***

Storing the converged CI vectors               ... SeTIC4Cl.cis1

                 *** DAVIDSON DONE ***

Total time for solving the CIS problem: 69834.975sec

-----------------------------
CIS-EXCITED STATES (SINGLETS)
-----------------------------

the weight of the individual excitations are printed if larger than 1.0e-02

STATE  1:  E=   0.097218 au      2.645 eV    21336.9 cm**-1
   348a -> 367a  :     0.011456 (c= -0.10703254)
   361a -> 364a  :     0.171320 (c=  0.41390764)
   361a -> 366a  :     0.014772 (c=  0.12154138)
   362a -> 363a  :     0.651174 (c= -0.80695341)
   362a -> 365a  :     0.024706 (c= -0.15718289)
   362a -> 367a  :     0.018589 (c=  0.13633979)

STATE  2:  E=   0.116934 au      3.182 eV    25664.1 cm**-1
   348a -> 364a  :     0.023662 (c= -0.15382380)
   358a -> 364a  :     0.022527 (c=  0.15009009)
   361a -> 363a  :     0.355654 (c=  0.59636710)
   362a -> 364a  :     0.404047 (c= -0.63564686)
   362a -> 366a  :     0.022567 (c= -0.15022469)
   362a -> 368a  :     0.014480 (c=  0.12033121)

STATE  3:  E=   0.151985 au      4.136 eV    33356.9 cm**-1
   344a -> 364a  :     0.016166 (c= -0.12714368)
   348a -> 363a  :     0.050823 (c= -0.22543865)
   352a -> 363a  :     0.018593 (c=  0.13635586)
   353a -> 363a  :     0.018477 (c= -0.13593047)
   354a -> 363a  :     0.011809 (c=  0.10866742)
   357a -> 364a  :     0.020254 (c= -0.14231723)
   358a -> 363a  :     0.067045 (c=  0.25893022)
   361a -> 363a  :     0.012006 (c= -0.10957144)
   361a -> 364a  :     0.161675 (c=  0.40208768)
   361a -> 366a  :     0.028847 (c= -0.16984315)
   362a -> 365a  :     0.236132 (c=  0.48593393)
   362a -> 367a  :     0.127923 (c= -0.35766260)
   362a -> 369a  :     0.013679 (c=  0.11695713)
   362a -> 370a  :     0.018047 (c=  0.13434007)


----------------------
CIS-EXCITATION SPECTRA
----------------------

Center of mass = (  4.0712, -0.9117,  0.4212)
Calculating the Dipole integrals                  ... done
Transforming integrals                            ... done
Calculating the Linear Momentum integrals         ... done
Transforming integrals                            ... done
Calculating angular momentum integrals            ... done
Transforming integrals                            ... done

-----------------------------------------------------------------------------
         ABSORPTION SPECTRUM VIA TRANSITION ELECTRIC DIPOLE MOMENTS
-----------------------------------------------------------------------------
State   Energy    Wavelength  fosc         T2        TX        TY        TZ  
        (cm-1)      (nm)                 (au**2)    (au)      (au)      (au) 
-----------------------------------------------------------------------------
   1   21336.9    468.7   2.797133481  43.15756   6.40508   1.45826   0.07708
   2   25664.1    389.6   0.314349341   4.03239  -1.67047   0.86442   0.70335
   3   33356.9    299.8   0.068399530   0.67506  -0.40386   0.66734   0.25810

-----------------------------------------------------------------------------
         ABSORPTION SPECTRUM VIA TRANSITION VELOCITY DIPOLE MOMENTS
-----------------------------------------------------------------------------
State   Energy    Wavelength   fosc        P2         PX        PY        PZ  
        (cm-1)      (nm)                 (au**2)     (au)      (au)      (au) 
-----------------------------------------------------------------------------
   1   21336.9    468.7   1.650698674   0.24072  -0.46655  -0.15117   0.01391
   2   25664.1    389.6   0.141437448   0.02481   0.13764  -0.07562  -0.01212
   3   33356.9    299.8   0.079273310   0.01807  -0.07413  -0.10714   0.03315

-------------------------------------------------------------------
                             CD SPECTRUM
-------------------------------------------------------------------
State  Energy     Wavelength     R         MX        MY        MZ   
       (cm-1)       (nm)     (1e40*cgs)   (au)      (au)      (au)  
-------------------------------------------------------------------
   1   21336.9    468.7    -236.89595  -0.13178   0.32631  -1.74197
   2   25664.1    389.6    133.60049   0.00773   0.41800  -0.09246
   3   33356.9    299.8     53.69413  -0.11015   0.19779  -0.24249

Total run time:    70266.975 sec

           *** ORCA-CIS/TD-DFT FINISHED WITHOUT ERROR ***

-----------------------
CIS/TD-DFT TOTAL ENERGY
-----------------------

    E(SCF)  = -10776.685029112 Eh
    DE(CIS) =      0.097218190 Eh (Root  1)
    ----------------------------- ---------
    E(tot)  = -10776.587810922 Eh


-------------------------   --------------------
FINAL SINGLE POINT ENERGY    -10776.587810922343
-------------------------   --------------------

------------------------------------------------------------------------------
                         ORCA SCF GRADIENT CALCULATION
------------------------------------------------------------------------------


------------
CIS GRADIENT
------------

Reference wavefunction             ... RHF
State of interest                  ... 1
Basis dimension                    ... 1578
DFT-XC contribution needed         ... NO
RI-approximation                   ... OFF
CIS-vectors being read from        ... SeTIC4Cl.cis

 => Number of Vectors found: 3
 => Orbital Window: 132...362 -> 363...1577

Reading the CIS file                     ... done
Norm of the CI vector                    ... 1.000000000
Making the CIS (pseudo)densities         ... done
Making operators G(D) and Q(T)           ... done
Transforming the Fock operators          ... done
Making the frozen-core relaxed density   ... done
Constructing the G(H) operator           ... done
Transforming the G(H) operator           ... done
Calculating the CIS Lagrangian           ... done
Solving the Z-vector equations           ... done
Finalizing the relaxed density           ... done
Storing the relaxed density              ... done
Constructing the G(Z) operator           ... done
Transforming the G(Z) operator           ... done
Making the W-matrix                      ... done
Finalizing the W-matrix                  ... done
Transforming the W-matrix                ... done
Nuclear repulsion gradient               ... done
One-Electron gradient                    ... done
Prescreening matrices                    ... done
Two-Electron gradient (4-center)         ... done
                 ---------------------------
                 EXCITED STATE GRADIENT DONE
                 ---------------------------


------------------
CARTESIAN GRADIENT
------------------

   1   C   :    0.014242861    0.004474187   -0.001288108
   2   C   :   -0.013647412   -0.001163669    0.000512662
   3   C   :    0.011553029    0.006178498   -0.001807998
   4   C   :   -0.011541215   -0.003584622    0.000997815
   5   C   :    0.012572691    0.001156357   -0.000716341
   6   C   :   -0.010893991   -0.006034428    0.001039766
   7   C   :   -0.002669895    0.004516219    0.000102207
   8   C   :    0.008224244   -0.012554216    0.001426015
   9   C   :   -0.000677553    0.005577124   -0.000416662
  10   C   :    0.002486743   -0.004381301    0.001098593
  11   C   :   -0.000466635    0.011873985   -0.002700186
  12   C   :   -0.004590025   -0.003454467    0.000472393
  13   C   :    0.002032171    0.001360433   -0.005552946
  14   C   :   -0.001799418    0.001040742    0.005403513
  15   C   :    0.002137530   -0.000924560   -0.005576610
  16   C   :   -0.001552103   -0.001948990    0.004941279
  17   C   :   -0.005670105    0.005247884   -0.001181475
  18   C   :    0.008878259   -0.000706192    0.000047942
  19   Se  :   -0.001708866    0.000780206    0.000081434
  20   S   :    0.005748388    0.002057186    0.000333806
  21   C   :    0.004719217   -0.013154450   -0.004019070
  22   C   :   -0.014547454    0.003750146   -0.007610088
  23   C   :   -0.002593823   -0.014607136    0.001631692
  24   C   :    0.000791598    0.004650758   -0.000318933
  25   Se  :   -0.000114296   -0.000103485   -0.000088791
  26   S   :    0.018640746   -0.007247844   -0.000231020
  27   C   :    0.005784673    0.006408745   -0.000584426
  28   C   :    0.001333860    0.000668110   -0.000295666
  29   C   :    0.000260873    0.000436022    0.000343945
  30   C   :   -0.000969501   -0.000526849   -0.001991891
  31   C   :   -0.000116467   -0.004223228   -0.001127222
  32   C   :   -0.000978983   -0.000946923    0.001255704
  33   C   :   -0.000136739    0.001863167   -0.002361349
  34   C   :    0.000322000    0.001863161    0.001649954
  35   C   :    0.000751700    0.000595009   -0.001343483
  36   C   :   -0.004278797   -0.001077583   -0.000101327
  37   C   :    0.000050456    0.001233211    0.001441816
  38   C   :    0.000106419   -0.000516079   -0.000429547
  39   C   :   -0.000270702    0.000699496    0.000769241
  40   C   :    0.000155654   -0.001506347   -0.001548694
  41   C   :    0.004340807    0.001235004    0.000173459
  42   C   :   -0.000853560   -0.000442212    0.001511364
  43   C   :   -0.000414466   -0.001948589   -0.001630729
  44   C   :   -0.000396632   -0.000777822    0.000092511
  45   C   :    0.000700129    0.000772846    0.001452789
  46   C   :    0.000711582    0.003923719    0.000415460
  47   C   :    0.001127500    0.000776737   -0.001032172
  48   C   :   -0.000052361   -0.001631000    0.002004072
  49   C   :   -0.005788929   -0.007619342   -0.002131193
  50   C   :    0.004589185    0.003854309   -0.002716511
  51   C   :   -0.010675873   -0.010418432    0.012955605
  52   C   :    0.020078757    0.002061271   -0.010412469
  53   C   :    0.001805225    0.013636735    0.003275573
  54   C   :    0.012947625   -0.031974904   -0.015075967
  55   C   :   -0.001748184   -0.000014400   -0.000317089
  56   C   :    0.003835587   -0.006203101   -0.003414414
  57   C   :   -0.005912997    0.002913523    0.003451428
  58   C   :   -0.003295937   -0.003351772    0.001686194
  59   Cl  :    0.006525274   -0.001458442   -0.003595214
  60   Cl  :   -0.002395615    0.006399170    0.002394194
  61   O   :   -0.016318162    0.032426566    0.014037335
  62   C   :    0.008185629   -0.003520853   -0.016886541
  63   C   :   -0.004504239    0.051515783    0.022355871
  64   C   :   -0.031075856   -0.037278098    0.031211871
  65   N   :    0.004219838   -0.028221431   -0.014003939
  66   N   :    0.021537264    0.022299571   -0.012443096
  67   C   :    0.001654058    0.006932309   -0.001066029
  68   C   :   -0.002813516   -0.003470767   -0.002951360
  69   C   :    0.005912663    0.001133864    0.003503504
  70   C   :   -0.004762670    0.001863423    0.000947163
  71   C   :   -0.005754724   -0.001234668   -0.003824222
  72   C   :    0.004814147   -0.001887570   -0.000616365
  73   C   :   -0.002124147   -0.006791193    0.001816953
  74   C   :    0.003108562    0.003519070    0.002584465
  75   C   :   -0.004660022   -0.004908464    0.000695108
  76   C   :    0.002869913   -0.003625218    0.000115545
  77   C   :    0.003563075   -0.021621510    0.002972096
  78   C   :   -0.001032475    0.023026089   -0.003008161
  79   C   :   -0.013993906   -0.001562957    0.001252658
  80   C   :    0.032012723    0.024861619   -0.005390314
  81   C   :   -0.000686829   -0.001026448    0.000174953
  82   C   :    0.005837128    0.003456559   -0.000879861
  83   C   :   -0.002576598   -0.006240757    0.000992147
  84   C   :    0.003064079   -0.003503441    0.000310613
  85   Cl  :    0.002026669    0.006786268   -0.001032433
  86   Cl  :   -0.006388175   -0.002787720    0.000824313
  87   O   :   -0.051766778   -0.017603309    0.005891448
  88   C   :    0.006040420    0.020610061   -0.003635870
  89   C   :   -0.056384822   -0.010700008    0.005919850
  90   C   :    0.028875751   -0.050934889    0.005510785
  91   N   :   -0.013465378    0.031834134   -0.003767841
  92   N   :    0.031521205    0.009406481   -0.003838980
  93   H   :   -0.001224901   -0.000247954    0.000153845
  94   H   :    0.001201170    0.000266451   -0.000009876
  95   H   :    0.000916854    0.001425280    0.000570326
  96   H   :   -0.001992242   -0.003100825    0.000429492
  97   H   :   -0.000831775    0.000638724   -0.001518908
  98   H   :    0.000834174   -0.000473378   -0.001417215
  99   H   :   -0.001944108    0.000665788    0.000353018
 100   H   :   -0.000254715    0.002226792   -0.001743453
 101   H   :   -0.000528096    0.001376730    0.000756220
 102   H   :    0.000018934    0.001767425   -0.000614980
 103   H   :   -0.000683586   -0.000853084    0.001349148
 104   H   :   -0.000479769    0.000661016    0.000972243
 105   H   :    0.000481541   -0.000639527   -0.000967802
 106   H   :    0.000749392    0.000834236   -0.001355694
 107   H   :   -0.000067916   -0.001762362    0.000690073
 108   H   :    0.000553468   -0.001415598   -0.000641662
 109   H   :    0.000706046   -0.000513428    0.001691575
 110   H   :   -0.000900089    0.000647935    0.001413772
 111   H   :    0.001795184   -0.000635633   -0.000136278
 112   H   :    0.000155900   -0.001974968    0.001972405
 113   H   :    0.000960897    0.001309219    0.001297672
 114   H   :    0.002420748    0.000618734   -0.000676416
 115   H   :    0.001146744   -0.000198483   -0.000616039
 116   H   :   -0.002488480   -0.000799416    0.000173087
 117   H   :    0.000487827   -0.001843247   -0.001845123
 118   H   :    0.002156674    0.001816865   -0.000258691
 119   H   :   -0.000470336    0.002938381   -0.002331172
 120   H   :   -0.000153867    0.002724490    0.001045957
 121   H   :   -0.002164407   -0.000791470    0.001278750
 122   H   :   -0.001395823    0.002044001   -0.000944311
 123   H   :    0.002694388    0.000917520   -0.000263983
 124   H   :    0.001657587    0.001793705    0.002866879
 125   H   :    0.002082266   -0.001261540    0.001338779
 126   H   :    0.001317562   -0.001998579    0.001083772
 127   H   :    0.002253478    0.000756013   -0.001199496
 128   H   :   -0.002006598    0.001246927   -0.001498704
 129   H   :   -0.001496833   -0.001886513   -0.002898986
 130   H   :   -0.002726289   -0.000900527    0.000156128
 131   H   :   -0.000396151    0.002061529    0.001657958
 132   H   :    0.002576689    0.000666799   -0.000165550
 133   H   :   -0.000010626   -0.002788865   -0.000911428
 134   H   :    0.000275815   -0.002748689    0.002589756
 135   H   :   -0.002310442   -0.001691057    0.000448660
 136   H   :    0.003798598    0.004875799   -0.000897544
 137   H   :   -0.000508351    0.002786278   -0.000344617
 138   H   :    0.000162388    0.001204436   -0.000148095

Difference to translation invariance:
           :    0.0000000002   -0.0000000008   -0.0000000005

Norm of the cartesian gradient     ...    0.1818233309
RMS gradient                       ...    0.0089361292
MAX gradient                       ...    0.0563848215

-------
TIMINGS
-------

Total CIS gradient time            ...    52175.821 sec

Fock matrix formation       ....    3708.236 sec  (  7.1%)
  Coulomb formation         ....    3708.236 sec  (100.0% of F)
Z-vector equation           ....   44524.589 sec  ( 85.3%)
One electron gradient       ....      28.310 sec  (  0.1%)
Prescreening matrices       ....       1.956 sec  (  0.0%)
Two electron gradient       ....    3905.515 sec  (  7.5%)

                            ***************************************
                            *     ORCA property calculations      *
                            ***************************************

                                    ---------------------
                                    Active property flags
                                    ---------------------
   (+) Dipole Moment


------------------------------------------------------------------------------
                       ORCA ELECTRIC PROPERTIES CALCULATION
------------------------------------------------------------------------------

Dipole Moment Calculation                       ... on
Quadrupole Moment Calculation                   ... off
Polarizability Calculation                      ... off
GBWName                                         ... SeTIC4Cl.gbw
Electron density file                           ... SeTIC4Cl.scfp
The origin for moment calculation is the CENTER OF MASS  = ( 4.071166, -0.911692  0.421201)

-------------
DIPOLE MOMENT
-------------
                                X             Y             Z
Electronic contribution:      4.79638     -34.27890       1.94172
Nuclear contribution   :     -6.47127      34.03066      -0.25995
                        -----------------------------------------
Total Dipole Moment    :     -1.67489      -0.24824       1.68177
                        -----------------------------------------
Magnitude (a.u.)       :      2.38647
Magnitude (Debye)      :      6.06592



--------------------
Rotational spectrum 
--------------------
 
Rotational constants in cm-1:     0.000933     0.000182     0.000169 
Rotational constants in MHz :    27.963894     5.443652     5.061912 

 Dipole components along the rotational axes: 
x,y,z [a.u.] :    -1.742322    -0.096406     1.627961 
x,y,z [Debye]:    -4.428630    -0.245045     4.137949 

 

                        *** CIS RELAXED DENSITY ***

------------------------------------------------------------------------------
                       ORCA ELECTRIC PROPERTIES CALCULATION
------------------------------------------------------------------------------

Dipole Moment Calculation                       ... on
Quadrupole Moment Calculation                   ... off
Polarizability Calculation                      ... off
GBWName                                         ... SeTIC4Cl.gbw
Electron density file                           ... SeTIC4Cl.cisp
The origin for moment calculation is the CENTER OF MASS  = ( 4.071166, -0.911692  0.421201)

-------------
DIPOLE MOMENT
-------------
                                X             Y             Z
Electronic contribution:      5.28958     -33.82636       2.08750
Nuclear contribution   :     -6.47127      34.03066      -0.25995
                        -----------------------------------------
Total Dipole Moment    :     -1.18169       0.20430       1.82755
                        -----------------------------------------
Magnitude (a.u.)       :      2.18588
Magnitude (Debye)      :      5.55605



--------------------
Rotational spectrum 
--------------------
 
Rotational constants in cm-1:     0.000933     0.000182     0.000169 
Rotational constants in MHz :    27.963894     5.443652     5.061912 

 Dipole components along the rotational axes: 
x,y,z [a.u.] :    -1.180670    -0.457178     1.781869 
x,y,z [Debye]:    -3.001024    -1.162055     4.529152 

 

Timings for individual modules:

Sum of individual times         ...   138389.686 sec (=2306.495 min)
GTO integral calculation        ...        4.611 sec (=   0.077 min)   0.0 %
SCF iterations                  ...    15942.120 sec (= 265.702 min)  11.5 %
CIS module                      ...    70267.081 sec (=1171.118 min)  50.8 %
SCF Gradient evaluation         ...    52175.874 sec (= 869.598 min)  37.7 %
                             ****ORCA TERMINATED NORMALLY****
TOTAL RUN TIME: 1 days 14 hours 26 minutes 30 seconds 992 msec
