
                                 *****************
                                 * O   R   C   A *
                                 *****************

           --- An Ab Initio, DFT and Semiempirical electronic structure package ---

                  #######################################################
                  #                        -***-                        #
                  #          Department of theory and spectroscopy      #
                  #               Directorship: Frank Neese             #
                  #        Max Planck Institute fuer Kohlenforschung    #
                  #                Kaiser Wilhelm Platz 1               #
                  #                 D-45470 Muelheim/Ruhr               #
                  #                      Germany                        #
                  #                                                     #
                  #                  All rights reserved                #
                  #                        -***-                        #
                  #######################################################


                         Program Version 4.2.0 -  RELEASE  -


 With contributions from (in alphabetic order):
   Daniel Aravena         : Magnetic Suceptibility
   Michael Atanasov       : Ab Initio Ligand Field Theory (pilot matlab implementation)
   Alexander A. Auer      : GIAO ZORA, VPT2
   Ute Becker             : Parallelization
   Giovanni Bistoni       : ED, misc. LED, open-shell LED, HFLED
   Martin Brehm           : Molecular dynamics
   Dmytro Bykov           : SCF Hessian
   Vijay G. Chilkuri      : MRCI spin determinant printing, contributions to CSF-ICE
   Dipayan Datta          : RHF DLPNO-CCSD density
   Achintya Kumar Dutta   : EOM-CC, STEOM-CC
   Dmitry Ganyushin       : Spin-Orbit,Spin-Spin,Magnetic field MRCI
   Miquel Garcia          : C-PCM Hessian, Gaussian charge scheme
   Yang Guo               : DLPNO-NEVPT2, CIM, IAO-localization
   Andreas Hansen         : Spin unrestricted coupled pair/coupled cluster methods
   Benjamin Helmich-Paris : CASSCF linear response (MC-RPA)
   Lee Huntington         : MR-EOM, pCC
   Robert Izsak           : Overlap fitted RIJCOSX, COSX-SCS-MP3, EOM
   Christian Kollmar      : KDIIS, OOCD, Brueckner-CCSD(T), CCSD density
   Simone Kossmann        : Meta GGA functionals, TD-DFT gradient, OOMP2, MP2 Hessian
   Martin Krupicka        : AUTO-CI
   Lucas Lang             : DCDCAS
   Dagmar Lenk            : GEPOL surface, SMD
   Dimitrios Liakos       : Extrapolation schemes; Compound Job, initial MDCI parallelization
   Dimitrios Manganas     : Further ROCIS development; embedding schemes
   Dimitrios Pantazis     : SARC Basis sets
   Taras Petrenko         : DFT Hessian,TD-DFT gradient, ASA, ECA, R-Raman, ABS, FL, XAS/XES, NRVS
   Peter Pinski           : DLPNO-MP2, DLPNO-MP2 Gradient
   Christoph Reimann      : Effective Core Potentials
   Marius Retegan         : Local ZFS, SOC
   Christoph Riplinger    : Optimizer, TS searches, QM/MM, DLPNO-CCSD(T), (RO)-DLPNO pert. Triples
   Tobias Risthaus        : Range-separated hybrids, TD-DFT gradient, RPA, STAB
   Michael Roemelt        : Original ROCIS implementation
   Masaaki Saitow         : Open-shell DLPNO-CCSD energy and density
   Barbara Sandhoefer     : DKH picture change effects
   Avijit Sen             : IP-ROCIS
   Kantharuban Sivalingam : CASSCF convergence, NEVPT2, FIC-MRCI
   Bernardo de Souza      : ESD, SOC TD-DFT
   Georgi Stoychev        : AutoAux, RI-MP2 NMR
   Willem Van den Heuvel  : Paramagnetic NMR
   Boris Wezisla          : Elementary symmetry handling
   Frank Wennmohs         : Technical directorship


 We gratefully acknowledge several colleagues who have allowed us to
 interface, adapt or use parts of their codes:
   Stefan Grimme, W. Hujo, H. Kruse,             : VdW corrections, initial TS optimization,
                  C. Bannwarth                     DFT functionals, gCP, sTDA/sTD-DF
   Ed Valeev, F. Pavosevic, A. Kumar             : LibInt (2-el integral package), F12 methods
   Garnet Chan, S. Sharma, J. Yang, R. Olivares  : DMRG
   Ulf Ekstrom                                   : XCFun DFT Library
   Mihaly Kallay                                 : mrcc  (arbitrary order and MRCC methods)
   Andreas Klamt, Michael Diedenhofen            : otool_cosmo (COSMO solvation model)
   Jiri Pittner, Ondrej Demel                    : Mk-CCSD
   Frank Weinhold                                : gennbo (NPA and NBO analysis)
   Christopher J. Cramer and Donald G. Truhlar   : smd solvation model
   Lars Goerigk                                  : TD-DFT with DH, B97 family of functionals
   V. Asgeirsson, H. Jonsson                     : NEB implementation
   FAccTs GmbH                                   : IRC, NEB, NEB-TS, Multilevel, MM, QM/MM, CI optimization
   S Lehtola, MJT Oliveira, MAL Marques          : LibXC Library


 Your calculation uses the libint2 library for the computation of 2-el integrals
 For citations please refer to: http://libint.valeyev.net

 Your ORCA version has been built with support for libXC version: 4.2.3
 For citations please refer to: https://tddft.org/programs/libxc/

 This ORCA versions uses:
   CBLAS   interface :  Fast vector & matrix operations
   LAPACKE interface :  Fast linear algebra routines
   SCALAPACK package :  Parallel linear algebra routines


----- Orbital basis set information -----
Your calculation utilizes the basis: def2-SVP
   F. Weigend and R. Ahlrichs, Phys. Chem. Chem. Phys. 7, 3297 (2005).

================================================================================
                                        WARNINGS
                       Please study these warnings very carefully!
================================================================================

INFO   : Checking CIS options ...

WARNING: CIS/ROCIS methods need fully converged wavefunctions
  ===> : Setting SCFConvForced true
         You can overwrite this default with %scf ConvForced false 


INFO   : the flag for use of LIBINT has been found!

================================================================================
                                       INPUT FILE
================================================================================
NAME = SeTIC.inp
|  1> # ORCA input file
|  2> # SeTIC.out
|  3> ! Engrad Keepdens
|  4> %maxcore 1000
|  5> %tddft
|  6>   nroots 3 
|  7>   # nroots is the number of states to be computed
|  8>   Iroot 1
|  9>   end
| 10> * xyz 0 1
| 11>    C        0.54692        -0.92187         0.72692
| 12>    C        1.77540        -1.53231         0.96468
| 13>    C        2.88783        -0.72471         0.97668
| 14>    C        2.77517         0.66853         0.75690
| 15>    C        1.54523         1.28044         0.52956
| 16>    C        0.43321         0.47190         0.50837
| 17>    C        4.33672        -1.12262         1.17922
| 18>    C        5.02505         0.19614         0.95477
| 19>    C        4.10060         1.20922         0.76017
| 20>    C       -1.00910         0.85871         0.24440
| 21>    C       -1.69192        -0.47174         0.40512
| 22>    C       -0.77110        -1.47501         0.65588
| 23>    C        4.64528        -1.55346         2.60524
| 24>    C        4.74593        -2.18273         0.17301
| 25>    C       -1.49630         1.89534         1.24082
| 26>    C       -1.24959         1.30903        -1.18965
| 27>    C       -3.01235        -0.90767         0.39495
| 28>    C       -3.18553        -2.28071         0.64626
| 29>   Se       -1.54222        -3.16152         0.89111
| 30>    S       -4.52075        -0.09811         0.24601
| 31>    C       -5.38547        -1.59370         0.58109
| 32>    C       -4.52125        -2.66481         0.71849
| 33>    C        6.34776         0.61064         0.83988
| 34>    C        6.51754         1.97699         0.55285
| 35>   Se        4.87297         2.88053         0.43817
| 36>    S        7.85148        -0.22394         0.83821
| 37>    C        8.69991         1.25208         0.39338
| 38>    C        7.84479         2.33716         0.33831
| 39>    C        3.76689        -1.30801         3.65053
| 40>    C        4.09885        -1.67356         4.94288
| 41>    C        5.31583        -2.27725         5.22624
| 42>    C        6.19799        -2.50564         4.17753
| 43>    C        5.87051        -2.14687         2.88482
| 44>    C        4.55366        -3.52769         0.46075
| 45>    C        4.94756        -4.50069        -0.43894
| 46>    C        5.54388        -4.15977        -1.64562
| 47>    C        5.70149        -2.81222        -1.94225
| 48>    C        5.30247        -1.83477        -1.05078
| 49>    C       -2.18478         1.52615         2.38903
| 50>    C       -2.67511         2.48742         3.25218
| 51>    C       -2.47863         3.83974         3.00498
| 52>    C       -1.74737         4.20137         1.88128
| 53>    C       -1.26421         3.24482         1.00780
| 54>    C       -0.33846         1.04104        -2.20118
| 55>    C       -0.61224         1.41223        -3.50534
| 56>    C       -1.80328         2.04357        -3.83524
| 57>    C       -2.71767         2.29639        -2.82047
| 58>    C       -2.44820         1.93211        -1.51578
| 59>    C       -6.79703        -1.63094         0.65328
| 60>    C       -7.64490        -0.59871         0.91646
| 61>    C       -7.41502         0.72202         1.46469
| 62>    C       -8.55537         1.55011         1.07938
| 63>    C       -9.55888         0.71744         0.54935
| 64>    C       -9.07286        -0.67827         0.50717
| 65>    C       -8.77240         2.91364         1.18660
| 66>    C       -9.99524         3.42188         0.76837
| 67>    C      -10.98717         2.59481         0.26052
| 68>    C      -10.77631         1.22778         0.14298
| 69>    O       -9.67741        -1.66893         0.16602
| 70>    C       -6.47566         1.05800         2.40408
| 71>    C       -6.34625         2.33859         2.97545
| 72>    C       -5.58384         0.12797         2.97969
| 73>    N       -6.17896         3.36285         3.46686
| 74>    N       -4.88581        -0.60644         3.51969
| 75>    C        5.65011        -2.72125         6.62082
| 76>    C        5.19220        -4.16424         6.84245
| 77>    C        5.97963        -5.20797        -2.62659
| 78>    C        4.95507        -5.35657        -3.75241
| 79>    C       -3.02636         4.86965         3.94877
| 80>    C       -2.17204         4.96095         5.21398
| 81>    C       -2.07673         2.48651        -5.24340
| 82>    C       -1.57125         3.91426        -5.46022
| 83>    C       10.09337         1.26148         0.15041
| 84>    C       10.87932         0.21855        -0.23309
| 85>    C       10.55762        -1.08733        -0.77071
| 86>    C       11.72699        -1.93777        -0.56007
| 87>    C       12.80671        -1.12866        -0.15913
| 88>    C       12.35138         0.27102        -0.02143
| 89>    C       11.90638        -3.30153        -0.72090
| 90>    C       13.16820        -3.83288        -0.48883
| 91>    C       14.23409        -3.02828        -0.11156
| 92>    C       14.06174        -1.66180         0.06129
| 93>    O       13.01138         1.24751         0.25059
| 94>    C        9.49930        -1.39121        -1.58660
| 95>    C        9.29261        -2.65477        -2.17286
| 96>    C        8.55278        -0.43916        -2.02079
| 97>    N        7.80121         0.31464        -2.45126
| 98>    N        9.07074        -3.66543        -2.67081
| 99>    H        1.83851        -2.59893         1.12326
|100>    H        1.48448         2.34576         0.36222
|101>    H       -4.86137        -3.66508         0.92047
|102>    H        8.17752         3.32854         0.08639
|103>    H        2.81620        -0.83201         3.46016
|104>    H        3.39923        -1.48120         5.74369
|105>    H        7.15455        -2.96794         4.37510
|106>    H        6.56810        -2.33751         2.08185
|107>    H        4.11268        -3.81685         1.40420
|108>    H        4.79998        -5.54262        -0.19188
|109>    H        6.15420        -2.52072        -2.87888
|110>    H        5.44000        -0.79634        -1.31502
|111>    H       -2.35832         0.48409         2.61428
|112>    H       -3.23364         2.17878         4.12396
|113>    H       -1.56692         5.24707         1.67532
|114>    H       -0.72473         3.55112         0.12280
|115>    H        0.59206         0.54117        -1.97546
|116>    H        0.11209         1.20078        -4.27890
|117>    H       -3.65489         2.78097        -3.05412
|118>    H       -3.17190         2.14044        -0.74083
|119>    H       -7.26625        -2.57835         0.40690
|120>    H       -8.01163         3.57396         1.57177
|121>    H      -10.17523         4.48395         0.84183
|122>    H      -11.93024         3.02024        -0.04794
|123>    H      -11.53489         0.56977        -0.25208
|124>    H        5.15615        -2.07148         7.34566
|125>    H        6.72809        -2.65719         6.78176
|126>    H        4.11668        -4.24486         6.70171
|127>    H        5.43649        -4.49119         7.85035
|128>    H        5.68057        -4.82876         6.13325
|129>    H        6.09690        -6.16585        -2.11626
|130>    H        6.94496        -4.92420        -3.04977
|131>    H        3.98822        -5.65179        -3.34931
|132>    H        5.28037        -6.11182        -4.46387
|133>    H        4.83146        -4.41366        -4.27989
|134>    H       -4.04836         4.59801         4.22031
|135>    H       -3.05014         5.84446         3.45804
|136>    H       -2.14664         4.00180         5.72566
|137>    H       -2.57982         5.70545         5.89360
|138>    H       -1.15092         5.24149         4.96303
|139>    H       -3.14999         2.45089        -5.44063
|140>    H       -1.57684         1.81722        -5.94622
|141>    H       -2.06376         4.59804        -4.77240
|142>    H       -1.77319         4.23930        -6.47813
|143>    H       -0.49911         3.96607        -5.28480
|144>    H       10.60993         2.19605         0.34624
|145>    H       11.08946        -3.94504        -1.00636
|146>    H       13.32025        -4.89532        -0.60674
|147>    H       15.20510        -3.47108         0.05145
|148>    H       14.87800        -1.02134         0.35794
|149> *
|150> 
|151>                          ****END OF INPUT****
================================================================================

                     *******************************
                     * Energy+Gradient Calculation *
                     *******************************

---------------------------------
CARTESIAN COORDINATES (ANGSTROEM)
---------------------------------
  C      0.546920   -0.921870    0.726920
  C      1.775400   -1.532310    0.964680
  C      2.887830   -0.724710    0.976680
  C      2.775170    0.668530    0.756900
  C      1.545230    1.280440    0.529560
  C      0.433210    0.471900    0.508370
  C      4.336720   -1.122620    1.179220
  C      5.025050    0.196140    0.954770
  C      4.100600    1.209220    0.760170
  C     -1.009100    0.858710    0.244400
  C     -1.691920   -0.471740    0.405120
  C     -0.771100   -1.475010    0.655880
  C      4.645280   -1.553460    2.605240
  C      4.745930   -2.182730    0.173010
  C     -1.496300    1.895340    1.240820
  C     -1.249590    1.309030   -1.189650
  C     -3.012350   -0.907670    0.394950
  C     -3.185530   -2.280710    0.646260
  Se    -1.542220   -3.161520    0.891110
  S     -4.520750   -0.098110    0.246010
  C     -5.385470   -1.593700    0.581090
  C     -4.521250   -2.664810    0.718490
  C      6.347760    0.610640    0.839880
  C      6.517540    1.976990    0.552850
  Se     4.872970    2.880530    0.438170
  S      7.851480   -0.223940    0.838210
  C      8.699910    1.252080    0.393380
  C      7.844790    2.337160    0.338310
  C      3.766890   -1.308010    3.650530
  C      4.098850   -1.673560    4.942880
  C      5.315830   -2.277250    5.226240
  C      6.197990   -2.505640    4.177530
  C      5.870510   -2.146870    2.884820
  C      4.553660   -3.527690    0.460750
  C      4.947560   -4.500690   -0.438940
  C      5.543880   -4.159770   -1.645620
  C      5.701490   -2.812220   -1.942250
  C      5.302470   -1.834770   -1.050780
  C     -2.184780    1.526150    2.389030
  C     -2.675110    2.487420    3.252180
  C     -2.478630    3.839740    3.004980
  C     -1.747370    4.201370    1.881280
  C     -1.264210    3.244820    1.007800
  C     -0.338460    1.041040   -2.201180
  C     -0.612240    1.412230   -3.505340
  C     -1.803280    2.043570   -3.835240
  C     -2.717670    2.296390   -2.820470
  C     -2.448200    1.932110   -1.515780
  C     -6.797030   -1.630940    0.653280
  C     -7.644900   -0.598710    0.916460
  C     -7.415020    0.722020    1.464690
  C     -8.555370    1.550110    1.079380
  C     -9.558880    0.717440    0.549350
  C     -9.072860   -0.678270    0.507170
  C     -8.772400    2.913640    1.186600
  C     -9.995240    3.421880    0.768370
  C    -10.987170    2.594810    0.260520
  C    -10.776310    1.227780    0.142980
  O     -9.677410   -1.668930    0.166020
  C     -6.475660    1.058000    2.404080
  C     -6.346250    2.338590    2.975450
  C     -5.583840    0.127970    2.979690
  N     -6.178960    3.362850    3.466860
  N     -4.885810   -0.606440    3.519690
  C      5.650110   -2.721250    6.620820
  C      5.192200   -4.164240    6.842450
  C      5.979630   -5.207970   -2.626590
  C      4.955070   -5.356570   -3.752410
  C     -3.026360    4.869650    3.948770
  C     -2.172040    4.960950    5.213980
  C     -2.076730    2.486510   -5.243400
  C     -1.571250    3.914260   -5.460220
  C     10.093370    1.261480    0.150410
  C     10.879320    0.218550   -0.233090
  C     10.557620   -1.087330   -0.770710
  C     11.726990   -1.937770   -0.560070
  C     12.806710   -1.128660   -0.159130
  C     12.351380    0.271020   -0.021430
  C     11.906380   -3.301530   -0.720900
  C     13.168200   -3.832880   -0.488830
  C     14.234090   -3.028280   -0.111560
  C     14.061740   -1.661800    0.061290
  O     13.011380    1.247510    0.250590
  C      9.499300   -1.391210   -1.586600
  C      9.292610   -2.654770   -2.172860
  C      8.552780   -0.439160   -2.020790
  N      7.801210    0.314640   -2.451260
  N      9.070740   -3.665430   -2.670810
  H      1.838510   -2.598930    1.123260
  H      1.484480    2.345760    0.362220
  H     -4.861370   -3.665080    0.920470
  H      8.177520    3.328540    0.086390
  H      2.816200   -0.832010    3.460160
  H      3.399230   -1.481200    5.743690
  H      7.154550   -2.967940    4.375100
  H      6.568100   -2.337510    2.081850
  H      4.112680   -3.816850    1.404200
  H      4.799980   -5.542620   -0.191880
  H      6.154200   -2.520720   -2.878880
  H      5.440000   -0.796340   -1.315020
  H     -2.358320    0.484090    2.614280
  H     -3.233640    2.178780    4.123960
  H     -1.566920    5.247070    1.675320
  H     -0.724730    3.551120    0.122800
  H      0.592060    0.541170   -1.975460
  H      0.112090    1.200780   -4.278900
  H     -3.654890    2.780970   -3.054120
  H     -3.171900    2.140440   -0.740830
  H     -7.266250   -2.578350    0.406900
  H     -8.011630    3.573960    1.571770
  H    -10.175230    4.483950    0.841830
  H    -11.930240    3.020240   -0.047940
  H    -11.534890    0.569770   -0.252080
  H      5.156150   -2.071480    7.345660
  H      6.728090   -2.657190    6.781760
  H      4.116680   -4.244860    6.701710
  H      5.436490   -4.491190    7.850350
  H      5.680570   -4.828760    6.133250
  H      6.096900   -6.165850   -2.116260
  H      6.944960   -4.924200   -3.049770
  H      3.988220   -5.651790   -3.349310
  H      5.280370   -6.111820   -4.463870
  H      4.831460   -4.413660   -4.279890
  H     -4.048360    4.598010    4.220310
  H     -3.050140    5.844460    3.458040
  H     -2.146640    4.001800    5.725660
  H     -2.579820    5.705450    5.893600
  H     -1.150920    5.241490    4.963030
  H     -3.149990    2.450890   -5.440630
  H     -1.576840    1.817220   -5.946220
  H     -2.063760    4.598040   -4.772400
  H     -1.773190    4.239300   -6.478130
  H     -0.499110    3.966070   -5.284800
  H     10.609930    2.196050    0.346240
  H     11.089460   -3.945040   -1.006360
  H     13.320250   -4.895320   -0.606740
  H     15.205100   -3.471080    0.051450
  H     14.878000   -1.021340    0.357940

----------------------------
CARTESIAN COORDINATES (A.U.)
----------------------------
  NO LB      ZA    FRAG     MASS         X           Y           Z
   0 C     6.0000    0    12.011    1.033529   -1.742082    1.373680
   1 C     6.0000    0    12.011    3.355020   -2.895646    1.822981
   2 C     6.0000    0    12.011    5.457208   -1.369503    1.845658
   3 C     6.0000    0    12.011    5.244311    1.263339    1.430334
   4 C     6.0000    0    12.011    2.920062    2.419681    1.000723
   5 C     6.0000    0    12.011    0.818648    0.891762    0.960680
   6 C     6.0000    0    12.011    8.195213   -2.121444    2.228403
   7 C     6.0000    0    12.011    9.495968    0.370651    1.804254
   8 C     6.0000    0    12.011    7.749011    2.285095    1.436513
   9 C     6.0000    0    12.011   -1.906923    1.622727    0.461849
  10 C     6.0000    0    12.011   -3.197265   -0.891459    0.765566
  11 C     6.0000    0    12.011   -1.457168   -2.787365    1.239434
  12 C     6.0000    0    12.011    8.778307   -2.935614    4.923190
  13 C     6.0000    0    12.011    8.968508   -4.124762    0.326942
  14 C     6.0000    0    12.011   -2.827597    3.581674    2.344810
  15 C     6.0000    0    12.011   -2.361383    2.473708   -2.248113
  16 C     6.0000    0    12.011   -5.692517   -1.715248    0.746347
  17 C     6.0000    0    12.011   -6.019779   -4.309917    1.221254
  18 Se   34.0000    0    78.960   -2.914373   -5.974407    1.683954
  19 S    16.0000    0    32.060   -8.542979   -0.185401    0.464892
  20 C     6.0000    0    12.011  -10.177063   -3.011657    1.098101
  21 C     6.0000    0    12.011   -8.543924   -5.035761    1.357749
  22 C     6.0000    0    12.011   11.995528    1.153942    1.587143
  23 C     6.0000    0    12.011   12.316366    3.735970    1.044735
  24 Se   34.0000    0    78.960    9.208579    5.443413    0.828021
  25 S    16.0000    0    32.060   14.837147   -0.423185    1.583987
  26 C     6.0000    0    12.011   16.440447    2.366088    0.743380
  27 C     6.0000    0    12.011   14.824505    4.416592    0.639313
  28 C     6.0000    0    12.011    7.118390   -2.471781    6.898502
  29 C     6.0000    0    12.011    7.745704   -3.162570    9.340690
  30 C     6.0000    0    12.011   10.045463   -4.303379    9.876162
  31 C     6.0000    0    12.011   11.712504   -4.734973    7.894388
  32 C     6.0000    0    12.011   11.093656   -4.056996    5.451520
  33 C     6.0000    0    12.011    8.605170   -6.666368    0.870691
  34 C     6.0000    0    12.011    9.349533   -8.505072   -0.829476
  35 C     6.0000    0    12.011   10.476415   -7.860826   -3.109771
  36 C     6.0000    0    12.011   10.774255   -5.314326   -3.670321
  37 C     6.0000    0    12.011   10.020216   -3.467213   -1.985686
  38 C     6.0000    0    12.011   -4.128636    2.884006    4.514612
  39 C     6.0000    0    12.011   -5.055225    4.700543    6.145730
  40 C     6.0000    0    12.011   -4.683932    7.256057    5.678589
  41 C     6.0000    0    12.011   -3.302051    7.939439    3.555104
  42 C     6.0000    0    12.011   -2.389011    6.131821    1.904466
  43 C     6.0000    0    12.011   -0.639597    1.967280   -4.159627
  44 C     6.0000    0    12.011   -1.156966    2.668728   -6.624133
  45 C     6.0000    0    12.011   -3.407705    3.861788   -7.247553
  46 C     6.0000    0    12.011   -5.135652    4.339548   -5.329916
  47 C     6.0000    0    12.011   -4.626428    3.651159   -2.864409
  48 C     6.0000    0    12.011  -12.844525   -3.082030    1.234520
  49 C     6.0000    0    12.011  -14.446767   -1.131398    1.731858
  50 C     6.0000    0    12.011  -14.012357    1.364420    2.767863
  51 C     6.0000    0    12.011  -16.167306    2.929283    2.039733
  52 C     6.0000    0    12.011  -18.063665    1.355765    1.038121
  53 C     6.0000    0    12.011  -17.145221   -1.281745    0.958412
  54 C     6.0000    0    12.011  -16.577434    5.505982    2.242349
  55 C     6.0000    0    12.011  -18.888266    6.466416    1.452009
  56 C     6.0000    0    12.011  -20.762742    4.903480    0.492311
  57 C     6.0000    0    12.011  -20.364275    2.320168    0.270193
  58 O     8.0000    0    15.999  -18.287655   -3.153821    0.313732
  59 C     6.0000    0    12.011  -12.237224    1.999330    4.543053
  60 C     6.0000    0    12.011  -11.992674    4.419295    5.622786
  61 C     6.0000    0    12.011  -10.551928    0.241828    5.630798
  62 N     7.0000    0    14.007  -11.676542    6.354866    6.551416
  63 N     7.0000    0    14.007   -9.232843   -1.146006    6.651250
  64 C     6.0000    0    12.011   10.677161   -5.142417   12.511537
  65 C     6.0000    0    12.011    9.811836   -7.869273   12.930357
  66 C     6.0000    0    12.011   11.299863   -9.841637   -4.963536
  67 C     6.0000    0    12.011    9.363725  -10.122450   -7.091027
  68 C     6.0000    0    12.011   -5.718992    9.202305    7.462094
  69 C     6.0000    0    12.011   -4.104561    9.374837    9.852994
  70 C     6.0000    0    12.011   -3.924451    4.698823   -9.908590
  71 C     6.0000    0    12.011   -2.969232    7.396879  -10.318320
  72 C     6.0000    0    12.011   19.073705    2.383852    0.284234
  73 C     6.0000    0    12.011   20.558935    0.413000   -0.440476
  74 C     6.0000    0    12.011   19.951010   -2.054756   -1.456431
  75 C     6.0000    0    12.011   22.160799   -3.661855   -1.058379
  76 C     6.0000    0    12.011   24.201175   -2.132858   -0.300712
  77 C     6.0000    0    12.011   23.340726    0.512154   -0.040497
  78 C     6.0000    0    12.011   22.499797   -6.238988   -1.362304
  79 C     6.0000    0    12.011   24.884292   -7.243094   -0.923755
  80 C     6.0000    0    12.011   26.898532   -5.722620   -0.210818
  81 C     6.0000    0    12.011   26.572838   -3.140347    0.115821
  82 O     8.0000    0    15.999   24.587945    2.357452    0.473546
  83 C     6.0000    0    12.011   17.951075   -2.629006   -2.998239
  84 C     6.0000    0    12.011   17.560488   -5.016788   -4.106110
  85 C     6.0000    0    12.011   16.162412   -0.829892   -3.818740
  86 N     7.0000    0    14.007   14.742150    0.594583   -4.632210
  87 N     7.0000    0    14.007   17.141214   -6.926659   -5.047099
  88 H     1.0000    0     1.008    3.474280   -4.911266    2.122654
  89 H     1.0000    0     1.008    2.805261    4.432844    0.684497
  90 H     1.0000    0     1.008   -9.186658   -6.925997    1.739436
  91 H     1.0000    0     1.008   15.453273    6.290029    0.163253
  92 H     1.0000    0     1.008    5.321847   -1.572271    6.538755
  93 H     1.0000    0     1.008    6.423614   -2.799062   10.854001
  94 H     1.0000    0     1.008   13.520140   -5.608594    8.267741
  95 H     1.0000    0     1.008   12.411910   -4.417254    3.934126
  96 H     1.0000    0     1.008    7.771839   -7.212801    2.653553
  97 H     1.0000    0     1.008    9.070648  -10.474034   -0.362601
  98 H     1.0000    0     1.008   11.629753   -4.763470   -5.440295
  99 H     1.0000    0     1.008   10.280110   -1.504865   -2.485028
 100 H     1.0000    0     1.008   -4.456579    0.914798    4.940273
 101 H     1.0000    0     1.008   -6.110694    4.117298    7.793155
 102 H     1.0000    0     1.008   -2.961050    9.915525    3.165896
 103 H     1.0000    0     1.008   -1.369541    6.710644    0.232058
 104 H     1.0000    0     1.008    1.118831    1.022663   -3.733078
 105 H     1.0000    0     1.008    0.211819    2.269145   -8.085949
 106 H     1.0000    0     1.008   -6.906741    5.255272   -5.771450
 107 H     1.0000    0     1.008   -5.994022    4.044845   -1.399966
 108 H     1.0000    0     1.008  -13.731223   -4.872375    0.768930
 109 H     1.0000    0     1.008  -15.139787    6.753806    2.970215
 110 H     1.0000    0     1.008  -19.228398    8.473437    1.590828
 111 H     1.0000    0     1.008  -22.544886    5.707426   -0.090593
 112 H     1.0000    0     1.008  -21.797783    1.076709   -0.476362
 113 H     1.0000    0     1.008    9.743711   -3.914530   13.881286
 114 H     1.0000    0     1.008   12.714248   -5.021361   12.815669
 115 H     1.0000    0     1.008    7.779398   -8.021623   12.664397
 116 H     1.0000    0     1.008   10.273477   -8.487119   14.835012
 117 H     1.0000    0     1.008   10.734722   -9.125034   11.590163
 118 H     1.0000    0     1.008   11.521471  -11.651768   -3.999152
 119 H     1.0000    0     1.008   13.124072   -9.305389   -5.763230
 120 H     1.0000    0     1.008    7.536644  -10.680335   -6.329279
 121 H     1.0000    0     1.008    9.978453  -11.549666   -8.435492
 122 H     1.0000    0     1.008    9.130136   -8.340609   -8.087820
 123 H     1.0000    0     1.008   -7.650292    8.688980    7.975230
 124 H     1.0000    0     1.008   -5.763929   11.044429    6.534749
 125 H     1.0000    0     1.008   -4.056562    7.562306   10.819929
 126 H     1.0000    0     1.008   -4.875153   10.781738   11.137290
 127 H     1.0000    0     1.008   -2.174924    9.904981    9.378767
 128 H     1.0000    0     1.008   -5.952618    4.631511  -10.281301
 129 H     1.0000    0     1.008   -2.979796    3.434048  -11.236727
 130 H     1.0000    0     1.008   -3.899941    8.689036   -9.018529
 131 H     1.0000    0     1.008   -3.350843    8.011116  -12.241892
 132 H     1.0000    0     1.008   -0.943181    7.494786   -9.986825
 133 H     1.0000    0     1.008   20.049862    4.149933    0.654299
 134 H     1.0000    0     1.008   20.956042   -7.455045   -1.901745
 135 H     1.0000    0     1.008   25.171625   -9.250814   -1.146572
 136 H     1.0000    0     1.008   28.733475   -6.559391    0.097226
 137 H     1.0000    0     1.008   28.115345   -1.930053    0.676409

--------------------------------
INTERNAL COORDINATES (ANGSTROEM)
--------------------------------
 C      0   0   0     0.000000000000     0.00000000     0.00000000
 C      1   0   0     1.392239175429     0.00000000     0.00000000
 C      2   1   0     1.374722613803   117.25388443     0.00000000
 C      3   2   1     1.414960501781   120.84123728     0.08659716
 C      4   3   2     1.392433024350   121.89719699     0.42411868
 C      5   4   3     1.375054336417   117.28715252   359.15814183
 C      3   2   1     1.516125671506   128.33823458   181.40796742
 C      7   3   2     1.504428106956   100.79253617   175.16430944
 C      8   7   3     1.385210470975   110.89813659     4.15189545
 C      6   5   4     1.516430108215   128.45326651   182.00226054
 C     10   6   5     1.504051619227   100.81033771   181.37791423
 C     11  10   6     1.384680736813   111.00000283   357.38514174
 C      7   3   2     1.521303855119   113.16511083   289.27785432
 C      7   3   2     1.517809144886   110.63396015    55.42820911
 C     10   6   5     1.518162841496   111.41690526   301.33845021
 C     10   6   5     1.522209888616   112.93694893    67.66899780
 C     11  10   6     1.390565992213   135.04118697   175.31439218
 C     17  11  10     1.406551410401   114.93748660   182.43997420
 Se    12  11  10     1.869298046701   113.71340446   179.24433724
 S     17  11  10     1.718383274244   133.35140270   357.32447118
 C     20  17  11     1.759775193853    90.82739669   186.96218731
 C     21  20  17     1.383123855806   111.71809713   356.58777854
 C      8   7   3     1.390888818777   135.12632381   187.67300058
 C     23   8   7     1.406457888385   114.90830600   176.61299086
 Se     9   8   7     1.869095110742   113.72744492   181.18741272
 S     23   8   7     1.719796616958   133.39008068     2.99096018
 C     26  23   8     1.759642643891    90.84609771   171.83007872
 C     27  26  23     1.382628484337   111.72581438     3.59180931
 C     13   7   3     1.387243986723   121.85498876   346.24277417
 C     29  13   7     1.383471274223   120.34393554   182.17180525
 C     30  29  13     1.387722892403   121.07172294     0.70342448
 C     31  30  29     1.389302314761   118.30874646     0.07896515
 C     32  31  30     1.380962782771   120.88543118   359.71274660
 C     14   7   3     1.388769045630   120.11483788   271.93006716
 C     34  14   7     1.382507976867   120.48505465   181.27539630
 C     35  34  14     1.388488606795   121.00514998     0.09239765
 C     36  35  34     1.388784098231   118.20355494   358.26379537
 C     37  36  35     1.381790224238   121.05136072     1.33819670
 C     15  10   6     1.388773621077   121.34668037   264.96138760
 C     39  15  10     1.381843494865   120.49196352   183.05912087
 C     40  39  15     1.388697811909   121.06602783   359.15960621
 C     41  40  39     1.388603303503   118.17480657   358.50490939
 C     42  41  40     1.382533471023   121.00566347     2.06041658
 C     16  10   6     1.387504759595   121.73032574    16.27531481
 C     44  16  10     1.383318766626   120.36577425   177.17488935
 C     45  44  16     1.387804196276   121.06669627   359.24904207
 C     46  45  44     1.389167080448   118.29753606     0.06253772
 C     47  46  45     1.381133590715   120.90588463     0.14999978
 C     21  20  17     1.413895274516   121.51190871   178.09286506
 C     49  21  20     1.361486695565   127.70710202   337.07619801
 C     50  49  21     1.448353782817   131.73482432   345.01205924
 C     51  50  49     1.461025313504   107.04583896   159.82308794
 C     52  51  50     1.407587812501   108.69133223    10.98221836
 C     53  52  51     1.478513103391   109.56130868   357.03402627
 C     52  51  50     1.384850970394   131.29697974   189.31757478
 C     55  52  51     1.388726717573   118.36072284   182.19802317
 C     56  55  52     1.387761338379   121.43201124     0.35657636
 C     53  52  51     1.381202120401   121.37303378   177.74837354
 O     54  53  52     1.209657497228   128.08677630   176.70706927
 C     51  50  49     1.370304105701   126.29000544   326.65999355
 C     60  51  50     1.408233422803   124.34003868   184.47299062
 C     60  51  50     1.411249653817   123.45142118   359.83005265
 N     61  60  51     1.148293638317   176.51962361   192.79058430
 N     62  60  51     1.148130623666   176.00906824   236.00259617
 C     31  30  29     1.501243649379   120.90490097   182.42011173
 C     65  31  30     1.530039726641   110.29468130    89.94631748
 C     36  35  34     1.500301117576   121.42801398   179.76881844
 C     67  36  35     1.529469132085   110.76941740   100.34325373
 C     41  40  39     1.500487362526   120.31748376   179.58934835
 C     69  41  40     1.529364147775   110.94135863    76.33161733
 C     46  45  44     1.501294551945   120.89753019   177.91158502
 C     71  46  45     1.530029740005   110.36866728   270.28962387
 C     27  26  23     1.414515306563   121.59960973   182.89770858
 C     73  27  26     1.361063054160   127.74613745    24.29152162
 C     74  73  27     1.448395225344   131.85089791    14.79750648
 C     75  74  73     1.461178839191   107.06730147   199.39347759
 C     76  75  74     1.407553606119   108.68664579   348.83057113
 C     77  76  75     1.478306734511   109.54357836     3.20358918
 C     76  75  74     1.384878477918   131.30536520   170.59363398
 C     79  76  75     1.388660872856   118.36554027   177.52025659
 C     80  79  76     1.387744682930   121.43306153   359.65809862
 C     77  76  75     1.381276053836   121.36996319   182.54864895
 O     78  77  76     1.209598115285   128.11448998   183.34818194
 C     75  74  73     1.370423572805   126.32992425    32.95285298
 C     84  75  74     1.408192251541   124.06795861   174.48761317
 C     84  75  74     1.410964304651   123.47966521   359.86567807
 N     86  84  75     1.148205698383   175.90295423   123.49546460
 N     85  84  75     1.148309250594   176.99454494   173.30125141
 H      2   1   3     1.080189202362   120.63553976   180.50545717
 H      5   4   3     1.080092561080   120.55865729   180.12735061
 H     22  21  20     1.075647529491   122.76721625   180.35146163
 H     28  27  26     1.075642711917   122.77431880   179.80122671
 H     29  13   7     1.080105648999   120.16500504     2.35432215
 H     30  29  13     1.080632763755   119.33186834   180.44996414
 H     32  31  30     1.080630477314   119.62914964   179.56063166
 H     33  32  31     1.080618451906   119.77936042   180.31638632
 H     34  14   7     1.080821339769   119.76484505   359.92817029
 H     35  34  14     1.080942470671   119.39016295   179.28839075
 H     37  36  35     1.080367692501   119.63891407   180.56892546
 H     38  37  36     1.080312058342   119.03807651   180.02557940
 H     39  15  10     1.080158663206   120.56540910     2.14936035
 H     40  39  15     1.080377146602   119.25818059   178.16032482
 H     42  41  40     1.080958007556   119.60579812   180.97539311
 H     43  42  41     1.080779052536   119.71645843   178.04307719
 H     44  16  10     1.080132864837   120.18193591   357.10185521
 H     45  44  16     1.080629504039   119.32175721   179.61664789
 H     47  46  45     1.080643987306   119.63916288   180.40553934
 H     48  47  46     1.080597326204   119.73168053   179.82924737
 H     49  21  20     1.085567234629   116.29030534   152.72870497
 H     55  52  51     1.078494053855   121.32804357     3.00928152
 H     56  55  52     1.079715451682   119.09722487   180.31649797
 H     57  56  55     1.079592182910   119.60961919   179.46377374
 H     58  53  52     1.079116851921   120.13372123   180.56720618
 H     65  31  30     1.091600000046   109.87876886   329.44320399
 H     65  31  30     1.091808704673   109.84209055   210.40357201
 H     66  65  31     1.087681296336   110.30969973   299.92799229
 H     66  65  31     1.087398876494   110.52358235   179.75241958
 H     66  65  31     1.087684111909   110.32628308    59.56602655
 H     67  36  35     1.091660687302   109.79033852   339.51390275
 H     67  36  35     1.091544197090   109.19092013   220.89516609
 H     68  67  36     1.088321359204   110.41581127   299.71641220
 H     68  67  36     1.087381250574   110.40738485   179.55408261
 H     68  67  36     1.087471310242   110.42253815    59.45011975
 H     69  41  40     1.091790392520   109.10880520   315.74780642
 H     69  41  40     1.091620793774   109.76302240   197.24967552
 H     70  69  41     1.087396112233   110.46721175   300.41426558
 H     70  69  41     1.087404305123   110.39161919   180.31378485
 H     70  69  41     1.088285187118   110.41154156    60.18068696
 H     71  46  45     1.091812934939   109.80744461   149.79763898
 H     71  46  45     1.091693669763   109.85042745    30.80766453
 H     72  71  46     1.087758034169   110.32841537   300.49342695
 H     72  71  46     1.087461049096   110.50039385   180.31143238
 H     72  71  46     1.087630742532   110.31998321    60.14458797
 H     73  27  26     1.085635623679   116.32532187   208.07873286
 H     79  76  75     1.078401974266   121.34839945   356.72157303
 H     80  79  76     1.079722521855   119.09247548   179.74657501
 H     81  80  79     1.079585346418   119.60851411   180.62663839
 H     82  77  76     1.079106399620   120.13732025   179.33771557

---------------------------
INTERNAL COORDINATES (A.U.)
---------------------------
 C      0   0   0     0.000000000000     0.00000000     0.00000000
 C      1   0   0     2.630950754478     0.00000000     0.00000000
 C      2   1   0     2.597849250195   117.25388443     0.00000000
 C      3   2   1     2.673887838682   120.84123728     0.08659716
 C      4   3   2     2.631317075849   121.89719699     0.42411868
 C      5   4   3     2.598476115090   117.28715252   359.15814183
 C      3   2   1     2.865062303754   128.33823458   181.40796742
 C      7   3   2     2.842957110321   100.79253617   175.16430944
 C      8   7   3     2.617668427984   110.89813659     4.15189545
 C      6   5   4     2.865637605758   128.45326651   182.00226054
 C     10   6   5     2.842245651620   100.81033771   181.37791423
 C     11  10   6     2.616667375492   111.00000283   357.38514174
 C      7   3   2     2.874847652654   113.16511083   289.27785432
 C      7   3   2     2.868243607396   110.63396015    55.42820911
 C     10   6   5     2.868911997124   111.41690526   301.33845021
 C     10   6   5     2.876559807831   112.93694893    67.66899780
 C     11  10   6     2.627788896427   135.04118697   175.31439218
 C     17  11  10     2.657996958938   114.93748660   182.43997420
 Se    12  11  10     3.532461370939   113.71340446   179.24433724
 S     17  11  10     3.247273781431   133.35140270   357.32447118
 C     20  17  11     3.325493173650    90.82739669   186.96218731
 C     21  20  17     2.613725296767   111.71809713   356.58777854
 C      8   7   3     2.628398950223   135.12632381   187.67300058
 C     23   8   7     2.657820227941   114.90830600   176.61299086
 Se     9   8   7     3.532077877554   113.72744492   181.18741272
 S     23   8   7     3.249944612095   133.39008068     2.99096018
 C     26  23   8     3.325242690523    90.84609771   171.83007872
 C     27  26  23     2.612789180356   111.72581438     3.59180931
 C     13   7   3     2.621511215836   121.85498876   346.24277417
 C     29  13   7     2.614381822428   120.34393554   182.17180525
 C     30  29  13     2.622416216415   121.07172294     0.70342448
 C     31  30  29     2.625400892121   118.30874646     0.07896515
 C     32  31  30     2.609641460576   120.88543118   359.71274660
 C     14   7   3     2.624393159508   120.11483788   271.93006716
 C     34  14   7     2.612561454240   120.48505465   181.27539630
 C     35  34  14     2.623863206913   121.00514998     0.09239765
 C     36  35  34     2.624421604802   118.20355494   358.26379537
 C     37  36  35     2.611205098340   121.05136072     1.33819670
 C     15  10   6     2.624401805850   121.34668037   264.96138760
 C     39  15  10     2.611305765235   120.49196352   183.05912087
 C     40  39  15     2.624258547283   121.06602783   359.15960621
 C     41  40  39     2.624079952279   118.17480657   358.50490939
 C     42  41  40     2.612609631214   121.00566347     2.06041658
 C     16  10   6     2.622004005148   121.73032574    16.27531481
 C     44  16  10     2.614093624837   120.36577425   177.17488935
 C     45  44  16     2.622569858467   121.06669627   359.24904207
 C     46  45  44     2.625145336305   118.29753606     0.06253772
 C     47  46  45     2.609964240810   120.90588463     0.14999978
 C     21  20  17     2.671874850882   121.51190871   178.09286506
 C     49  21  20     2.572836989595   127.70710202   337.07619801
 C     50  49  21     2.736991994553   131.73482432   345.01205924
 C     51  50  49     2.760937717249   107.04583896   159.82308794
 C     52  51  50     2.659955475071   108.69133223    10.98221836
 C     53  52  51     2.793984850824   109.56130868   357.03402627
 C     52  51  50     2.616989070339   131.29697974   189.31757478
 C     55  52  51     2.624313171072   118.36072284   182.19802317
 C     56  55  52     2.622488868781   121.43201124     0.35657636
 C     53  52  51     2.610093743149   121.37303378   177.74837354
 O     54  53  52     2.285921385606   128.08677630   176.70706927
 C     51  50  49     2.589499479962   126.29000544   326.65999355
 C     60  51  50     2.661175501733   124.34003868   184.47299062
 C     60  51  50     2.666875352306   123.45142118   359.83005265
 N     61  60  51     2.169960497744   176.51962361   192.79058430
 N     62  60  51     2.169652444697   176.00906824   236.00259617
 C     31  30  29     2.836939357614   120.90490097   182.42011173
 C     65  31  30     2.891356057371   110.29468130    89.94631748
 C     36  35  34     2.835158230635   121.42801398   179.76881844
 C     67  36  35     2.890277789926   110.76941740   100.34325373
 C     41  40  39     2.835510182584   120.31748376   179.58934835
 C     69  41  40     2.890079398333   110.94135863    76.33161733
 C     46  45  44     2.837035549524   120.89753019   177.91158502
 C     71  46  45     2.891337185364   110.36866728   270.28962387
 C     27  26  23     2.673046541643   121.59960973   182.89770858
 C     73  27  26     2.572036423361   127.74613745    24.29152162
 C     74  73  27     2.737070309580   131.85089791    14.79750648
 C     75  74  73     2.761227838752   107.06730147   199.39347759
 C     76  75  74     2.659890834379   108.68664579   348.83057113
 C     77  76  75     2.793594870157   109.54357836     3.20358918
 C     76  75  74     2.617041052026   131.30536520   170.59363398
 C     79  76  75     2.624188742589   118.36554027   177.52025659
 C     80  79  76     2.622457394543   121.43306153   359.65809862
 C     77  76  75     2.610233457093   121.36996319   182.54864895
 O     78  77  76     2.285809169995   128.11448998   183.34818194
 C     75  74  73     2.589725240072   126.32992425    32.95285298
 C     84  75  74     2.661097699322   124.06795861   174.48761317
 C     84  75  74     2.666336120530   123.47966521   359.86567807
 N     86  84  75     2.169794315352   175.90295423   123.49546460
 N     85  84  75     2.169990000671   176.99454494   173.30125141
 H      2   1   3     2.041261765284   120.63553976   180.50545717
 H      5   4   3     2.041079139727   120.55865729   180.12735061
 H     22  21  20     2.032679247367   122.76721625   180.35146163
 H     28  27  26     2.032670143471   122.77431880   179.80122671
 H     29  13   7     2.041103872310   120.16500504     2.35432215
 H     30  29  13     2.042099974839   119.33186834   180.44996414
 H     32  31  30     2.042095654092   119.62914964   179.56063166
 H     33  32  31     2.042072929365   119.77936042   180.31638632
 H     34  14   7     2.042456331861   119.76484505   359.92817029
 H     35  34  14     2.042685236092   119.39016295   179.28839075
 H     37  36  35     2.041599062763   119.63891407   180.56892546
 H     38  37  36     2.041493929440   119.03807651   180.02557940
 H     39  15  10     2.041204054643   120.56540910     2.14936035
 H     40  39  15     2.041616928425   119.25818059   178.16032482
 H     42  41  40     2.042714596551   119.60579812   180.97539311
 H     43  42  41     2.042376420571   119.71645843   178.04307719
 H     44  16  10     2.041155302789   120.18193591   357.10185521
 H     45  44  16     2.042093814869   119.32175721   179.61664789
 H     47  46  45     2.042121184276   119.63916288   180.40553934
 H     48  47  46     2.042033007574   119.73168053   179.82924737
 H     49  21  20     2.051424773407   116.29030534   152.72870497
 H     55  52  51     2.038058398848   121.32804357     3.00928152
 H     56  55  52     2.040366506241   119.09722487   180.31649797
 H     57  56  55     2.040133562022   119.60961919   179.46377374
 H     58  53  52     2.039235316630   120.13372123   180.56720618
 H     65  31  30     2.062825047875   109.87876886   329.44320399
 H     65  31  30     2.063219442464   109.84209055   210.40357201
 H     66  65  31     2.055419771064   110.30969973   299.92799229
 H     66  65  31     2.054886074907   110.52358235   179.75241958
 H     66  65  31     2.055425091726   110.32628308    59.56602655
 H     67  36  35     2.062939730168   109.79033852   339.51390275
 H     67  36  35     2.062719595570   109.19092013   220.89516609
 H     68  67  36     2.056629314593   110.41581127   299.71641220
 H     68  67  36     2.054852766746   110.40738485   179.55408261
 H     68  67  36     2.055022954854   110.42253815    59.45011975
 H     69  41  40     2.063184837510   109.10880520   315.74780642
 H     69  41  40     2.062864342327   109.76302240   197.24967552
 H     70  69  41     2.054880851212   110.46721175   300.41426558
 H     70  69  41     2.054896333529   110.39161919   180.31378485
 H     70  69  41     2.056560959256   110.41154156    60.18068696
 H     71  46  45     2.063227436507   109.80744461   149.79763898
 H     71  46  45     2.063002057987   109.85042745    30.80766453
 H     72  71  46     2.055564784553   110.32841537   300.49342695
 H     72  71  46     2.055003564097   110.50039385   180.31143238
 H     72  71  46     2.055324238218   110.31998321    60.14458797
 H     73  27  26     2.051554009981   116.32532187   208.07873286
 H     79  76  75     2.037884393642   121.34839945   356.72157303
 H     80  79  76     2.040379866932   119.09247548   179.74657501
 H     81  80  79     2.040120642924   119.60851411   180.62663839
 H     82  77  76     2.039215564643   120.13732025   179.33771557

---------------------
BASIS SET INFORMATION
---------------------
There are 6 groups of distinct atoms

 Group   1 Type C   : 7s4p1d contracted to 3s2p1d pattern {511/31/1}
 Group   2 Type Se  : 14s10p6d contracted to 5s4p3d pattern {63311/5311/411}
 Group   3 Type S   : 10s7p1d contracted to 4s3p1d pattern {5311/511/1}
 Group   4 Type O   : 7s4p1d contracted to 3s2p1d pattern {511/31/1}
 Group   5 Type N   : 7s4p1d contracted to 3s2p1d pattern {511/31/1}
 Group   6 Type H   : 4s1p contracted to 2s1p pattern {31/1}

Atom   0C    basis set group =>   1
Atom   1C    basis set group =>   1
Atom   2C    basis set group =>   1
Atom   3C    basis set group =>   1
Atom   4C    basis set group =>   1
Atom   5C    basis set group =>   1
Atom   6C    basis set group =>   1
Atom   7C    basis set group =>   1
Atom   8C    basis set group =>   1
Atom   9C    basis set group =>   1
Atom  10C    basis set group =>   1
Atom  11C    basis set group =>   1
Atom  12C    basis set group =>   1
Atom  13C    basis set group =>   1
Atom  14C    basis set group =>   1
Atom  15C    basis set group =>   1
Atom  16C    basis set group =>   1
Atom  17C    basis set group =>   1
Atom  18Se   basis set group =>   2
Atom  19S    basis set group =>   3
Atom  20C    basis set group =>   1
Atom  21C    basis set group =>   1
Atom  22C    basis set group =>   1
Atom  23C    basis set group =>   1
Atom  24Se   basis set group =>   2
Atom  25S    basis set group =>   3
Atom  26C    basis set group =>   1
Atom  27C    basis set group =>   1
Atom  28C    basis set group =>   1
Atom  29C    basis set group =>   1
Atom  30C    basis set group =>   1
Atom  31C    basis set group =>   1
Atom  32C    basis set group =>   1
Atom  33C    basis set group =>   1
Atom  34C    basis set group =>   1
Atom  35C    basis set group =>   1
Atom  36C    basis set group =>   1
Atom  37C    basis set group =>   1
Atom  38C    basis set group =>   1
Atom  39C    basis set group =>   1
Atom  40C    basis set group =>   1
Atom  41C    basis set group =>   1
Atom  42C    basis set group =>   1
Atom  43C    basis set group =>   1
Atom  44C    basis set group =>   1
Atom  45C    basis set group =>   1
Atom  46C    basis set group =>   1
Atom  47C    basis set group =>   1
Atom  48C    basis set group =>   1
Atom  49C    basis set group =>   1
Atom  50C    basis set group =>   1
Atom  51C    basis set group =>   1
Atom  52C    basis set group =>   1
Atom  53C    basis set group =>   1
Atom  54C    basis set group =>   1
Atom  55C    basis set group =>   1
Atom  56C    basis set group =>   1
Atom  57C    basis set group =>   1
Atom  58O    basis set group =>   4
Atom  59C    basis set group =>   1
Atom  60C    basis set group =>   1
Atom  61C    basis set group =>   1
Atom  62N    basis set group =>   5
Atom  63N    basis set group =>   5
Atom  64C    basis set group =>   1
Atom  65C    basis set group =>   1
Atom  66C    basis set group =>   1
Atom  67C    basis set group =>   1
Atom  68C    basis set group =>   1
Atom  69C    basis set group =>   1
Atom  70C    basis set group =>   1
Atom  71C    basis set group =>   1
Atom  72C    basis set group =>   1
Atom  73C    basis set group =>   1
Atom  74C    basis set group =>   1
Atom  75C    basis set group =>   1
Atom  76C    basis set group =>   1
Atom  77C    basis set group =>   1
Atom  78C    basis set group =>   1
Atom  79C    basis set group =>   1
Atom  80C    basis set group =>   1
Atom  81C    basis set group =>   1
Atom  82O    basis set group =>   4
Atom  83C    basis set group =>   1
Atom  84C    basis set group =>   1
Atom  85C    basis set group =>   1
Atom  86N    basis set group =>   5
Atom  87N    basis set group =>   5
Atom  88H    basis set group =>   6
Atom  89H    basis set group =>   6
Atom  90H    basis set group =>   6
Atom  91H    basis set group =>   6
Atom  92H    basis set group =>   6
Atom  93H    basis set group =>   6
Atom  94H    basis set group =>   6
Atom  95H    basis set group =>   6
Atom  96H    basis set group =>   6
Atom  97H    basis set group =>   6
Atom  98H    basis set group =>   6
Atom  99H    basis set group =>   6
Atom 100H    basis set group =>   6
Atom 101H    basis set group =>   6
Atom 102H    basis set group =>   6
Atom 103H    basis set group =>   6
Atom 104H    basis set group =>   6
Atom 105H    basis set group =>   6
Atom 106H    basis set group =>   6
Atom 107H    basis set group =>   6
Atom 108H    basis set group =>   6
Atom 109H    basis set group =>   6
Atom 110H    basis set group =>   6
Atom 111H    basis set group =>   6
Atom 112H    basis set group =>   6
Atom 113H    basis set group =>   6
Atom 114H    basis set group =>   6
Atom 115H    basis set group =>   6
Atom 116H    basis set group =>   6
Atom 117H    basis set group =>   6
Atom 118H    basis set group =>   6
Atom 119H    basis set group =>   6
Atom 120H    basis set group =>   6
Atom 121H    basis set group =>   6
Atom 122H    basis set group =>   6
Atom 123H    basis set group =>   6
Atom 124H    basis set group =>   6
Atom 125H    basis set group =>   6
Atom 126H    basis set group =>   6
Atom 127H    basis set group =>   6
Atom 128H    basis set group =>   6
Atom 129H    basis set group =>   6
Atom 130H    basis set group =>   6
Atom 131H    basis set group =>   6
Atom 132H    basis set group =>   6
Atom 133H    basis set group =>   6
Atom 134H    basis set group =>   6
Atom 135H    basis set group =>   6
Atom 136H    basis set group =>   6
Atom 137H    basis set group =>   6
------------------------------------------------------------------------------
                           ORCA GTO INTEGRAL CALCULATION
------------------------------------------------------------------------------

                         BASIS SET STATISTICS AND STARTUP INFO

 # of primitive gaussian shells          ... 1354
 # of primitive gaussian functions       ... 2586
 # of contracted shells                  ...  694
 # of contracted basis functions         ... 1526
 Highest angular momentum                ...    2
 Maximum contraction depth               ...    6
 Integral package used                   ... LIBINT
 Integral threshhold            Thresh   ...  2.500e-11
 Primitive cut-off              TCut     ...  2.500e-12


------------------------------ INTEGRAL EVALUATION ----------------------------


 * One electron integrals 
 Pre-screening matrix                    ... done
 Shell pair data                         ... done (   0.034 sec)

-------------------------------------------------------------------------------
                                 ORCA SCF
-------------------------------------------------------------------------------

------------
SCF SETTINGS
------------
Hamiltonian:
 Ab initio Hamiltonian  Method          .... Hartree-Fock(GTOs)


General Settings:
 Integral files         IntName         .... SeTIC
 Hartree-Fock type      HFTyp           .... RHF
 Total Charge           Charge          ....    0
 Multiplicity           Mult            ....    1
 Number of Electrons    NEL             ....  662
 Basis Dimension        Dim             .... 1526
 Nuclear Repulsion      ENuc            ....  17294.4257485996 Eh

Convergence Acceleration:
 DIIS                   CNVDIIS         .... on
   Start iteration      DIISMaxIt       ....    12
   Startup error        DIISStart       ....  0.200000
   # of expansion vecs  DIISMaxEq       ....     5
   Bias factor          DIISBfac        ....   1.050
   Max. coefficient     DIISMaxC        ....  10.000
 Newton-Raphson         CNVNR           .... off
 SOSCF                  CNVSOSCF        .... on
   Start iteration      SOSCFMaxIt      ....   150
   Startup grad/error   SOSCFStart      ....  0.003300
 Level Shifting         CNVShift        .... on
   Level shift para.    LevelShift      ....    0.2500
   Turn off err/grad.   ShiftErr        ....    0.0010
 Zerner damping         CNVZerner       .... off
 Static damping         CNVDamp         .... on
   Fraction old density DampFac         ....    0.7000
   Max. Damping (<1)    DampMax         ....    0.9800
   Min. Damping (>=0)   DampMin         ....    0.0000
   Turn off err/grad.   DampErr         ....    0.1000
 Fernandez-Rico         CNVRico         .... off

SCF Procedure:
 Maximum # iterations   MaxIter         ....   125
 SCF integral mode      SCFMode         .... Direct
   Integral package                     .... LIBINT
 Reset frequency        DirectResetFreq ....    20
 Integral Threshold     Thresh          ....  2.500e-11 Eh
 Primitive CutOff       TCut            ....  2.500e-12 Eh

Convergence Tolerance:
 Convergence Check Mode ConvCheckMode   .... Total+1el-Energy
 Convergence forced     ConvForced      .... 1
 Energy Change          TolE            ....  1.000e-08 Eh
 1-El. energy change                    ....  1.000e-05 Eh
 Orbital Gradient       TolG            ....  1.000e-05
 Orbital Rotation angle TolX            ....  1.000e-05
 DIIS Error             TolErr          ....  5.000e-07


Diagonalization of the overlap matrix:
Smallest eigenvalue                        ... 1.895e-04
Time for diagonalization                   ...    0.904 sec
Threshold for overlap eigenvalues          ... 1.000e-08
Number of eigenvalues below threshold      ... 0
Time for construction of square roots      ...    0.339 sec
Total time needed                          ...    1.257 sec

-------------------
DFT GRID GENERATION
-------------------

General Integration Accuracy     IntAcc      ...  4.340
Radial Grid Type                 RadialGrid  ... Gauss-Chebyshev
Angular Grid (max. acc.)         AngularGrid ... Lebedev-110
Angular grid pruning method      GridPruning ... 3 (G Style)
Weight generation scheme         WeightScheme... Becke
Basis function cutoff            BFCut       ...    1.0000e-11
Integration weight cutoff        WCut        ...    1.0000e-14
Grids for H and He will be reduced by one unit

# of grid points (after initial pruning)     ... 188620 (   0.4 sec)
# of grid points (after weights+screening)   ... 162027 (   8.8 sec)
nearest neighbour list constructed           ...    0.0 sec
Grid point re-assignment to atoms done       ...    0.0 sec
Grid point division into batches done        ...    0.1 sec
Reduced shell lists constructed in    4.9 sec

Total number of grid points                  ...   162027
Total number of batches                      ...     2595
Average number of points per batch           ...       62
Average number of grid points per atom       ...     1174
Average number of shells per batch           ...   134.77 (19.42%)
Average number of basis functions per batch  ...   273.73 (17.94%)
Average number of large shells per batch     ...    74.15 (55.02%)
Average number of large basis fcns per batch ...   154.30 (56.37%)
Maximum spatial batch extension              ...  27.54, 21.64, 25.93 au
Average spatial batch extension              ...   3.04,  3.11,  3.37 au

Time for grid setup =   14.144 sec

------------------------------
INITIAL GUESS: MODEL POTENTIAL
------------------------------
Loading Hartree-Fock densities                     ... done
Calculating cut-offs                               ... done
Setting up the integral package                    ... done
Initializing the effective Hamiltonian             ... done
Starting the Coulomb interaction                   ... done (  20.2 sec)
Reading the grid                                   ... done
Mapping shells                                     ... done
Starting the XC term evaluation                    ... done (   3.7 sec)
Transforming the Hamiltonian                       ... done (   0.3 sec)
Diagonalizing the Hamiltonian                      ... done (   0.9 sec)
Back transforming the eigenvectors                 ... done (   0.1 sec)
Now organizing SCF variables                       ... done
                      ------------------
                      INITIAL GUESS DONE (  39.8 sec)
                      ------------------
--------------
SCF ITERATIONS
--------------
ITER       Energy         Delta-E        Max-DP      RMS-DP      [F,P]     Damp
               ***  Starting incremental Fock matrix formation  ***
  0  -8938.7291393403   0.000000000000 0.33446656  0.00133227  0.2413253 0.7000
  1  -8939.7177034698  -0.988564129533 0.25824980  0.00103827  0.1485813 0.7000
                               ***Turning on DIIS***
  2  -8940.3203382976  -0.602634827832 0.60618725  0.00244253  0.0857469 0.0000
  3  -8937.1525176164   3.167820681218 0.09166509  0.00046873  0.0464290 0.0000
  4  -8941.8522271560  -4.699709539593 0.02571937  0.00019310  0.0165039 0.0000
  5  -8941.9086098792  -0.056382723211 0.01313220  0.00009566  0.0074946 0.0000
  6  -8941.5648518356   0.343758043593 0.00701942  0.00005241  0.0029140 0.0000
  7  -8941.6353547899  -0.070502954299 0.00361169  0.00003279  0.0020156 0.0000
  8  -8941.5981773009   0.037177489019 0.00283045  0.00002355  0.0013222 0.0000
                      *** Initiating the SOSCF procedure ***
                           *** Shutting down DIIS ***
                      *** Re-Reading the Fockian *** 
                      *** Removing any level shift *** 
ITER      Energy       Delta-E        Grad      Rot      Max-DP    RMS-DP
  9  -8941.59142999   0.0067473075  0.002590  0.002590  0.002511  0.000023
               *** Restarting incremental Fock matrix formation ***
 10  -8941.62136655  -0.0299365543  0.000490  0.002004  0.000455  0.000006
 11  -8941.62137692  -0.0000103698  0.000342  0.003510  0.000781  0.000008
 12  -8941.62138487  -0.0000079485  0.000093  0.000553  0.000150  0.000002
 13  -8941.62138555  -0.0000006840  0.000039  0.000317  0.000122  0.000001
 14  -8941.62138581  -0.0000002606  0.000016  0.000087  0.000076  0.000001
 15  -8941.62138591  -0.0000001003  0.000012  0.000029  0.000041  0.000000
 16  -8941.62138593  -0.0000000162  0.000004  0.000027  0.000015  0.000000
                  ***Gradient check signals convergence***
              ***Rediagonalizing the Fockian in SOSCF/NRSCF***

               *****************************************************
               *                     SUCCESS                       *
               *           SCF CONVERGED AFTER  17 CYCLES          *
               *****************************************************


----------------
TOTAL SCF ENERGY
----------------

Total Energy       :        -8941.62138592 Eh         -243313.88775 eV

Components:
Nuclear Repulsion  :        17294.42574860 Eh          470605.24973 eV
Electronic Energy  :       -26236.04713452 Eh         -713919.13748 eV
One Electron Energy:       -46824.57733811 Eh        -1274161.52649 eV
Two Electron Energy:        20588.53020359 Eh          560242.38901 eV

Virial components:
Potential Energy   :       -17869.66716579 Eh         -486258.36448 eV
Kinetic Energy     :         8928.04577987 Eh          242944.47673 eV
Virial Ratio       :            2.00152056


---------------
SCF CONVERGENCE
---------------

  Last Energy change         ...    5.6352e-09  Tolerance :   1.0000e-08
  Last MAX-Density change    ...    5.6033e-06  Tolerance :   1.0000e-07
  Last RMS-Density change    ...    4.5233e-08  Tolerance :   5.0000e-09
  Last Orbital Gradient      ...    1.1297e-06  Tolerance :   1.0000e-05
  Last Orbital Rotation      ...    5.0896e-06  Tolerance :   1.0000e-05

             **** THE GBW FILE WAS UPDATED (SeTIC.gbw) ****
             **** DENSITY FILE WAS UPDATED (SeTIC.scfp) ****
             **** ENERGY FILE WAS UPDATED (SeTIC.en.tmp) ****
             **** THE GBW FILE WAS UPDATED (SeTIC.gbw) ****
             **** DENSITY FILE WAS UPDATED (SeTIC.scfp) ****
----------------
ORBITAL ENERGIES
----------------

  NO   OCC          E(Eh)            E(eV) 
   0   2.0000    -460.828831    -12539.7900 
   1   2.0000    -460.828820    -12539.7897 
   2   2.0000     -91.969289     -2502.6116 
   3   2.0000     -91.968611     -2502.5931 
   4   2.0000     -60.656110     -1650.5367 
   5   2.0000     -60.656083     -1650.5359 
   6   2.0000     -54.272759     -1476.8368 
   7   2.0000     -54.272733     -1476.8362 
   8   2.0000     -54.272163     -1476.8206 
   9   2.0000     -54.272137     -1476.8199 
  10   2.0000     -54.271536     -1476.8036 
  11   2.0000     -54.271508     -1476.8028 
  12   2.0000     -20.556729      -559.3770 
  13   2.0000     -20.555921      -559.3551 
  14   2.0000     -15.585585      -424.1053 
  15   2.0000     -15.585076      -424.0915 
  16   2.0000     -15.580302      -423.9616 
  17   2.0000     -15.579563      -423.9415 
  18   2.0000     -11.354486      -308.9713 
  19   2.0000     -11.353797      -308.9525 
  20   2.0000     -11.333090      -308.3891 
  21   2.0000     -11.332273      -308.3668 
  22   2.0000     -11.314450      -307.8818 
  23   2.0000     -11.313732      -307.8623 
  24   2.0000     -11.310880      -307.7847 
  25   2.0000     -11.310340      -307.7700 
  26   2.0000     -11.297634      -307.4243 
  27   2.0000     -11.296855      -307.4031 
  28   2.0000     -11.296838      -307.4026 
  29   2.0000     -11.296625      -307.3968 
  30   2.0000     -11.292271      -307.2783 
  31   2.0000     -11.291448      -307.2559 
  32   2.0000     -11.289408      -307.2004 
  33   2.0000     -11.289359      -307.1991 
  34   2.0000     -11.289317      -307.1979 
  35   2.0000     -11.288925      -307.1873 
  36   2.0000     -11.287348      -307.1443 
  37   2.0000     -11.287293      -307.1429 
  38   2.0000     -11.285507      -307.0942 
  39   2.0000     -11.284932      -307.0786 
  40   2.0000     -11.283035      -307.0270 
  41   2.0000     -11.282843      -307.0218 
  42   2.0000     -11.274136      -306.7848 
  43   2.0000     -11.273828      -306.7765 
  44   2.0000     -11.273712      -306.7733 
  45   2.0000     -11.273319      -306.7626 
  46   2.0000     -11.272775      -306.7478 
  47   2.0000     -11.272328      -306.7356 
  48   2.0000     -11.272252      -306.7336 
  49   2.0000     -11.272148      -306.7307 
  50   2.0000     -11.271552      -306.7145 
  51   2.0000     -11.271087      -306.7019 
  52   2.0000     -11.270081      -306.6745 
  53   2.0000     -11.269499      -306.6587 
  54   2.0000     -11.267979      -306.6173 
  55   2.0000     -11.266931      -306.5888 
  56   2.0000     -11.265273      -306.5437 
  57   2.0000     -11.265085      -306.5386 
  58   2.0000     -11.261990      -306.4543 
  59   2.0000     -11.261417      -306.4387 
  60   2.0000     -11.259491      -306.3863 
  61   2.0000     -11.259337      -306.3821 
  62   2.0000     -11.256620      -306.3082 
  63   2.0000     -11.256504      -306.3050 
  64   2.0000     -11.245906      -306.0167 
  65   2.0000     -11.245516      -306.0061 
  66   2.0000     -11.240132      -305.8595 
  67   2.0000     -11.240021      -305.8565 
  68   2.0000     -11.237239      -305.7808 
  69   2.0000     -11.236702      -305.7662 
  70   2.0000     -11.235707      -305.7391 
  71   2.0000     -11.235029      -305.7207 
  72   2.0000     -11.234850      -305.7158 
  73   2.0000     -11.234362      -305.7025 
  74   2.0000     -11.232918      -305.6632 
  75   2.0000     -11.232266      -305.6455 
  76   2.0000     -11.231759      -305.6317 
  77   2.0000     -11.231669      -305.6293 
  78   2.0000     -11.231609      -305.6276 
  79   2.0000     -11.231067      -305.6129 
  80   2.0000     -11.230894      -305.6082 
  81   2.0000     -11.230435      -305.5957 
  82   2.0000     -11.229920      -305.5816 
  83   2.0000     -11.229699      -305.5756 
  84   2.0000     -11.228779      -305.5506 
  85   2.0000     -11.228523      -305.5436 
  86   2.0000     -11.226889      -305.4992 
  87   2.0000     -11.226717      -305.4945 
  88   2.0000     -11.223146      -305.3973 
  89   2.0000     -11.222738      -305.3862 
  90   2.0000     -11.222247      -305.3729 
  91   2.0000     -11.221801      -305.3607 
  92   2.0000     -11.215165      -305.1802 
  93   2.0000     -11.214775      -305.1696 
  94   2.0000     -11.211451      -305.0791 
  95   2.0000     -11.211355      -305.0765 
  96   2.0000      -9.004345      -245.0207 
  97   2.0000      -9.003693      -245.0029 
  98   2.0000      -8.938297      -243.2234 
  99   2.0000      -8.938256      -243.2223 
 100   2.0000      -6.691859      -182.0947 
 101   2.0000      -6.691198      -182.0768 
 102   2.0000      -6.690815      -182.0663 
 103   2.0000      -6.690150      -182.0482 
 104   2.0000      -6.688853      -182.0129 
 105   2.0000      -6.688186      -181.9948 
 106   2.0000      -6.676160      -181.6675 
 107   2.0000      -6.676119      -181.6664 
 108   2.0000      -6.673314      -181.5901 
 109   2.0000      -6.673275      -181.5890 
 110   2.0000      -6.667857      -181.4416 
 111   2.0000      -6.667810      -181.4403 
 112   2.0000      -2.666655       -72.5634 
 113   2.0000      -2.666619       -72.5624 
 114   2.0000      -2.664709       -72.5104 
 115   2.0000      -2.664675       -72.5095 
 116   2.0000      -2.658927       -72.3531 
 117   2.0000      -2.658882       -72.3519 
 118   2.0000      -2.655070       -72.2481 
 119   2.0000      -2.655025       -72.2469 
 120   2.0000      -2.654601       -72.2354 
 121   2.0000      -2.654553       -72.2341 
 122   2.0000      -1.388704       -37.7886 
 123   2.0000      -1.387906       -37.7668 
 124   2.0000      -1.245564       -33.8935 
 125   2.0000      -1.244813       -33.8731 
 126   2.0000      -1.236453       -33.6456 
 127   2.0000      -1.228444       -33.4277 
 128   2.0000      -1.220699       -33.2169 
 129   2.0000      -1.219336       -33.1798 
 130   2.0000      -1.217207       -33.1219 
 131   2.0000      -1.216537       -33.1037 
 132   2.0000      -1.202849       -32.7312 
 133   2.0000      -1.190779       -32.4028 
 134   2.0000      -1.161441       -31.6044 
 135   2.0000      -1.158950       -31.5366 
 136   2.0000      -1.157345       -31.4930 
 137   2.0000      -1.151682       -31.3389 
 138   2.0000      -1.149250       -31.2727 
 139   2.0000      -1.148139       -31.2424 
 140   2.0000      -1.126210       -30.6457 
 141   2.0000      -1.106681       -30.1143 
 142   2.0000      -1.095922       -29.8215 
 143   2.0000      -1.092783       -29.7361 
 144   2.0000      -1.089954       -29.6592 
 145   2.0000      -1.079965       -29.3873 
 146   2.0000      -1.067415       -29.0458 
 147   2.0000      -1.055981       -28.7347 
 148   2.0000      -1.054999       -28.7080 
 149   2.0000      -1.049090       -28.5472 
 150   2.0000      -1.048557       -28.5327 
 151   2.0000      -1.045825       -28.4583 
 152   2.0000      -1.040628       -28.3169 
 153   2.0000      -1.036326       -28.1999 
 154   2.0000      -1.032631       -28.0993 
 155   2.0000      -1.019215       -27.7342 
 156   2.0000      -1.010429       -27.4952 
 157   2.0000      -1.009859       -27.4797 
 158   2.0000      -1.004340       -27.3295 
 159   2.0000      -1.003783       -27.3143 
 160   2.0000      -0.998153       -27.1611 
 161   2.0000      -0.995748       -27.0957 
 162   2.0000      -0.974461       -26.5164 
 163   2.0000      -0.971910       -26.4470 
 164   2.0000      -0.971200       -26.4277 
 165   2.0000      -0.960102       -26.1257 
 166   2.0000      -0.950440       -25.8628 
 167   2.0000      -0.945333       -25.7238 
 168   2.0000      -0.929630       -25.2965 
 169   2.0000      -0.925141       -25.1744 
 170   2.0000      -0.915381       -24.9088 
 171   2.0000      -0.908339       -24.7172 
 172   2.0000      -0.903051       -24.5733 
 173   2.0000      -0.878788       -23.9130 
 174   2.0000      -0.858057       -23.3489 
 175   2.0000      -0.855591       -23.2818 
 176   2.0000      -0.853217       -23.2172 
 177   2.0000      -0.851983       -23.1836 
 178   2.0000      -0.845105       -22.9965 
 179   2.0000      -0.835788       -22.7430 
 180   2.0000      -0.835715       -22.7409 
 181   2.0000      -0.829834       -22.5809 
 182   2.0000      -0.828697       -22.5500 
 183   2.0000      -0.826017       -22.4771 
 184   2.0000      -0.823159       -22.3993 
 185   2.0000      -0.822933       -22.3931 
 186   2.0000      -0.810381       -22.0516 
 187   2.0000      -0.809386       -22.0245 
 188   2.0000      -0.802121       -21.8268 
 189   2.0000      -0.785531       -21.3754 
 190   2.0000      -0.784687       -21.3524 
 191   2.0000      -0.784211       -21.3395 
 192   2.0000      -0.778295       -21.1785 
 193   2.0000      -0.776496       -21.1295 
 194   2.0000      -0.772585       -21.0231 
 195   2.0000      -0.768426       -20.9099 
 196   2.0000      -0.759191       -20.6586 
 197   2.0000      -0.748314       -20.3627 
 198   2.0000      -0.746158       -20.3040 
 199   2.0000      -0.735183       -20.0053 
 200   2.0000      -0.731198       -19.8969 
 201   2.0000      -0.729044       -19.8383 
 202   2.0000      -0.726199       -19.7609 
 203   2.0000      -0.706944       -19.2369 
 204   2.0000      -0.699541       -19.0355 
 205   2.0000      -0.698206       -18.9991 
 206   2.0000      -0.693858       -18.8808 
 207   2.0000      -0.689691       -18.7675 
 208   2.0000      -0.684913       -18.6374 
 209   2.0000      -0.680954       -18.5297 
 210   2.0000      -0.676526       -18.4092 
 211   2.0000      -0.672116       -18.2892 
 212   2.0000      -0.667267       -18.1573 
 213   2.0000      -0.661050       -17.9881 
 214   2.0000      -0.655960       -17.8496 
 215   2.0000      -0.655030       -17.8243 
 216   2.0000      -0.654010       -17.7965 
 217   2.0000      -0.651479       -17.7276 
 218   2.0000      -0.644227       -17.5303 
 219   2.0000      -0.641177       -17.4473 
 220   2.0000      -0.640419       -17.4267 
 221   2.0000      -0.639132       -17.3917 
 222   2.0000      -0.636297       -17.3145 
 223   2.0000      -0.635992       -17.3062 
 224   2.0000      -0.634453       -17.2643 
 225   2.0000      -0.632674       -17.2159 
 226   2.0000      -0.629376       -17.1262 
 227   2.0000      -0.628756       -17.1093 
 228   2.0000      -0.623161       -16.9571 
 229   2.0000      -0.618201       -16.8221 
 230   2.0000      -0.614355       -16.7174 
 231   2.0000      -0.611197       -16.6315 
 232   2.0000      -0.609193       -16.5770 
 233   2.0000      -0.607734       -16.5373 
 234   2.0000      -0.604546       -16.4505 
 235   2.0000      -0.603426       -16.4200 
 236   2.0000      -0.602462       -16.3938 
 237   2.0000      -0.600730       -16.3467 
 238   2.0000      -0.597664       -16.2633 
 239   2.0000      -0.596252       -16.2248 
 240   2.0000      -0.595615       -16.2075 
 241   2.0000      -0.591352       -16.0915 
 242   2.0000      -0.589881       -16.0515 
 243   2.0000      -0.586856       -15.9692 
 244   2.0000      -0.586390       -15.9565 
 245   2.0000      -0.585934       -15.9441 
 246   2.0000      -0.583029       -15.8650 
 247   2.0000      -0.582223       -15.8431 
 248   2.0000      -0.576105       -15.6766 
 249   2.0000      -0.575317       -15.6552 
 250   2.0000      -0.572740       -15.5850 
 251   2.0000      -0.571885       -15.5618 
 252   2.0000      -0.570908       -15.5352 
 253   2.0000      -0.568797       -15.4778 
 254   2.0000      -0.566323       -15.4104 
 255   2.0000      -0.565508       -15.3883 
 256   2.0000      -0.562485       -15.3060 
 257   2.0000      -0.560814       -15.2605 
 258   2.0000      -0.557792       -15.1783 
 259   2.0000      -0.556100       -15.1322 
 260   2.0000      -0.553759       -15.0686 
 261   2.0000      -0.551124       -14.9968 
 262   2.0000      -0.547033       -14.8855 
 263   2.0000      -0.539533       -14.6815 
 264   2.0000      -0.538929       -14.6650 
 265   2.0000      -0.538261       -14.6468 
 266   2.0000      -0.533384       -14.5141 
 267   2.0000      -0.532530       -14.4909 
 268   2.0000      -0.530622       -14.4390 
 269   2.0000      -0.527660       -14.3584 
 270   2.0000      -0.526899       -14.3377 
 271   2.0000      -0.526090       -14.3156 
 272   2.0000      -0.525543       -14.3007 
 273   2.0000      -0.521688       -14.1959 
 274   2.0000      -0.520741       -14.1701 
 275   2.0000      -0.516580       -14.0569 
 276   2.0000      -0.512655       -13.9500 
 277   2.0000      -0.508491       -13.8368 
 278   2.0000      -0.507119       -13.7994 
 279   2.0000      -0.503928       -13.7126 
 280   2.0000      -0.502545       -13.6750 
 281   2.0000      -0.500703       -13.6248 
 282   2.0000      -0.499033       -13.5794 
 283   2.0000      -0.496184       -13.5018 
 284   2.0000      -0.495699       -13.4887 
 285   2.0000      -0.494264       -13.4496 
 286   2.0000      -0.493279       -13.4228 
 287   2.0000      -0.490692       -13.3524 
 288   2.0000      -0.489416       -13.3177 
 289   2.0000      -0.487771       -13.2729 
 290   2.0000      -0.486474       -13.2376 
 291   2.0000      -0.482669       -13.1341 
 292   2.0000      -0.481458       -13.1011 
 293   2.0000      -0.479730       -13.0541 
 294   2.0000      -0.479387       -13.0448 
 295   2.0000      -0.474450       -12.9104 
 296   2.0000      -0.473758       -12.8916 
 297   2.0000      -0.469079       -12.7643 
 298   2.0000      -0.469020       -12.7627 
 299   2.0000      -0.468035       -12.7359 
 300   2.0000      -0.466858       -12.7039 
 301   2.0000      -0.466800       -12.7023 
 302   2.0000      -0.465563       -12.6686 
 303   2.0000      -0.465099       -12.6560 
 304   2.0000      -0.464496       -12.6396 
 305   2.0000      -0.455592       -12.3973 
 306   2.0000      -0.447319       -12.1722 
 307   2.0000      -0.439128       -11.9493 
 308   2.0000      -0.434137       -11.8135 
 309   2.0000      -0.407347       -11.0845 
 310   2.0000      -0.404536       -11.0080 
 311   2.0000      -0.404145       -10.9974 
 312   2.0000      -0.383490       -10.4353 
 313   2.0000      -0.374188       -10.1822 
 314   2.0000      -0.373132       -10.1534 
 315   2.0000      -0.361894        -9.8476 
 316   2.0000      -0.356689        -9.7060 
 317   2.0000      -0.348130        -9.4731 
 318   2.0000      -0.346169        -9.4197 
 319   2.0000      -0.344601        -9.3771 
 320   2.0000      -0.341095        -9.2817 
 321   2.0000      -0.338886        -9.2216 
 322   2.0000      -0.336944        -9.1687 
 323   2.0000      -0.329874        -8.9763 
 324   2.0000      -0.327349        -8.9076 
 325   2.0000      -0.321383        -8.7453 
 326   2.0000      -0.318336        -8.6624 
 327   2.0000      -0.312542        -8.5047 
 328   2.0000      -0.310387        -8.4461 
 329   2.0000      -0.295304        -8.0356 
 330   2.0000      -0.253037        -6.8855 
 331   0.0000      -0.021931        -0.5968 
 332   0.0000      -0.008819        -0.2400 
 333   0.0000       0.023962         0.6520 
 334   0.0000       0.030736         0.8364 
 335   0.0000       0.054572         1.4850 
[...]
   Size of expansion space: 12
   Lowest Energy          :     0.097577403770
   Maximum Energy change  :     0.000003704454 (vector 2)
   Maximum residual norm  :     0.000000569584

                       ****Iteration   11****
   Time for densities:     2.624
   Using LibInt in JK Direct
   Time for J+K (Direct):  4118.992
   Time for Sigma-Completion:    44.663
   Size of expansion space: 15
   Lowest Energy          :     0.097577402054
   Maximum Energy change  :     0.000001067985 (vector 2)
   Maximum residual norm  :     0.000000143617

      *** CONVERGENCE OF RESIDUAL NORM REACHED ***

Storing the converged CI vectors               ... SeTIC.cis1

                 *** DAVIDSON DONE ***

Total time for solving the CIS problem: 63693.524sec

-----------------------------
CIS-EXCITED STATES (SINGLETS)
-----------------------------

the weight of the individual excitations are printed if larger than 1.0e-02

STATE  1:  E=   0.097577 au      2.655 eV    21415.8 cm**-1
   326a -> 331a  :     0.012970 (c=  0.11388644)
   329a -> 332a  :     0.183276 (c=  0.42810745)
   329a -> 334a  :     0.011822 (c= -0.10873123)
   330a -> 331a  :     0.637236 (c= -0.79827050)
   330a -> 333a  :     0.028056 (c=  0.16749978)
   330a -> 335a  :     0.020361 (c=  0.14269170)

STATE  2:  E=   0.113533 au      3.089 eV    24917.6 cm**-1
   316a -> 332a  :     0.020792 (c=  0.14419539)
   320a -> 332a  :     0.024495 (c= -0.15650945)
   325a -> 331a  :     0.020038 (c= -0.14155430)
   326a -> 332a  :     0.034983 (c=  0.18703729)
   329a -> 331a  :     0.351974 (c=  0.59327367)
   330a -> 332a  :     0.406828 (c= -0.63783084)
   330a -> 334a  :     0.015770 (c=  0.12557822)
   330a -> 336a  :     0.014818 (c=  0.12172852)

STATE  3:  E=   0.149405 au      4.066 eV    32790.7 cm**-1
   312a -> 332a  :     0.015413 (c=  0.12414878)
   316a -> 331a  :     0.027832 (c= -0.16682898)
   317a -> 332a  :     0.014752 (c= -0.12145796)
   318a -> 331a  :     0.014628 (c=  0.12094822)
   320a -> 331a  :     0.051016 (c=  0.22586793)
   322a -> 331a  :     0.023076 (c= -0.15190861)
   324a -> 331a  :     0.010963 (c=  0.10470374)
   325a -> 332a  :     0.067748 (c=  0.26028507)
   326a -> 331a  :     0.115419 (c= -0.33973367)
   329a -> 332a  :     0.117975 (c= -0.34347548)
   329a -> 336a  :     0.012000 (c= -0.10954659)
   330a -> 331a  :     0.019347 (c= -0.13909458)
   330a -> 333a  :     0.176124 (c=  0.41967154)
   330a -> 335a  :     0.151147 (c=  0.38877640)
   330a -> 338a  :     0.016402 (c=  0.12807131)


----------------------
CIS-EXCITATION SPECTRA
----------------------

Center of mass = (  3.0766, -0.2953,  1.0408)
Calculating the Dipole integrals                  ... done
Transforming integrals                            ... done
Calculating the Linear Momentum integrals         ... done
Transforming integrals                            ... done
Calculating angular momentum integrals            ... done
Transforming integrals                            ... done

-----------------------------------------------------------------------------
         ABSORPTION SPECTRUM VIA TRANSITION ELECTRIC DIPOLE MOMENTS
-----------------------------------------------------------------------------
State   Energy    Wavelength  fosc         T2        TX        TY        TZ  
        (cm-1)      (nm)                 (au**2)    (au)      (au)      (au) 
-----------------------------------------------------------------------------
   1   21415.8    466.9   1.870469474  28.75363   5.24115  -0.85897  -0.73899
   2   24917.6    401.3   0.003039638   0.04016  -0.06805  -0.02089  -0.18733
   3   32790.7    305.0   0.743053988   7.46012   2.23630   0.85236   1.31627

-----------------------------------------------------------------------------
         ABSORPTION SPECTRUM VIA TRANSITION VELOCITY DIPOLE MOMENTS
-----------------------------------------------------------------------------
State   Energy    Wavelength   fosc        P2         PX        PY        PZ  
        (cm-1)      (nm)                 (au**2)     (au)      (au)      (au) 
-----------------------------------------------------------------------------
   1   21415.8    466.9   0.715756199   0.10476  -0.31229   0.08198   0.02274
   2   24917.6    401.3   0.000127920   0.00002   0.00276   0.00089   0.00366
   3   32790.7    305.0   0.110101088   0.02467  -0.13550   0.07898   0.00878

-------------------------------------------------------------------
                             CD SPECTRUM
-------------------------------------------------------------------
State  Energy     Wavelength     R         MX        MY        MZ   
       (cm-1)       (nm)     (1e40*cgs)   (au)      (au)      (au)  
-------------------------------------------------------------------
   1   21415.8    466.9    -263.94234  -0.08535   0.11730   0.01596
   2   24917.6    401.3    192.22101  -0.37569   0.78111  -2.12715
   3   32790.7    305.0     51.81104   0.04277   0.04274  -0.01685

Total run time:    64092.019 sec

           *** ORCA-CIS/TD-DFT FINISHED WITHOUT ERROR ***

-----------------------
CIS/TD-DFT TOTAL ENERGY
-----------------------

    E(SCF)  =  -8941.621385922 Eh
    DE(CIS) =      0.097577402 Eh (Root  1)
    ----------------------------- ---------
    E(tot)  =  -8941.523808520 Eh


-------------------------   --------------------
FINAL SINGLE POINT ENERGY     -8941.523808519565
-------------------------   --------------------

------------------------------------------------------------------------------
                         ORCA SCF GRADIENT CALCULATION
------------------------------------------------------------------------------


------------
CIS GRADIENT
------------

Reference wavefunction             ... RHF
State of interest                  ... 1
Basis dimension                    ... 1526
DFT-XC contribution needed         ... NO
RI-approximation                   ... OFF
CIS-vectors being read from        ... SeTIC.cis

 => Number of Vectors found: 3
 => Orbital Window: 112...330 -> 331...1525

Reading the CIS file                     ... done
Norm of the CI vector                    ... 1.000000000
Making the CIS (pseudo)densities         ... done
Making operators G(D) and Q(T)           ... done
Transforming the Fock operators          ... done
Making the frozen-core relaxed density   ... done
Constructing the G(H) operator           ... done
Transforming the G(H) operator           ... done
Calculating the CIS Lagrangian           ... done
Solving the Z-vector equations           ... done
Finalizing the relaxed density           ... done
Storing the relaxed density              ... done
Constructing the G(Z) operator           ... done
Transforming the G(Z) operator           ... done
Making the W-matrix                      ... done
Finalizing the W-matrix                  ... done
Transforming the W-matrix                ... done
Nuclear repulsion gradient               ... done
One-Electron gradient                    ... done
Prescreening matrices                    ... done
Two-Electron gradient (4-center)         ... done
                 ---------------------------
                 EXCITED STATE GRADIENT DONE
                 ---------------------------


------------------
CARTESIAN GRADIENT
------------------

   1   C   :    0.011896311    0.003956317    0.000541595
   2   C   :   -0.012625080   -0.001155871   -0.000985865
   3   C   :    0.010755772    0.006089823    0.000713865
   4   C   :   -0.011837343   -0.003804680   -0.000247578
   5   C   :    0.012759460    0.000957639    0.000356785
   6   C   :   -0.010795812   -0.006213416   -0.001021690
   7   C   :   -0.002626739    0.004196112   -0.001235996
   8   C   :    0.005234333   -0.013630545    0.003747999
   9   C   :    0.000171050    0.006675687   -0.000511060
  10   C   :    0.002957957   -0.003995695    0.001541385
  11   C   :   -0.004923104    0.013611210   -0.004284540
  12   C   :   -0.000187997   -0.006821953    0.000636708
  13   C   :    0.002570136    0.000157890   -0.005675368
  14   C   :   -0.000873005    0.002820977    0.004394209
  15   C   :    0.000848262   -0.002450425   -0.004883001
  16   C   :   -0.002524424   -0.000549896    0.005427023
  17   C   :    0.000567585    0.004483447   -0.001401103
  18   C   :    0.003973275   -0.001545704    0.001535826
  19   Se  :   -0.000972745    0.002680693    0.000064742
  20   S   :   -0.001539921    0.006004641    0.008655445
  21   C   :    0.001244802   -0.007478622    0.005474751
  22   C   :   -0.007500227    0.003330594    0.000033542
  23   C   :   -0.000775626   -0.004654334    0.001845889
  24   C   :   -0.003982386    0.001699855   -0.001225375
  25   Se  :    0.000967674   -0.002583359   -0.000378753
  26   S   :    0.000193924   -0.005902904   -0.008387262
  27   C   :   -0.001262655    0.007064898   -0.005804465
  28   C   :    0.007005570   -0.003172695   -0.001080197
  29   C   :    0.000208691    0.000437884    0.000750931
  30   C   :   -0.001164648   -0.000392791   -0.002385581
  31   C   :    0.000296505   -0.004563173   -0.000827857
  32   C   :   -0.001504037   -0.000985401    0.001561591
  33   C   :   -0.001138365    0.001021070   -0.002286861
  34   C   :    0.000901267    0.000893504    0.001184298
  35   C   :    0.001139854    0.001343338   -0.000899945
  36   C   :   -0.002279994    0.000081428   -0.001955100
  37   C   :    0.000813074    0.000394866    0.001405389
  38   C   :    0.002205853   -0.000686368    0.000968864
  39   C   :   -0.002238554    0.000888158   -0.001023720
  40   C   :   -0.000457676   -0.000868363   -0.001535691
  41   C   :    0.002057171    0.000216877    0.002075264
  42   C   :   -0.001441709   -0.001332621    0.001142780
  43   C   :   -0.000987779   -0.000858656   -0.001730885
  44   C   :   -0.000322607   -0.000486449   -0.000238680
  45   C   :    0.000832183    0.000596720    0.002076812
  46   C   :    0.000228917    0.004375612    0.000685707
  47   C   :    0.001424515    0.000966076   -0.001018201
  48   C   :    0.000854971   -0.001293785    0.002153383
  49   C   :   -0.002611727    0.007775396    0.000024844
  50   C   :    0.003228568    0.001245630    0.004087086
  51   C   :   -0.010318487    0.007016471   -0.015884387
  52   C   :    0.019092214   -0.001613893    0.008802303
  53   C   :    0.001645956   -0.012845500   -0.002602036
  54   C   :    0.014546140    0.033737249    0.012728656
  55   C   :   -0.003536427   -0.000739248   -0.000358176
  56   C   :    0.001396360   -0.001176393    0.000586889
  57   C   :    0.001475860   -0.001561400    0.000510614
  58   C   :   -0.002178948    0.004630136   -0.001253207
  59   O   :   -0.018520563   -0.032953293   -0.011089172
  60   C   :    0.011974520    0.005830489    0.016298432
  61   C   :   -0.005833622   -0.053747269   -0.022310450
  62   C   :   -0.029030371    0.038657595   -0.031191989
  63   N   :    0.007993909    0.030191344    0.014529717
  64   N   :    0.020590424   -0.022332166    0.013146685
  65   C   :    0.002028240    0.006756731   -0.001345897
  66   C   :   -0.002449287   -0.003669139   -0.003137703
  67   C   :    0.002636305    0.000826724    0.007079499
  68   C   :   -0.003456403    0.002580792   -0.002306820
  69   C   :   -0.001685498   -0.000620023   -0.007270440
  70   C   :    0.003035158   -0.002721441    0.002716393
  71   C   :   -0.002327133   -0.006719464    0.001331416
  72   C   :    0.002525941    0.003624910    0.003149314
  73   C   :    0.002002255   -0.007470457   -0.000306811
  74   C   :   -0.003865147   -0.001559297   -0.004151937
  75   C   :    0.012563034   -0.007099653    0.014445508
  76   C   :   -0.020067668    0.001888050   -0.006158412
  77   C   :   -0.000992214    0.012810947    0.002974425
  78   C   :   -0.016564480   -0.033473308   -0.010954578
  79   C   :    0.003508496    0.000809183   -0.000202661
  80   C   :   -0.001419310    0.001208687   -0.000340155
  81   C   :   -0.001514021    0.001555400   -0.000295784
  82   C   :    0.002240903   -0.004710729    0.000758080
  83   O   :    0.020301417    0.032555075    0.008870481
  84   C   :   -0.014335322   -0.005179422   -0.015353414
  85   C   :    0.008281706    0.053272516    0.023423029
  86   C   :    0.032666187   -0.039633305    0.026470529
  87   N   :   -0.022069661    0.023121514   -0.009903103
  88   N   :   -0.009857206   -0.030460548   -0.014478673
  89   H   :   -0.001244801   -0.000066458    0.000066616
  90   H   :    0.001265324    0.000085695    0.000195531
  91   H   :    0.001861207    0.003183591   -0.000450011
  92   H   :   -0.001839088   -0.003119763    0.000785249
  93   H   :   -0.000531112    0.000514642   -0.001766054
  94   H   :    0.001239447   -0.000602881   -0.001259378
  95   H   :   -0.001758868    0.000614182   -0.000026189
  96   H   :    0.000445476    0.002066465   -0.002644049
  97   H   :   -0.000926993    0.001494439    0.000403425
  98   H   :   -0.000072919    0.001514688   -0.000587255
  99   H   :   -0.000283267   -0.000631792    0.000854172
 100   H   :   -0.000653158    0.001538865    0.000543116
 101   H   :    0.000727940   -0.001589211   -0.000486070
 102   H   :    0.000457300    0.000727868   -0.000845397
 103   H   :    0.000023288   -0.001488136    0.000555944
 104   H   :    0.000912016   -0.001538176   -0.000179989
 105   H   :    0.000492024   -0.000513462    0.001807717
 106   H   :   -0.001266795    0.000636453    0.001219433
 107   H   :    0.001727810   -0.000639772    0.000128581
 108   H   :   -0.000643886   -0.001989508    0.002527278
 109   H   :    0.000603509   -0.000660215   -0.001430637
 110   H   :    0.001844944   -0.000877019    0.000217881
 111   H   :    0.000332345   -0.001558686   -0.000076933
 112   H   :    0.001344322   -0.000854652    0.000667152
 113   H   :    0.001205208    0.000938946    0.000538940
 114   H   :   -0.002452164   -0.000850346   -0.000357046
 115   H   :    0.000711089   -0.002038959   -0.001500115
 116   H   :    0.002254774    0.001808378   -0.000090477
 117   H   :    0.000016312    0.002721057   -0.002776586
 118   H   :   -0.000306319    0.002819922    0.000800467
 119   H   :   -0.002116566   -0.000419601    0.000272257
 120   H   :    0.001238683    0.003325010   -0.002338423
 121   H   :    0.002885170    0.000667450    0.000907954
 122   H   :    0.000453931    0.001941535    0.003246735
 123   H   :    0.001324401   -0.001227389    0.002482832
 124   H   :   -0.001181194   -0.003175252    0.002021094
 125   H   :    0.002175365    0.000423639    0.000021966
 126   H   :   -0.000939354    0.001333865   -0.002609050
 127   H   :   -0.000010527   -0.001807889   -0.003313688
 128   H   :   -0.002740150   -0.000563214   -0.001272176
 129   H   :   -0.000722207    0.002039634    0.001470492
 130   H   :    0.002487292    0.000745474    0.000411762
 131   H   :    0.000235653   -0.002801397   -0.000739085
 132   H   :   -0.000208958   -0.002706114    0.002748612
 133   H   :   -0.002342493   -0.001744563    0.000013165
 134   H   :   -0.000396809    0.000630806    0.001541582
 135   H   :   -0.001896338    0.000862835    0.000063243
 136   H   :   -0.000289647    0.001551198    0.000131259
 137   H   :   -0.001412595    0.000876070   -0.000481683
 138   H   :   -0.001275400   -0.000924748   -0.000402272

Difference to translation invariance:
           :   -0.0000000001    0.0000000007   -0.0000000003

Norm of the cartesian gradient     ...    0.1750469185
RMS gradient                       ...    0.0086030867
MAX gradient                       ...    0.0537472695

-------
TIMINGS
-------

Total CIS gradient time            ...    51384.241 sec

Fock matrix formation       ....    4234.073 sec  (  8.2%)
  Coulomb formation         ....    4234.073 sec  (100.0% of F)
Z-vector equation           ....   43001.721 sec  ( 83.7%)
One electron gradient       ....      28.175 sec  (  0.1%)
Prescreening matrices       ....       1.893 sec  (  0.0%)
Two electron gradient       ....    4111.906 sec  (  8.0%)

                            ***************************************
                            *     ORCA property calculations      *
                            ***************************************

                                    ---------------------
                                    Active property flags
                                    ---------------------
   (+) Dipole Moment


------------------------------------------------------------------------------
                       ORCA ELECTRIC PROPERTIES CALCULATION
------------------------------------------------------------------------------

Dipole Moment Calculation                       ... on
Quadrupole Moment Calculation                   ... off
Polarizability Calculation                      ... off
GBWName                                         ... SeTIC.gbw
Electron density file                           ... SeTIC.scfp
The origin for moment calculation is the CENTER OF MASS  = ( 3.076647, -0.295326  1.040824)

-------------
DIPOLE MOMENT
-------------
                                X             Y             Z
Electronic contribution:      0.91602       0.38995       0.68199
Nuclear contribution   :     -0.69799      -0.43075      -0.78297
                        -----------------------------------------
Total Dipole Moment    :      0.21803      -0.04081      -0.10098
                        -----------------------------------------
Magnitude (a.u.)       :      0.24372
Magnitude (Debye)      :      0.61948



--------------------
Rotational spectrum 
--------------------
 
Rotational constants in cm-1:     0.001278     0.000279     0.000275 
Rotational constants in MHz :    38.324952     8.367178     8.254793 

 Dipole components along the rotational axes: 
x,y,z [a.u.] :    -0.226780    -0.003048    -0.089215 
x,y,z [Debye]:    -0.576429    -0.007747    -0.226766 

 

                        *** CIS RELAXED DENSITY ***

------------------------------------------------------------------------------
                       ORCA ELECTRIC PROPERTIES CALCULATION
------------------------------------------------------------------------------

Dipole Moment Calculation                       ... on
Quadrupole Moment Calculation                   ... off
Polarizability Calculation                      ... off
GBWName                                         ... SeTIC.gbw
Electron density file                           ... SeTIC.cisp
The origin for moment calculation is the CENTER OF MASS  = ( 3.076647, -0.295326  1.040824)

-------------
DIPOLE MOMENT
-------------
                                X             Y             Z
Electronic contribution:      0.93984       0.40140       0.76491
Nuclear contribution   :     -0.69799      -0.43075      -0.78297
                        -----------------------------------------
Total Dipole Moment    :      0.24185      -0.02935      -0.01806
                        -----------------------------------------
Magnitude (a.u.)       :      0.24429
Magnitude (Debye)      :      0.62094



--------------------
Rotational spectrum 
--------------------
 
Rotational constants in cm-1:     0.001278     0.000279     0.000275 
Rotational constants in MHz :    38.324952     8.367178     8.254793 

 Dipole components along the rotational axes: 
x,y,z [a.u.] :    -0.244204     0.004980    -0.004322 
x,y,z [Debye]:    -0.620718     0.012657    -0.010987 

 

Timings for individual modules:

Sum of individual times         ...   132823.988 sec (=2213.733 min)
GTO integral calculation        ...        4.550 sec (=   0.076 min)   0.0 %
SCF iterations                  ...    17343.025 sec (= 289.050 min)  13.1 %
CIS module                      ...    64092.126 sec (=1068.202 min)  48.3 %
SCF Gradient evaluation         ...    51384.286 sec (= 856.405 min)  38.7 %
                             ****ORCA TERMINATED NORMALLY****
TOTAL RUN TIME: 1 days 12 hours 53 minutes 45 seconds 241 msec
