
                                 *****************
                                 * O   R   C   A *
                                 *****************

           --- An Ab Initio, DFT and Semiempirical electronic structure package ---

                  #######################################################
                  #                        -***-                        #
                  #          Department of theory and spectroscopy      #
                  #               Directorship: Frank Neese             #
                  #        Max Planck Institute fuer Kohlenforschung    #
                  #                Kaiser Wilhelm Platz 1               #
                  #                 D-45470 Muelheim/Ruhr               #
                  #                      Germany                        #
                  #                                                     #
                  #                  All rights reserved                #
                  #                        -***-                        #
                  #######################################################


                         Program Version 4.2.0 -  RELEASE  -


 With contributions from (in alphabetic order):
   Daniel Aravena         : Magnetic Suceptibility
   Michael Atanasov       : Ab Initio Ligand Field Theory (pilot matlab implementation)
   Alexander A. Auer      : GIAO ZORA, VPT2
   Ute Becker             : Parallelization
   Giovanni Bistoni       : ED, misc. LED, open-shell LED, HFLED
   Martin Brehm           : Molecular dynamics
   Dmytro Bykov           : SCF Hessian
   Vijay G. Chilkuri      : MRCI spin determinant printing, contributions to CSF-ICE
   Dipayan Datta          : RHF DLPNO-CCSD density
   Achintya Kumar Dutta   : EOM-CC, STEOM-CC
   Dmitry Ganyushin       : Spin-Orbit,Spin-Spin,Magnetic field MRCI
   Miquel Garcia          : C-PCM Hessian, Gaussian charge scheme
   Yang Guo               : DLPNO-NEVPT2, CIM, IAO-localization
   Andreas Hansen         : Spin unrestricted coupled pair/coupled cluster methods
   Benjamin Helmich-Paris : CASSCF linear response (MC-RPA)
   Lee Huntington         : MR-EOM, pCC
   Robert Izsak           : Overlap fitted RIJCOSX, COSX-SCS-MP3, EOM
   Christian Kollmar      : KDIIS, OOCD, Brueckner-CCSD(T), CCSD density
   Simone Kossmann        : Meta GGA functionals, TD-DFT gradient, OOMP2, MP2 Hessian
   Martin Krupicka        : AUTO-CI
   Lucas Lang             : DCDCAS
   Dagmar Lenk            : GEPOL surface, SMD
   Dimitrios Liakos       : Extrapolation schemes; Compound Job, initial MDCI parallelization
   Dimitrios Manganas     : Further ROCIS development; embedding schemes
   Dimitrios Pantazis     : SARC Basis sets
   Taras Petrenko         : DFT Hessian,TD-DFT gradient, ASA, ECA, R-Raman, ABS, FL, XAS/XES, NRVS
   Peter Pinski           : DLPNO-MP2, DLPNO-MP2 Gradient
   Christoph Reimann      : Effective Core Potentials
   Marius Retegan         : Local ZFS, SOC
   Christoph Riplinger    : Optimizer, TS searches, QM/MM, DLPNO-CCSD(T), (RO)-DLPNO pert. Triples
   Tobias Risthaus        : Range-separated hybrids, TD-DFT gradient, RPA, STAB
   Michael Roemelt        : Original ROCIS implementation
   Masaaki Saitow         : Open-shell DLPNO-CCSD energy and density
   Barbara Sandhoefer     : DKH picture change effects
   Avijit Sen             : IP-ROCIS
   Kantharuban Sivalingam : CASSCF convergence, NEVPT2, FIC-MRCI
   Bernardo de Souza      : ESD, SOC TD-DFT
   Georgi Stoychev        : AutoAux, RI-MP2 NMR
   Willem Van den Heuvel  : Paramagnetic NMR
   Boris Wezisla          : Elementary symmetry handling
   Frank Wennmohs         : Technical directorship


 We gratefully acknowledge several colleagues who have allowed us to
 interface, adapt or use parts of their codes:
   Stefan Grimme, W. Hujo, H. Kruse,             : VdW corrections, initial TS optimization,
                  C. Bannwarth                     DFT functionals, gCP, sTDA/sTD-DF
   Ed Valeev, F. Pavosevic, A. Kumar             : LibInt (2-el integral package), F12 methods
   Garnet Chan, S. Sharma, J. Yang, R. Olivares  : DMRG
   Ulf Ekstrom                                   : XCFun DFT Library
   Mihaly Kallay                                 : mrcc  (arbitrary order and MRCC methods)
   Andreas Klamt, Michael Diedenhofen            : otool_cosmo (COSMO solvation model)
   Jiri Pittner, Ondrej Demel                    : Mk-CCSD
   Frank Weinhold                                : gennbo (NPA and NBO analysis)
   Christopher J. Cramer and Donald G. Truhlar   : smd solvation model
   Lars Goerigk                                  : TD-DFT with DH, B97 family of functionals
   V. Asgeirsson, H. Jonsson                     : NEB implementation
   FAccTs GmbH                                   : IRC, NEB, NEB-TS, Multilevel, MM, QM/MM, CI optimization
   S Lehtola, MJT Oliveira, MAL Marques          : LibXC Library


 Your calculation uses the libint2 library for the computation of 2-el integrals
 For citations please refer to: http://libint.valeyev.net

 Your ORCA version has been built with support for libXC version: 4.2.3
 For citations please refer to: https://tddft.org/programs/libxc/

 This ORCA versions uses:
   CBLAS   interface :  Fast vector & matrix operations
   LAPACKE interface :  Fast linear algebra routines
   SCALAPACK package :  Parallel linear algebra routines


----- Orbital basis set information -----
Your calculation utilizes the basis: def2-SVP
   F. Weigend and R. Ahlrichs, Phys. Chem. Chem. Phys. 7, 3297 (2005).

================================================================================
                                        WARNINGS
                       Please study these warnings very carefully!
================================================================================

INFO   : Checking CIS options ...

WARNING: CIS/ROCIS methods need fully converged wavefunctions
  ===> : Setting SCFConvForced true
         You can overwrite this default with %scf ConvForced false 


INFO   : the flag for use of LIBINT has been found!

================================================================================
                                       INPUT FILE
================================================================================
NAME = SNBDT1-F.inp
|  1> # ORCA input file
|  2> # SNBDT1-F.out: Geometry 170
|  3> ! Engrad Keepdens
|  4> %maxcore 1000
|  5> %tddft
|  6>   nroots 3 
|  7>   # nroots is the number of states to be computed
|  8>   Iroot 1
|  9>   end
| 10> * xyz 0 1
| 11>    C       -3.02947        -0.81091         0.18491
| 12>    C       -1.97407        -0.21533        -0.53148
| 13>    C       -0.68458        -0.69249        -0.32498
| 14>    C       -0.36290        -1.72726         0.61672
| 15>    C       -1.41665        -2.25157         1.41810
| 16>    C       -2.72276        -1.77071         1.21500
| 17>    S        0.69953         0.01391        -1.15209
| 18>    C        1.75073        -1.02901        -0.24277
| 19>    C        1.07578        -1.91824         0.63522
| 20>    C        3.12978        -1.22518        -0.08882
| 21>    C        3.27602        -2.24751         0.87931
| 22>    N        2.03102        -2.66983         1.31459
| 23>    S        4.66005        -0.65745        -0.66057
| 24>    C        5.50513        -1.81243         0.39360
| 25>    C        4.60857        -2.59314         1.13885
| 26>    S       -4.13158        -2.06215         2.27995
| 27>    C       -5.11036        -0.97651         1.32718
| 28>    C       -4.42500        -0.46594         0.20571
| 29>    C       -6.37937        -0.36164         1.35909
| 30>    C       -6.43507         0.47970         0.21833
| 31>    N       -5.26193         0.38449        -0.50750
| 32>    S       -7.81324        -0.19879         2.31859
| 33>    C       -8.45136         1.03110         1.20461
| 34>    C       -7.59537         1.25205         0.12494
| 35>    O       -1.05712        -3.12846         2.39392
| 36>    O       -2.16552         0.86645        -1.34591
| 37>    C       -2.48747         2.10067        -0.65805
| 38>    C       -1.26840         2.88939        -0.18849
| 39>    C       -0.44804         3.41360        -1.36879
| 40>    C       -1.74799         4.02705         0.72087
| 41>    C       -1.94101        -4.15577         2.84747
| 42>    C       -1.16590        -5.13587         3.72346
| 43>    C       -0.52909        -4.43194         4.92562
| 44>    C       -2.09096        -6.27316         4.16661
| 45>    C       -5.18977         0.76637        -1.91542
| 46>    C       -5.72932        -0.29131        -2.89690
| 47>    C        1.90915        -3.86285         2.14070
| 48>    C        2.28917        -5.15073         1.38695
| 49>    C       -7.16915        -0.72884        -2.61677
| 50>    C       -5.59512         0.25787        -4.32057
| 51>    C        2.56263        -6.28381         2.37931
| 52>    C        1.22904        -5.53834         0.35465
| 53>    C        6.90366        -2.04307         0.35829
| 54>    C        7.95107        -1.38702        -0.24651
| 55>    C        9.17124        -2.18517        -0.58601
| 56>    C        9.92731        -1.35571        -1.56878
| 57>    C        9.26534        -0.12169        -1.75291
| 58>    C        8.11981        -0.05767        -0.81245
| 59>    C       11.08567        -1.69344        -2.25467
| 60>    C       11.56812        -0.75921        -3.17141
| 61>    C       10.92827         0.46402        -3.39452
| 62>    C        9.77493         0.79836        -2.67856
| 63>    C       -9.70380         1.66060         1.44755
| 64>    C      -10.14885         2.86933         0.96159
| 65>    C      -11.62534         3.11677         0.86324
| 66>    C      -11.77266         4.30180        -0.03410
| 67>    C      -10.49420         4.80149        -0.36331
| 68>    C       -9.46992         4.02057         0.37139
| 69>    C      -12.94436         4.85882        -0.53208
| 70>    C      -12.80802         5.93841        -1.40739
| 71>    C      -11.55607         6.44707        -1.76844
| 72>    C      -10.38914         5.88895        -1.24160
| 73>    O      -12.51628         2.45826         1.35735
| 74>    F      -13.89616         6.51131        -1.92954
| 75>    C       -8.17683         4.45446         0.61422
| 76>    C       -7.63279         5.63373         0.01634
| 77>    C       -7.28620         3.82650         1.53851
| 78>    N       -7.15702         6.57434        -0.47389
| 79>    N       -6.52321         3.37772         2.29167
| 80>    O        9.45040        -3.30288        -0.20251
| 81>    F       12.67496        -1.03764        -3.86532
| 82>    C        7.50812         1.10318        -0.37041
| 83>    C        7.72703         2.37004        -0.99409
| 84>    C        6.73029         1.13747         0.82808
| 85>    N        6.14497         1.18656         1.83061
| 86>    N        7.88682         3.39684        -1.51542
| 87>    H        4.94958        -3.36827         1.82462
| 88>    H       -7.83073         1.94773        -0.67755
| 89>    H       -3.15068         1.87701         0.19129
| 90>    H       -3.06027         2.69819        -1.38451
| 91>    H       -0.63842         2.20849         0.40993
| 92>    H       -1.02657         4.16031        -1.93910
| 93>    H       -0.16917         2.60315        -2.05670
| 94>    H        0.47693         3.89876        -1.02143
| 95>    H       -2.42247         4.71005         0.17657
| 96>    H       -0.89831         4.62295         1.08684
| 97>    H       -2.29640         3.64291         1.59565
| 98>    H       -2.38710        -4.66439         1.97549
| 99>    H       -2.75696        -3.72187         3.44840
|100>    H       -0.36621        -5.57350         3.10279
|101>    H       -1.30859        -4.00631         5.57965
|102>    H        0.13202        -3.60972         4.61695
|103>    H        0.06220        -5.14104         5.52647
|104>    H       -2.90975        -5.89532         4.80157
|105>    H       -1.53103        -7.01557         4.75626
|106>    H       -2.54129        -6.79512         3.30704
|107>    H       -4.14440         0.97052        -2.16445
|108>    H       -5.75407         1.70609        -2.02349
|109>    H       -5.07738        -1.17769        -2.79877
|110>    H        0.88530        -3.90679         2.50989
|111>    H        2.57123        -3.72937         3.01056
|112>    H        3.22864        -4.94626         0.84462
|113>    H       -7.49112        -1.47555        -3.35909
|114>    H       -7.86407         0.12513        -2.68437
|115>    H       -7.28542        -1.18067        -1.62145
|116>    H       -6.25427         1.13088        -4.46289
|117>    H       -5.88672        -0.50008        -5.06349
|118>    H       -4.56530         0.57891        -4.54303
|119>    H        1.65618        -6.54532         2.94974
|120>    H        3.34301        -6.00644         3.10546
|121>    H        2.89923        -7.19155         1.85510
|122>    H        0.30217        -5.86866         0.85166
|123>    H        1.58178        -6.36710        -0.27861
|124>    H        0.97454        -4.69495        -0.30554
|125>    H        7.20441        -3.00307         0.79717
|126>    H       11.59241        -2.64453        -2.08456
|127>    H       11.35133         1.15047        -4.13006
|128>    H        9.29301         1.75692        -2.85994
|129>    H      -10.45636         1.09576         2.01313
|130>    H      -13.92265         4.46526        -0.25149
|131>    H      -11.51415         7.28931        -2.46121
|132>    H       -9.42652         6.30462        -1.53106
|133> *
|134> 
|135>                          ****END OF INPUT****
================================================================================

                     *******************************
                     * Energy+Gradient Calculation *
                     *******************************

---------------------------------
CARTESIAN COORDINATES (ANGSTROEM)
---------------------------------
  C     -3.029470   -0.810910    0.184910
  C     -1.974070   -0.215330   -0.531480
  C     -0.684580   -0.692490   -0.324980
  C     -0.362900   -1.727260    0.616720
  C     -1.416650   -2.251570    1.418100
  C     -2.722760   -1.770710    1.215000
  S      0.699530    0.013910   -1.152090
  C      1.750730   -1.029010   -0.242770
  C      1.075780   -1.918240    0.635220
  C      3.129780   -1.225180   -0.088820
  C      3.276020   -2.247510    0.879310
  N      2.031020   -2.669830    1.314590
  S      4.660050   -0.657450   -0.660570
  C      5.505130   -1.812430    0.393600
  C      4.608570   -2.593140    1.138850
  S     -4.131580   -2.062150    2.279950
  C     -5.110360   -0.976510    1.327180
  C     -4.425000   -0.465940    0.205710
  C     -6.379370   -0.361640    1.359090
  C     -6.435070    0.479700    0.218330
  N     -5.261930    0.384490   -0.507500
  S     -7.813240   -0.198790    2.318590
  C     -8.451360    1.031100    1.204610
  C     -7.595370    1.252050    0.124940
  O     -1.057120   -3.128460    2.393920
  O     -2.165520    0.866450   -1.345910
  C     -2.487470    2.100670   -0.658050
  C     -1.268400    2.889390   -0.188490
  C     -0.448040    3.413600   -1.368790
  C     -1.747990    4.027050    0.720870
  C     -1.941010   -4.155770    2.847470
  C     -1.165900   -5.135870    3.723460
  C     -0.529090   -4.431940    4.925620
  C     -2.090960   -6.273160    4.166610
  C     -5.189770    0.766370   -1.915420
  C     -5.729320   -0.291310   -2.896900
  C      1.909150   -3.862850    2.140700
  C      2.289170   -5.150730    1.386950
  C     -7.169150   -0.728840   -2.616770
  C     -5.595120    0.257870   -4.320570
  C      2.562630   -6.283810    2.379310
  C      1.229040   -5.538340    0.354650
  C      6.903660   -2.043070    0.358290
  C      7.951070   -1.387020   -0.246510
  C      9.171240   -2.185170   -0.586010
  C      9.927310   -1.355710   -1.568780
  C      9.265340   -0.121690   -1.752910
  C      8.119810   -0.057670   -0.812450
  C     11.085670   -1.693440   -2.254670
  C     11.568120   -0.759210   -3.171410
  C     10.928270    0.464020   -3.394520
  C      9.774930    0.798360   -2.678560
  C     -9.703800    1.660600    1.447550
  C    -10.148850    2.869330    0.961590
  C    -11.625340    3.116770    0.863240
  C    -11.772660    4.301800   -0.034100
  C    -10.494200    4.801490   -0.363310
  C     -9.469920    4.020570    0.371390
  C    -12.944360    4.858820   -0.532080
  C    -12.808020    5.938410   -1.407390
  C    -11.556070    6.447070   -1.768440
  C    -10.389140    5.888950   -1.241600
  O    -12.516280    2.458260    1.357350
  F    -13.896160    6.511310   -1.929540
  C     -8.176830    4.454460    0.614220
  C     -7.632790    5.633730    0.016340
  C     -7.286200    3.826500    1.538510
  N     -7.157020    6.574340   -0.473890
  N     -6.523210    3.377720    2.291670
  O      9.450400   -3.302880   -0.202510
  F     12.674960   -1.037640   -3.865320
  C      7.508120    1.103180   -0.370410
  C      7.727030    2.370040   -0.994090
  C      6.730290    1.137470    0.828080
  N      6.144970    1.186560    1.830610
  N      7.886820    3.396840   -1.515420
  H      4.949580   -3.368270    1.824620
  H     -7.830730    1.947730   -0.677550
  H     -3.150680    1.877010    0.191290
  H     -3.060270    2.698190   -1.384510
  H     -0.638420    2.208490    0.409930
  H     -1.026570    4.160310   -1.939100
  H     -0.169170    2.603150   -2.056700
  H      0.476930    3.898760   -1.021430
  H     -2.422470    4.710050    0.176570
  H     -0.898310    4.622950    1.086840
  H     -2.296400    3.642910    1.595650
  H     -2.387100   -4.664390    1.975490
  H     -2.756960   -3.721870    3.448400
  H     -0.366210   -5.573500    3.102790
  H     -1.308590   -4.006310    5.579650
  H      0.132020   -3.609720    4.616950
  H      0.062200   -5.141040    5.526470
  H     -2.909750   -5.895320    4.801570
  H     -1.531030   -7.015570    4.756260
  H     -2.541290   -6.795120    3.307040
  H     -4.144400    0.970520   -2.164450
  H     -5.754070    1.706090   -2.023490
  H     -5.077380   -1.177690   -2.798770
  H      0.885300   -3.906790    2.509890
  H      2.571230   -3.729370    3.010560
  H      3.228640   -4.946260    0.844620
  H     -7.491120   -1.475550   -3.359090
  H     -7.864070    0.125130   -2.684370
  H     -7.285420   -1.180670   -1.621450
  H     -6.254270    1.130880   -4.462890
  H     -5.886720   -0.500080   -5.063490
  H     -4.565300    0.578910   -4.543030
  H      1.656180   -6.545320    2.949740
  H      3.343010   -6.006440    3.105460
  H      2.899230   -7.191550    1.855100
  H      0.302170   -5.868660    0.851660
  H      1.581780   -6.367100   -0.278610
  H      0.974540   -4.694950   -0.305540
  H      7.204410   -3.003070    0.797170
  H     11.592410   -2.644530   -2.084560
  H     11.351330    1.150470   -4.130060
  H      9.293010    1.756920   -2.859940
  H    -10.456360    1.095760    2.013130
  H    -13.922650    4.465260   -0.251490
  H    -11.514150    7.289310   -2.461210
  H     -9.426520    6.304620   -1.531060

----------------------------
CARTESIAN COORDINATES (A.U.)
----------------------------
  NO LB      ZA    FRAG     MASS         X           Y           Z
   0 C     6.0000    0    12.011   -5.724869   -1.532398    0.349429
   1 C     6.0000    0    12.011   -3.730452   -0.406915   -1.004352
   2 C     6.0000    0    12.011   -1.293669   -1.308616   -0.614123
   3 C     6.0000    0    12.011   -0.685782   -3.264048    1.165432
   4 C     6.0000    0    12.011   -2.677081   -4.254851    2.679821
   5 C     6.0000    0    12.011   -5.145271   -3.346157    2.296017
   6 S    16.0000    0    32.060    1.321920    0.026286   -2.177135
   7 C     6.0000    0    12.011    3.308400   -1.944547   -0.458769
   8 C     6.0000    0    12.011    2.032930   -3.624948    1.200392
   9 C     6.0000    0    12.011    5.914427   -2.315255   -0.167845
  10 C     6.0000    0    12.011    6.190781   -4.247178    1.661655
  11 N     7.0000    0    14.007    3.838072   -5.045248    2.484215
  12 S    16.0000    0    32.060    8.806218   -1.242400   -1.248296
  13 C     6.0000    0    12.011   10.403188   -3.424996    0.743796
  14 C     6.0000    0    12.011    8.708935   -4.900324    2.152115
  15 S    16.0000    0    32.060   -7.807555   -3.896899    4.308481
  16 C     6.0000    0    12.011   -9.657181   -1.845336    2.508007
  17 C     6.0000    0    12.011   -8.362038   -0.880499    0.388736
  18 C     6.0000    0    12.011  -12.055262   -0.683401    2.568308
  19 C     6.0000    0    12.011  -12.160520    0.906502    0.412584
  20 N     7.0000    0    14.007   -9.943607    0.726581   -0.959036
  21 S    16.0000    0    32.060  -14.764884   -0.375659    4.381500
  22 C     6.0000    0    12.011  -15.970756    1.948497    2.276383
  23 C     6.0000    0    12.011  -14.353169    2.366032    0.236102
  24 O     8.0000    0    15.999   -1.997667   -5.911933    4.523853
  25 O     8.0000    0    15.999   -4.092240    1.637353   -2.543401
  26 C     6.0000    0    12.011   -4.700637    3.969691   -1.243534
  27 C     6.0000    0    12.011   -2.396929    5.460156   -0.356194
  28 C     6.0000    0    12.011   -0.846673    6.450769   -2.586638
  29 C     6.0000    0    12.011   -3.303222    7.610022    1.362247
  30 C     6.0000    0    12.011   -3.667977   -7.853267    5.380938
  31 C     6.0000    0    12.011   -2.203232   -9.705388    7.036320
  32 C     6.0000    0    12.011   -0.999835   -8.375153    9.308073
  33 C     6.0000    0    12.011   -3.951342  -11.854554    7.873752
  34 C     6.0000    0    12.011   -9.807244    1.448229   -3.619619
  35 C     6.0000    0    12.011  -10.826846   -0.550496   -5.474348
  36 C     6.0000    0    12.011    3.607771   -7.299729    4.045337
  37 C     6.0000    0    12.011    4.325904   -9.733469    2.620956
  38 C     6.0000    0    12.011  -13.547730   -1.377308   -4.944979
  39 C     6.0000    0    12.011  -10.573244    0.487304   -8.164694
  40 C     6.0000    0    12.011    4.842669  -11.874680    4.496244
  41 C     6.0000    0    12.011    2.322549  -10.465946    0.670191
  42 C     6.0000    0    12.011   13.046027   -3.860843    0.677070
  43 C     6.0000    0    12.011   15.025345   -2.621088   -0.465836
  44 C     6.0000    0    12.011   17.331132   -4.129373   -1.107398
  45 C     6.0000    0    12.011   18.759897   -2.561921   -2.964565
  46 C     6.0000    0    12.011   17.508955   -0.229961   -3.312520
  47 C     6.0000    0    12.011   15.344217   -0.108981   -1.535308
  48 C     6.0000    0    12.011   20.948880   -3.200138   -4.260709
  49 C     6.0000    0    12.011   21.860579   -1.434699   -5.993096
  50 C     6.0000    0    12.011   20.651437    0.876871   -6.414713
  51 C     6.0000    0    12.011   18.471941    1.508682   -5.061745
  52 C     6.0000    0    12.011  -18.337524    3.138079    2.735473
  53 C     6.0000    0    12.011  -19.178547    5.422248    1.817142
  54 C     6.0000    0    12.011  -21.968709    5.889842    1.631287
  55 C     6.0000    0    12.011  -22.247103    8.129224   -0.064440
  56 C     6.0000    0    12.011  -19.831164    9.073501   -0.686556
  57 C     6.0000    0    12.011  -17.895555    7.597776    0.701825
  58 C     6.0000    0    12.011  -24.461295    9.181839   -1.005485
  59 C     6.0000    0    12.011  -24.203650   11.221969   -2.659582
  60 C     6.0000    0    12.011  -21.837807   12.183197   -3.341867
  61 C     6.0000    0    12.011  -19.632629   11.128503   -2.346284
  62 O     8.0000    0    15.999  -23.652341    4.645438    2.565020
  63 F     9.0000    0    18.998  -26.259937   12.304593   -3.646302
  64 C     6.0000    0    12.011  -15.451969    8.417709    1.160708
  65 C     6.0000    0    12.011  -14.423883   10.646207    0.030878
  66 C     6.0000    0    12.011  -13.768923    7.231037    2.907363
  67 N     7.0000    0    14.007  -13.524808   12.423702   -0.895522
  68 N     7.0000    0    14.007  -12.327080    6.382966    4.330629
  69 O     8.0000    0    15.999   17.858668   -6.241539   -0.382688
  70 F     9.0000    0    18.998   23.952203   -1.960855   -7.304396
  71 C     6.0000    0    12.011   14.188291    2.084708   -0.699973
  72 C     6.0000    0    12.011   14.601971    4.478727   -1.878558
  73 C     6.0000    0    12.011   12.718405    2.149507    1.564844
  74 N     7.0000    0    14.007   11.612310    2.242273    3.459352
  75 N     7.0000    0    14.007   14.903930    6.419097   -2.863729
  76 H     1.0000    0     1.008    9.353351   -6.365108    3.448032
  77 H     1.0000    0     1.008  -14.797935    3.680676   -1.280384
  78 H     1.0000    0     1.008   -5.953922    3.547035    0.361486
  79 H     1.0000    0     1.008   -5.783072    5.098840   -2.616345
  80 H     1.0000    0     1.008   -1.206439    4.173441    0.774655
  81 H     1.0000    0     1.008   -1.939936    7.861847   -3.664368
  82 H     1.0000    0     1.008   -0.319685    4.919241   -3.886600
  83 H     1.0000    0     1.008    0.901267    7.367589   -1.930223
  84 H     1.0000    0     1.008   -4.577805    8.900705    0.333669
  85 H     1.0000    0     1.008   -1.697560    8.736109    2.053830
  86 H     1.0000    0     1.008   -4.339567    6.884102    3.015342
  87 H     1.0000    0     1.008   -4.510965   -8.814420    3.733135
  88 H     1.0000    0     1.008   -5.209899   -7.033315    6.516532
  89 H     1.0000    0     1.008   -0.692037  -10.532389    5.863423
  90 H     1.0000    0     1.008   -2.472877   -7.570829   10.544010
  91 H     1.0000    0     1.008    0.249482   -6.821382    8.724771
  92 H     1.0000    0     1.008    0.117541   -9.715158   10.443515
  93 H     1.0000    0     1.008   -5.498631  -11.140540    9.073652
  94 H     1.0000    0     1.008   -2.893227  -13.257506    8.988029
  95 H     1.0000    0     1.008   -4.802342  -12.840916    6.249400
  96 H     1.0000    0     1.008   -7.831781    1.834017   -4.090218
  97 H     1.0000    0     1.008  -10.873616    3.224043   -3.823842
  98 H     1.0000    0     1.008   -9.594858   -2.225512   -5.288909
  99 H     1.0000    0     1.008    1.672975   -7.382763    4.743005
 100 H     1.0000    0     1.008    4.858921   -7.047488    5.689134
 101 H     1.0000    0     1.008    6.101245   -9.347077    1.596100
 102 H     1.0000    0     1.008  -14.156165   -2.788385   -6.347760
 103 H     1.0000    0     1.008  -14.860939    0.236461   -5.072724
 104 H     1.0000    0     1.008  -13.767449   -2.231143   -3.064096
 105 H     1.0000    0     1.008  -11.818857    2.137053   -8.433640
 106 H     1.0000    0     1.008  -11.124289   -0.945014   -9.568609
 107 H     1.0000    0     1.008   -8.627167    1.093981   -8.585083
 108 H     1.0000    0     1.008    3.129727  -12.368862    5.574201
 109 H     1.0000    0     1.008    6.317373  -11.350527    5.868469
 110 H     1.0000    0     1.008    5.478751  -13.590060    3.505631
 111 H     1.0000    0     1.008    0.571019  -11.090160    1.609404
 112 H     1.0000    0     1.008    2.989131  -12.032075   -0.526497
 113 H     1.0000    0     1.008    1.841614   -8.872170   -0.577387
 114 H     1.0000    0     1.008   13.614362   -5.674980    1.506433
 115 H     1.0000    0     1.008   21.906480   -4.997437   -3.939248
 116 H     1.0000    0     1.008   21.450905    2.174073   -7.804682
 117 H     1.0000    0     1.008   17.561244    3.320098   -5.404503
 118 H     1.0000    0     1.008  -19.759657    2.070686    3.804264
 119 H     1.0000    0     1.008  -26.309996    8.438119   -0.475247
 120 H     1.0000    0     1.008  -21.758590   13.774800   -4.651013
 121 H     1.0000    0     1.008  -17.813541   11.914005   -2.893284

--------------------------------
INTERNAL COORDINATES (ANGSTROEM)
--------------------------------
 C      0   0   0     0.000000000000     0.00000000     0.00000000
 C      1   0   0     1.407763946299     0.00000000     0.00000000
 C      2   1   0     1.390362677757   118.32900309     0.00000000
 C      3   2   1     1.435627342070   123.54563152   357.59685902
 C      4   3   2     1.423903066574   117.95361478   357.36708441
 C      5   4   3     1.406555822461   118.68833163     2.38684735
 S      3   2   1     1.760361441352   121.44772275   181.27717930
 C      7   3   2     1.737689969126    89.36596240   175.57435165
 C      8   7   3     1.420265445436   114.31662319     1.76075937
 C      8   7   3     1.401414347686   137.45828069   184.40971800
 C     10   8   7     1.415563655722   106.13403158   177.98271970
 N     11  10   8     1.384863841971   110.01883777   359.85308599
 S     10   8   7     1.729433921345   142.04077079   358.13247716
 C     13  10   8     1.777473880455    90.64793349   180.43353430
 C     11  10   8     1.400896359835   113.77583787   178.78376864
 S      6   5   4     1.789924458881   126.10740985   191.54770327
 C     16   6   5     1.744819523876    90.87831372   174.02670500
 C     17  16   6     1.409998232410   112.76510618     3.04353464
 C     17  16   6     1.410485641579   139.78093767   188.27538422
 C     19  17  16     1.418551678015   106.00264586   176.72256207
 N     20  19  17     1.382805695895   110.36253132     0.77506886
 S     19  17  16     1.732958034518   142.93110999     1.95917795
 C     22  19  17     1.777857695908    90.86301404   173.06630574
 C     23  22  19     1.395430074027   111.97255572     1.98629486
 O      5   4   3     1.360302380135   116.45546144   186.60706448
 O      2   1   3     1.367551569704   122.19267573   184.53253643
 C     26   2   1     1.449172933262   114.96890954    69.17972059
 C     27  26   2     1.526007043529   114.12737327    85.92516827
 C     28  27  26     1.529998282254   111.59516118    66.08985230
 C     28  27  26     1.533366379343   108.42695609   189.62524297
 C     25   5   4     1.429102855186   121.84258306   208.87603415
 C     31  25   5     1.526024246924   109.25154229   168.57164697
 C     32  31  25     1.531741847245   111.50180772    58.47630844
 C     32  31  25     1.531517701563   109.64775088   182.36148562
 C     21  20  19     1.460574587756   121.99774094   159.33822934
 C     35  21  20     1.540488291192   114.66649422   280.20811310
 C     12  11  10     1.456230321549   120.22376612   169.66419592
 C     37  12  11     1.539866603736   112.75865354   293.31800562
 C     36  35  21     1.530691264331   114.14890503    55.61080899
 C     36  35  21     1.531810883007   108.37929207   179.59026727
 C     38  37  12     1.530826256503   110.23210550   162.54578677
 C     38  37  12     1.529627542574   111.79194630   287.73755930
 C     14  13  10     1.417860277531   124.04795539   172.42049013
 C     43  14  13     1.375955068525   133.17531792    11.70600738
 C     44  43  14     1.497036573167   117.76958682   206.49072907
 C     45  44  43     1.491805151285   105.42895077   163.19523275
 C     46  45  44     1.412414067545   109.51977328     3.19815922
 C     44  43  14     1.454624588579   134.03117405    17.47141374
 C     46  45  44     1.387913734567   127.82513946   184.65579253
 C     49  46  45     1.394975240999   116.77247469   177.15090689
 C     50  49  46     1.398383969981   122.16976425     0.23203662
 C     51  50  49     1.398061197802   120.32840398     0.85300385
 C     23  22  19     1.422637004720   121.00355200   181.35643671
 C     53  23  22     1.376682547649   127.79423916   158.21201796
 C     54  53  23     1.500307300589   119.08394648   155.87987657
 C     55  54  53     1.493726333336   105.50264125   195.73188332
 C     56  55  54     1.411569796999   109.36706860   355.49951744
 C     54  53  23     1.461039192664   133.17284236   342.20091081
 C     56  55  54     1.389653284384   128.05575444   174.00428464
 C     59  56  55     1.396520948572   116.88210981   182.81410525
 C     60  59  56     1.398739039492   122.02553800   359.73688043
 C     61  60  59     1.396704673473   120.33979001   359.23387912
 O     55  54  53     1.213076335521   127.34098729    12.69369496
 F     60  59  56     1.336002878777   119.79826832   179.45104947
 C     58  54  53     1.385391168263   127.56818916   331.04302704
 C     65  58  54     1.429726459467   122.69699269   182.64544093
 C     65  58  54     1.428939313827   123.88291709   358.68004334
 N     66  65  58     1.162510093677   178.11264147   218.85340835
 N     67  65  58     1.162242321592   176.39963794   199.96979851
 O     45  44  43     1.214198583305   127.34041773   346.95444994
 F     50  49  46     1.335712970140   119.23488089   180.44366821
 C     48  44  43     1.384607070688   126.20924152    32.82742917
 C     72  48  44     1.428927076551   122.43098351   180.37394183
 C     72  48  44     1.429186339530   121.88876719     7.29903929
 N     74  72  48     1.161927593011   177.10036661    97.79842147
 N     73  72  48     1.162598835798   178.85039696    91.39963285
 H     15  11  10     1.089676479465   126.14105342   181.69977620
 H     24  23  22     1.087821305224   122.63704064   178.09882601
 H     27  26   2     1.100567914897   109.09306849   321.89200718
 H     27  26   2     1.101305644224   105.33888249   206.38580901
 H     28  27  26     1.103904935581   107.69215972   306.65077897
 H     29  28  27     1.103415733575   110.45429169    65.82726018
 H     29  28  27     1.099007664896   111.48548148   305.77886556
 H     29  28  27     1.100730982620   110.98585121   185.31231176
 H     30  28  27     1.103483013191   110.96941745   299.28066255
 H     30  28  27     1.100448523694   110.94637230   179.83134180
 H     30  28  27     1.101615684393   111.58731905    59.33905724
 H     31  25   5     1.103648364698   109.30085216    46.59696419
 H     31  25   5     1.102343175876   110.35673839   287.67705492
 H     32  31  25     1.102839680960   107.46403207   299.30498473
 H     33  32  31     1.102967083734   110.42063336    63.11348663
 H     33  32  31     1.099267633199   111.92499129   303.22811531
 H     33  32  31     1.101574961861   110.81883044   182.38688505
 H     34  32  31     1.102884550304   111.13755413   296.20441459
 H     34  32  31     1.101081893185   110.39506176   177.05127888
 H     34  32  31     1.101862031018   111.89483752    56.95241759
 H     35  21  20     1.093842584790   108.38926305   158.79390499
 H     35  21  20     1.101447816876   106.99785065    42.62075822
 H     36  35  21     1.104683106099   106.71488276   296.34861800
 H     37  12  11     1.089266176010   107.69717103   170.06382774
 H     37  12  11     1.101282550665   107.36593404    54.45540751
 H     38  37  12     1.103872135123   107.19352803    45.62905352
 H     39  36  35     1.101035643111   110.21438815   179.46396109
 H     39  36  35     1.103063156533   111.10567719    60.50201060
 H     39  36  35     1.099241085568   112.50053626   299.42724762
 H     40  36  35     1.103122914729   110.56613312   294.08877871
 H     40  36  35     1.100658388829   110.93015095   175.00444347
 H     40  36  35     1.101401092064   111.97096233    54.03194329
 H     41  38  37     1.102465177455   111.35295653    63.95470882
 H     41  38  37     1.101463065109   111.56381733   303.81026624
 H     41  38  37     1.100948496388   110.86912135   183.70757864
 H     42  38  37     1.102369375210   110.75595553   290.85713309
 H     42  38  37     1.101038996948   110.90687744   171.39892373
 H     42  38  37     1.100875914079   111.76531318    51.06709508
 H     43  14  13     1.097572875439   113.74071014   200.51404931
 H     49  46  45     1.091006428854   121.51522202   357.21673878
 H     51  50  49     1.091426799057   118.70703279   180.39809559
 H     52  51  50     1.088109766706   119.38518686   179.61730451
 H     53  23  22     1.097848585006   117.63217651   332.17551079
 H     59  56  55     1.091178970563   121.27944672     2.63129504
 H     61  60  59     1.091355018727   118.61227157   179.67070333
 H     62  61  60     1.087752685540   119.09753626   180.40173664

---------------------------
INTERNAL COORDINATES (A.U.)
---------------------------
 C      0   0   0     0.000000000000     0.00000000     0.00000000
 C      1   0   0     2.660288319714     0.00000000     0.00000000
 C      2   1   0     2.627404687786   118.32900309     0.00000000
 C      3   2   1     2.712942506882   123.54563152   357.59685902
 C      4   3   2     2.690786837076   117.95361478   357.36708441
 C      5   4   3     2.658005296524   118.68833163     2.38684735
 S      3   2   1     3.326601020871   121.44772275   181.27717930
 C      7   3   2     3.283758147310    89.36596240   175.57435165
 C      8   7   3     2.683912729346   114.31662319     1.76075937
 C      8   7   3     2.648289317274   137.45828069   184.40971800
 C     10   8   7     2.675027634446   106.13403158   177.98271970
 N     11  10   8     2.617013394096   110.01883777   359.85308599
 S     10   8   7     3.268156478056   142.04077079   358.13247716
 C     13  10   8     3.358938844258    90.64793349   180.43353430
 C     11  10   8     2.647310462096   113.77583787   178.78376864
 S      6   5   4     3.382467027692   126.10740985   191.54770327
 C     16   6   5     3.297231053245    90.87831372   174.02670500
 C     17  16   6     2.664510508568   112.76510618     3.04353464
 C     17  16   6     2.665431578412   139.78093767   188.27538422
 C     19  17  16     2.680674178263   106.00264586   176.72256207
 N     20  19  17     2.613124061668   110.36253132     0.77506886
 S     19  17  16     3.274816086817   142.93110999     1.95917795
 C     22  19  17     3.359664150351    90.86301404   173.06630574
 C     23  22  19     2.636980678949   111.97255572     1.98629486
 O      5   4   3     2.570598957776   116.45546144   186.60706448
 O      2   1   3     2.584297940755   122.19267573   184.53253643
 C     26   2   1     2.738539964557   114.96890954    69.17972059
 C     27  26   2     2.883735390705   114.12737327    85.92516827
 C     28  27  26     2.891277738830   111.59516118    66.08985230
 C     28  27  26     2.897642519921   108.42695609   189.62524297
 C     25   5   4     2.700613013506   121.84258306   208.87603415
 C     31  25   5     2.883767900410   109.25154229   168.57164697
 C     32  31  25     2.894572599159   111.50180772    58.47630844
 C     32  31  25     2.894149025206   109.64775088   182.36148562
 C     21  20  19     2.760085969025   121.99774094   159.33822934
 C     35  21  20     2.911100982865   114.66649422   280.20811310
 C     12  11  10     2.751876495641   120.22376612   169.66419592
 C     37  12  11     2.909926163832   112.75865354   293.31800562
 C     36  35  21     2.892587285172   114.14890503    55.61080899
 C     36  35  21     2.894703057844   108.37929207   179.59026727
 C     38  37  12     2.892842383407   110.23210550   162.54578677
 C     38  37  12     2.890577142367   111.79194630   287.73755930
 C     14  13  10     2.679367620699   124.04795539   172.42049013
 C     43  14  13     2.600178252093   133.17531792    11.70600738
 C     44  43  14     2.828989135750   117.76958682   206.49072907
 C     45  44  43     2.819103181101   105.42895077   163.19523275
 C     46  45  44     2.669075775358   109.51977328     3.19815922
 C     44  43  14     2.748842100083   134.03117405    17.47141374
 C     46  45  44     2.622776855840   127.82513946   184.65579253
 C     49  46  45     2.636121169089   116.77247469   177.15090689
 C     50  49  46     2.642562733330   122.16976425     0.23203662
 C     51  50  49     2.641952782308   120.32840398     0.85300385
 C     23  22  19     2.688394326904   121.00355200   181.35643671
 C     53  23  22     2.601552988405   127.79423916   158.21201796
 C     54  53  23     2.835169914835   119.08394648   155.87987657
 C     55  54  53     2.822733689031   105.50264125   195.73188332
 C     56  55  54     2.667480335243   109.36706860   355.49951744
 C     54  53  23     2.760963945060   133.17284236   342.20091081
 C     56  55  54     2.626064128590   128.05575444   174.00428464
 C     59  56  55     2.639042133085   116.88210981   182.81410525
 C     60  59  56     2.643233717465   122.02553800   359.73688043
 C     61  60  59     2.639389322831   120.33979001   359.23387912
 O     55  54  53     2.292382053675   127.34098729    12.69369496
 F     60  59  56     2.524679555019   119.79826832   179.45104947
 C     58  54  53     2.618009896370   127.56818916   331.04302704
 C     65  58  54     2.701791454813   122.69699269   182.64544093
 C     65  58  54     2.700303965126   123.88291709   358.68004334
 N     66  65  58     2.196825704968   178.11264147   218.85340835
 N     67  65  58     2.196319689062   176.39963794   199.96979851
 O     45  44  43     2.294502794642   127.34041773   346.95444994
 F     50  49  46     2.524131707091   119.23488089   180.44366821
 C     48  44  43     2.616528166692   126.20924152    32.82742917
 C     72  48  44     2.700280840026   122.43098351   180.37394183
 C     72  48  44     2.700770776054   121.88876719     7.29903929
 N     74  72  48     2.195724938237   177.10036661    97.79842147
 N     73  72  48     2.196993403275   178.85039696    91.39963285
 H     15  11  10     2.059190120765   126.14105342   181.69977620
 H     24  23  22     2.055684349519   122.63704064   178.09882601
 H     27  26   2     2.079771950935   109.09306849   321.89200718
 H     27  26   2     2.081166057325   105.33888249   206.38580901
 H     28  27  26     2.086078006132   107.69215972   306.65077897
 H     29  28  27     2.085153548316   110.45429169    65.82726018
 H     29  28  27     2.076823505734   111.48548148   305.77886556
 H     29  28  27     2.080080104274   110.98585121   185.31231176
 H     30  28  27     2.085280688364   110.96941745   299.28066255
 H     30  28  27     2.079546334259   110.94637230   179.83134180
 H     30  28  27     2.081751948334   111.58731905    59.33905724
 H     31  25   5     2.085593157429   109.30085216    46.59696419
 H     31  25   5     2.083126708002   110.35673839   287.67705492
 H     32  31  25     2.084064966636   107.46403207   299.30498473
 H     33  32  31     2.084305722986   110.42063336    63.11348663
 H     33  32  31     2.077314774631   111.92499129   303.22811531
 H     33  32  31     2.081674993903   110.81883044   182.38688505
 H     34  32  31     2.084149757408   111.13755413   296.20441459
 H     34  32  31     2.080743229139   110.39506176   177.05127888
 H     34  32  31     2.082217475991   111.89483752    56.95241759
 H     35  21  20     2.067062918874   108.38926305   158.79390499
 H     35  21  20     2.081434724700   106.99785065    42.62075822
 H     36  35  21     2.087548535296   106.71488276   296.34861800
 H     37  12  11     2.058414759603   107.69717103   170.06382774
 H     37  12  11     2.081122416824   107.36593404    54.45540751
 H     38  37  12     2.086016022249   107.19352803    45.62905352
 H     39  36  35     2.080655829165   110.21438815   179.46396109
 H     39  36  35     2.084487274266   111.10567719    60.50201060
 H     39  36  35     2.077264606877   112.50053626   299.42724762
 H     40  36  35     2.084600200891   110.56613312   294.08877871
 H     40  36  35     2.079942921890   110.93015095   175.00444347
 H     40  36  35     2.081346427603   111.97096233    54.03194329
 H     41  38  37     2.083357257574   111.35295653    63.95470882
 H     41  38  37     2.081463539686   111.56381733   303.81026624
 H     41  38  37     2.080491145727   110.86912135   183.70757864
 H     42  38  37     2.083176217568   110.75595553   290.85713309
 H     42  38  37     2.080662166999   110.90687744   171.39892373
 H     42  38  37     2.080353985040   111.76531318    51.06709508
 H     43  14  13     2.074112146601   113.74071014   200.51404931
 H     49  46  45     2.061703360881   121.51522202   357.21673878
 H     51  50  49     2.062497745440   118.70703279   180.39809559
 H     52  51  50     2.056229462718   119.38518686   179.61730451
 H     53  23  22     2.074633162175   117.63217651   332.17551079
 H     59  56  55     2.062029417459   121.27944672     2.63129504
 H     61  60  59     2.062362100274   118.61227157   179.67070333
 H     62  61  60     2.055554677108   119.09753626   180.40173664

---------------------
BASIS SET INFORMATION
---------------------
There are 6 groups of distinct atoms

 Group   1 Type C   : 7s4p1d contracted to 3s2p1d pattern {511/31/1}
 Group   2 Type S   : 10s7p1d contracted to 4s3p1d pattern {5311/511/1}
 Group   3 Type N   : 7s4p1d contracted to 3s2p1d pattern {511/31/1}
 Group   4 Type O   : 7s4p1d contracted to 3s2p1d pattern {511/31/1}
 Group   5 Type F   : 7s4p1d contracted to 3s2p1d pattern {511/31/1}
 Group   6 Type H   : 4s1p contracted to 2s1p pattern {31/1}

Atom   0C    basis set group =>   1
Atom   1C    basis set group =>   1
Atom   2C    basis set group =>   1
Atom   3C    basis set group =>   1
Atom   4C    basis set group =>   1
Atom   5C    basis set group =>   1
Atom   6S    basis set group =>   2
Atom   7C    basis set group =>   1
Atom   8C    basis set group =>   1
Atom   9C    basis set group =>   1
Atom  10C    basis set group =>   1
Atom  11N    basis set group =>   3
Atom  12S    basis set group =>   2
Atom  13C    basis set group =>   1
Atom  14C    basis set group =>   1
Atom  15S    basis set group =>   2
Atom  16C    basis set group =>   1
Atom  17C    basis set group =>   1
Atom  18C    basis set group =>   1
Atom  19C    basis set group =>   1
Atom  20N    basis set group =>   3
Atom  21S    basis set group =>   2
Atom  22C    basis set group =>   1
Atom  23C    basis set group =>   1
Atom  24O    basis set group =>   4
Atom  25O    basis set group =>   4
Atom  26C    basis set group =>   1
Atom  27C    basis set group =>   1
Atom  28C    basis set group =>   1
Atom  29C    basis set group =>   1
Atom  30C    basis set group =>   1
Atom  31C    basis set group =>   1
Atom  32C    basis set group =>   1
Atom  33C    basis set group =>   1
Atom  34C    basis set group =>   1
Atom  35C    basis set group =>   1
Atom  36C    basis set group =>   1
Atom  37C    basis set group =>   1
Atom  38C    basis set group =>   1
Atom  39C    basis set group =>   1
Atom  40C    basis set group =>   1
Atom  41C    basis set group =>   1
Atom  42C    basis set group =>   1
Atom  43C    basis set group =>   1
Atom  44C    basis set group =>   1
Atom  45C    basis set group =>   1
Atom  46C    basis set group =>   1
Atom  47C    basis set group =>   1
Atom  48C    basis set group =>   1
Atom  49C    basis set group =>   1
Atom  50C    basis set group =>   1
Atom  51C    basis set group =>   1
Atom  52C    basis set group =>   1
Atom  53C    basis set group =>   1
Atom  54C    basis set group =>   1
Atom  55C    basis set group =>   1
Atom  56C    basis set group =>   1
Atom  57C    basis set group =>   1
Atom  58C    basis set group =>   1
Atom  59C    basis set group =>   1
Atom  60C    basis set group =>   1
Atom  61C    basis set group =>   1
Atom  62O    basis set group =>   4
Atom  63F    basis set group =>   5
Atom  64C    basis set group =>   1
Atom  65C    basis set group =>   1
Atom  66C    basis set group =>   1
Atom  67N    basis set group =>   3
Atom  68N    basis set group =>   3
Atom  69O    basis set group =>   4
Atom  70F    basis set group =>   5
Atom  71C    basis set group =>   1
Atom  72C    basis set group =>   1
Atom  73C    basis set group =>   1
Atom  74N    basis set group =>   3
Atom  75N    basis set group =>   3
Atom  76H    basis set group =>   6
Atom  77H    basis set group =>   6
Atom  78H    basis set group =>   6
Atom  79H    basis set group =>   6
Atom  80H    basis set group =>   6
Atom  81H    basis set group =>   6
Atom  82H    basis set group =>   6
Atom  83H    basis set group =>   6
Atom  84H    basis set group =>   6
Atom  85H    basis set group =>   6
Atom  86H    basis set group =>   6
Atom  87H    basis set group =>   6
Atom  88H    basis set group =>   6
Atom  89H    basis set group =>   6
Atom  90H    basis set group =>   6
Atom  91H    basis set group =>   6
Atom  92H    basis set group =>   6
Atom  93H    basis set group =>   6
Atom  94H    basis set group =>   6
Atom  95H    basis set group =>   6
Atom  96H    basis set group =>   6
Atom  97H    basis set group =>   6
Atom  98H    basis set group =>   6
Atom  99H    basis set group =>   6
Atom 100H    basis set group =>   6
Atom 101H    basis set group =>   6
Atom 102H    basis set group =>   6
Atom 103H    basis set group =>   6
Atom 104H    basis set group =>   6
Atom 105H    basis set group =>   6
Atom 106H    basis set group =>   6
Atom 107H    basis set group =>   6
Atom 108H    basis set group =>   6
Atom 109H    basis set group =>   6
Atom 110H    basis set group =>   6
Atom 111H    basis set group =>   6
Atom 112H    basis set group =>   6
Atom 113H    basis set group =>   6
Atom 114H    basis set group =>   6
Atom 115H    basis set group =>   6
Atom 116H    basis set group =>   6
Atom 117H    basis set group =>   6
Atom 118H    basis set group =>   6
Atom 119H    basis set group =>   6
Atom 120H    basis set group =>   6
Atom 121H    basis set group =>   6
------------------------------------------------------------------------------
                           ORCA GTO INTEGRAL CALCULATION
------------------------------------------------------------------------------

                         BASIS SET STATISTICS AND STARTUP INFO

 # of primitive gaussian shells          ... 1166
 # of primitive gaussian functions       ... 2194
 # of contracted shells                  ...  602
 # of contracted basis functions         ... 1310
 Highest angular momentum                ...    2
 Maximum contraction depth               ...    5
 Integral package used                   ... LIBINT
 Integral threshhold            Thresh   ...  2.500e-11
 Primitive cut-off              TCut     ...  2.500e-12


------------------------------ INTEGRAL EVALUATION ----------------------------


 * One electron integrals 
 Pre-screening matrix                    ... done
 Shell pair data                         ... done (   0.023 sec)

-------------------------------------------------------------------------------
                                 ORCA SCF
-------------------------------------------------------------------------------

------------
SCF SETTINGS
------------
Hamiltonian:
 Ab initio Hamiltonian  Method          .... Hartree-Fock(GTOs)


General Settings:
 Integral files         IntName         .... SNBDT1-F
 Hartree-Fock type      HFTyp           .... RHF
 Total Charge           Charge          ....    0
 Multiplicity           Mult            ....    1
 Number of Electrons    NEL             ....  562
 Basis Dimension        Dim             .... 1310
 Nuclear Repulsion      ENuc            ....  12507.1327462012 Eh

Convergence Acceleration:
 DIIS                   CNVDIIS         .... on
   Start iteration      DIISMaxIt       ....    12
   Startup error        DIISStart       ....  0.200000
   # of expansion vecs  DIISMaxEq       ....     5
   Bias factor          DIISBfac        ....   1.050
   Max. coefficient     DIISMaxC        ....  10.000
 Newton-Raphson         CNVNR           .... off
 SOSCF                  CNVSOSCF        .... on
   Start iteration      SOSCFMaxIt      ....   150
   Startup grad/error   SOSCFStart      ....  0.003300
 Level Shifting         CNVShift        .... on
   Level shift para.    LevelShift      ....    0.2500
   Turn off err/grad.   ShiftErr        ....    0.0010
 Zerner damping         CNVZerner       .... off
 Static damping         CNVDamp         .... on
   Fraction old density DampFac         ....    0.7000
   Max. Damping (<1)    DampMax         ....    0.9800
   Min. Damping (>=0)   DampMin         ....    0.0000
   Turn off err/grad.   DampErr         ....    0.1000
 Fernandez-Rico         CNVRico         .... off

SCF Procedure:
 Maximum # iterations   MaxIter         ....   125
 SCF integral mode      SCFMode         .... Direct
   Integral package                     .... LIBINT
 Reset frequency        DirectResetFreq ....    20
 Integral Threshold     Thresh          ....  2.500e-11 Eh
 Primitive CutOff       TCut            ....  2.500e-12 Eh

Convergence Tolerance:
 Convergence Check Mode ConvCheckMode   .... Total+1el-Energy
 Convergence forced     ConvForced      .... 1
 Energy Change          TolE            ....  1.000e-08 Eh
 1-El. energy change                    ....  1.000e-05 Eh
 Orbital Gradient       TolG            ....  1.000e-05
 Orbital Rotation angle TolX            ....  1.000e-05
 DIIS Error             TolErr          ....  5.000e-07


Diagonalization of the overlap matrix:
Smallest eigenvalue                        ... 1.517e-04
Time for diagonalization                   ...    0.511 sec
Threshold for overlap eigenvalues          ... 1.000e-08
Number of eigenvalues below threshold      ... 0
Time for construction of square roots      ...    0.193 sec
Total time needed                          ...    0.709 sec

-------------------
DFT GRID GENERATION
-------------------

General Integration Accuracy     IntAcc      ...  4.340
Radial Grid Type                 RadialGrid  ... Gauss-Chebyshev
Angular Grid (max. acc.)         AngularGrid ... Lebedev-110
Angular grid pruning method      GridPruning ... 3 (G Style)
Weight generation scheme         WeightScheme... Becke
Basis function cutoff            BFCut       ...    1.0000e-11
Integration weight cutoff        WCut        ...    1.0000e-14
Grids for H and He will be reduced by one unit

# of grid points (after initial pruning)     ... 163664 (   0.3 sec)
# of grid points (after weights+screening)   ... 141805 (   6.0 sec)
nearest neighbour list constructed           ...    0.0 sec
Grid point re-assignment to atoms done       ...    0.0 sec
Grid point division into batches done        ...    0.1 sec
Reduced shell lists constructed in    2.7 sec

Total number of grid points                  ...   141805
Total number of batches                      ...     2276
Average number of points per batch           ...       62
Average number of grid points per atom       ...     1162
Average number of shells per batch           ...   121.26 (20.14%)
Average number of basis functions per batch  ...   243.19 (18.56%)
Average number of large shells per batch     ...    69.83 (57.59%)
Average number of large basis fcns per batch ...   142.83 (58.73%)
Maximum spatial batch extension              ...  23.08, 22.78, 25.60 au
Average spatial batch extension              ...   3.06,  3.26,  3.37 au

Time for grid setup =    9.079 sec

------------------------------
INITIAL GUESS: MODEL POTENTIAL
------------------------------
Loading Hartree-Fock densities                     ... done
Calculating cut-offs                               ... done
Setting up the integral package                    ... done
Initializing the effective Hamiltonian             ... done
Starting the Coulomb interaction                   ... done (  12.3 sec)
Reading the grid                                   ... done
Mapping shells                                     ... done
Starting the XC term evaluation                    ... done (   2.6 sec)
Transforming the Hamiltonian                       ... done (   0.2 sec)
Diagonalizing the Hamiltonian                      ... done (   0.4 sec)
Back transforming the eigenvectors                 ... done (   0.1 sec)
Now organizing SCF variables                       ... done
                      ------------------
                      INITIAL GUESS DONE (  25.0 sec)
                      ------------------
--------------
SCF ITERATIONS
--------------
ITER       Energy         Delta-E        Max-DP      RMS-DP      [F,P]     Damp
               ***  Starting incremental Fock matrix formation  ***
  0  -4708.5846224384   0.000000000000 0.08393433  0.00112724  0.2331750 0.7000
  1  -4709.3986647767  -0.814042338312 0.06555161  0.00087528  0.1398539 0.7000
                               ***Turning on DIIS***
  2  -4709.8912079112  -0.492543134551 0.16427481  0.00203095  0.0773366 0.0000
  3  -4707.0552574934   2.835950417812 0.05602886  0.00047940  0.0509915 0.0000
  4  -4711.2576991880  -4.202441694579 0.01430435  0.00018811  0.0220271 0.0000
  5  -4711.1257989947   0.131900193279 0.00801049  0.00009534  0.0089606 0.0000
  6  -4710.8939649015   0.231834093232 0.00558471  0.00006002  0.0024531 0.0000
  7  -4710.9655354567  -0.071570555217 0.00279847  0.00003821  0.0013301 0.0000
  8  -4710.9339960605   0.031539396186 0.00389026  0.00004611  0.0008833 0.0000
                      *** Initiating the SOSCF procedure ***
                           *** Shutting down DIIS ***
                      *** Re-Reading the Fockian *** 
                      *** Removing any level shift *** 
ITER      Energy       Delta-E        Grad      Rot      Max-DP    RMS-DP
  9  -4710.94904855  -0.0150524856  0.001068  0.001068  0.001522  0.000016
               *** Restarting incremental Fock matrix formation ***
 10  -4710.96169104  -0.0126424935  0.000358  0.001478  0.000473  0.000005
 11  -4710.96169870  -0.0000076653  0.000183  0.002206  0.000697  0.000008
 12  -4710.96170542  -0.0000067104  0.000039  0.000566  0.000278  0.000003
 13  -4710.96170605  -0.0000006362  0.000023  0.000153  0.000080  0.000001
 14  -4710.96170623  -0.0000001768  0.000011  0.000086  0.000062  0.000001
 15  -4710.96170629  -0.0000000648  0.000006  0.000052  0.000031  0.000000
 16  -4710.96170632  -0.0000000228  0.000003  0.000017  0.000010  0.000000
                  ***Gradient check signals convergence***
              ***Rediagonalizing the Fockian in SOSCF/NRSCF***

               *****************************************************
               *                     SUCCESS                       *
               *           SCF CONVERGED AFTER  17 CYCLES          *
               *****************************************************


----------------
TOTAL SCF ENERGY
----------------

Total Energy       :        -4710.96170633 Eh         -128191.78517 eV

Components:
Nuclear Repulsion  :        12507.13274620 Eh          340336.38439 eV
Electronic Energy  :       -17218.09445254 Eh         -468528.16957 eV
One Electron Energy:       -31377.91818071 Eh         -853836.56191 eV
Two Electron Energy:        14159.82372817 Eh          385308.39234 eV

Virial components:
Potential Energy   :        -9406.48962259 Eh         -255963.59557 eV
Kinetic Energy     :         4695.52791626 Eh          127771.81039 eV
Virial Ratio       :            2.00328691


---------------
SCF CONVERGENCE
---------------

  Last Energy change         ...   -1.8859e-08  Tolerance :   1.0000e-08
  Last MAX-Density change    ...    7.5036e-06  Tolerance :   1.0000e-07
  Last RMS-Density change    ...    1.0301e-07  Tolerance :   5.0000e-09
  Last Orbital Gradient      ...    1.8585e-06  Tolerance :   1.0000e-05
  Last Orbital Rotation      ...    1.9451e-05  Tolerance :   1.0000e-05

             **** THE GBW FILE WAS UPDATED (SNBDT1-F.gbw) ****
             **** DENSITY FILE WAS UPDATED (SNBDT1-F.scfp) ****
             **** ENERGY FILE WAS UPDATED (SNBDT1-F.en.tmp) ****
             **** THE GBW FILE WAS UPDATED (SNBDT1-F.gbw) ****
             **** DENSITY FILE WAS UPDATED (SNBDT1-F.scfp) ****
----------------
ORBITAL ENERGIES
----------------

  NO   OCC          E(Eh)            E(eV) 
   0   2.0000     -91.979610     -2502.8924 
   1   2.0000     -91.971732     -2502.6781 
   2   2.0000     -91.971589     -2502.6742 
   3   2.0000     -91.962601     -2502.4296 
   4   2.0000     -26.330971      -716.5021 
   5   2.0000     -26.322319      -716.2667 
   6   2.0000     -20.608563      -560.7875 
   7   2.0000     -20.595440      -560.4304 
   8   2.0000     -20.569410      -559.7221 
   9   2.0000     -20.558687      -559.4303 
  10   2.0000     -15.641656      -425.6311 
  11   2.0000     -15.639819      -425.5811 
  12   2.0000     -15.597543      -424.4307 
  13   2.0000     -15.593850      -424.3302 
  14   2.0000     -15.586084      -424.1189 
  15   2.0000     -15.579263      -423.9333 
  16   2.0000     -11.374526      -309.5166 
  17   2.0000     -11.369255      -309.3732 
  18   2.0000     -11.364342      -309.2395 
  19   2.0000     -11.358729      -309.0867 
  20   2.0000     -11.350796      -308.8709 
  21   2.0000     -11.350237      -308.8557 
  22   2.0000     -11.337301      -308.5037 
  23   2.0000     -11.330335      -308.3141 
  24   2.0000     -11.329505      -308.2915 
  25   2.0000     -11.327175      -308.2281 
  26   2.0000     -11.319742      -308.0258 
  27   2.0000     -11.317567      -307.9667 
  28   2.0000     -11.316551      -307.9390 
  29   2.0000     -11.316105      -307.9269 
  30   2.0000     -11.315563      -307.9121 
  31   2.0000     -11.310030      -307.7616 
  32   2.0000     -11.308038      -307.7074 
  33   2.0000     -11.304324      -307.6063 
  34   2.0000     -11.304093      -307.6000 
  35   2.0000     -11.302951      -307.5689 
  36   2.0000     -11.300781      -307.5099 
  37   2.0000     -11.300517      -307.5027 
  38   2.0000     -11.300372      -307.4988 
  39   2.0000     -11.300218      -307.4946 
  40   2.0000     -11.298871      -307.4579 
  41   2.0000     -11.298360      -307.4440 
  42   2.0000     -11.297574      -307.4226 
  43   2.0000     -11.296637      -307.3971 
  44   2.0000     -11.296285      -307.3875 
  45   2.0000     -11.296019      -307.3803 
  46   2.0000     -11.294306      -307.3337 
  47   2.0000     -11.294150      -307.3294 
  48   2.0000     -11.293839      -307.3210 
  49   2.0000     -11.292993      -307.2980 
  50   2.0000     -11.292988      -307.2978 
  51   2.0000     -11.292621      -307.2878 
  52   2.0000     -11.290596      -307.2327 
  53   2.0000     -11.290013      -307.2169 
  54   2.0000     -11.289722      -307.2090 
  55   2.0000     -11.288198      -307.1675 
  56   2.0000     -11.288059      -307.1637 
  57   2.0000     -11.286660      -307.1256 
  58   2.0000     -11.283422      -307.0375 
  59   2.0000     -11.282669      -307.0170 
  60   2.0000     -11.282368      -307.0088 
  61   2.0000     -11.279821      -306.9395 
  62   2.0000     -11.278961      -306.9161 
  63   2.0000     -11.269107      -306.6480 
  64   2.0000     -11.257553      -306.3336 
  65   2.0000     -11.254154      -306.2411 
  66   2.0000     -11.253551      -306.2247 
  67   2.0000     -11.247111      -306.0494 
  68   2.0000     -11.245429      -306.0037 
  69   2.0000     -11.241719      -305.9027 
  70   2.0000     -11.240694      -305.8748 
  71   2.0000     -11.240324      -305.8648 
  72   2.0000     -11.239863      -305.8522 
  73   2.0000     -11.236457      -305.7595 
  74   2.0000     -11.226622      -305.4919 
  75   2.0000     -11.222095      -305.3687 
  76   2.0000      -9.013805      -245.2781 
  77   2.0000      -9.006102      -245.0685 
  78   2.0000      -9.005594      -245.0547 
  79   2.0000      -8.997233      -244.8271 
  80   2.0000      -6.701341      -182.3527 
  81   2.0000      -6.700403      -182.3272 
  82   2.0000      -6.698257      -182.2688 
  83   2.0000      -6.693654      -182.1436 
  84   2.0000      -6.693289      -182.1337 
  85   2.0000      -6.692678      -182.1170 
  86   2.0000      -6.692321      -182.1073 
  87   2.0000      -6.690525      -182.0584 
  88   2.0000      -6.689832      -182.0396 
  89   2.0000      -6.684862      -181.9043 
  90   2.0000      -6.683899      -181.8781 
  91   2.0000      -6.681490      -181.8126 
  92   2.0000      -1.635725       -44.5103 
  93   2.0000      -1.627414       -44.2842 
  94   2.0000      -1.426372       -38.8136 
  95   2.0000      -1.410147       -38.3721 
  96   2.0000      -1.397924       -38.0394 
  97   2.0000      -1.387507       -37.7560 
  98   2.0000      -1.332749       -36.2659 
  99   2.0000      -1.327128       -36.1130 
 100   2.0000      -1.244494       -33.8644 
 101   2.0000      -1.232327       -33.5333 
 102   2.0000      -1.221914       -33.2500 
 103   2.0000      -1.219700       -33.1897 
 104   2.0000      -1.210932       -32.9511 
 105   2.0000      -1.206509       -32.8308 
 106   2.0000      -1.205964       -32.8160 
 107   2.0000      -1.192583       -32.4518 
 108   2.0000      -1.186610       -32.2893 
 109   2.0000      -1.173629       -31.9361 
 110   2.0000      -1.160323       -31.5740 
 111   2.0000      -1.150809       -31.3151 
 112   2.0000      -1.125630       -30.6300 
 113   2.0000      -1.108381       -30.1606 
 114   2.0000      -1.107448       -30.1352 
 115   2.0000      -1.096570       -29.8392 
 116   2.0000      -1.089349       -29.6427 
 117   2.0000      -1.087704       -29.5979 
 118   2.0000      -1.082462       -29.4553 
 119   2.0000      -1.079184       -29.3661 
 120   2.0000      -1.071213       -29.1492 
 121   2.0000      -1.059617       -28.8337 
 122   2.0000      -1.050944       -28.5976 
 123   2.0000      -1.049930       -28.5700 
 124   2.0000      -1.046454       -28.4755 
 125   2.0000      -1.027440       -27.9581 
 126   2.0000      -1.014881       -27.6163 
 127   2.0000      -1.006569       -27.3901 
 128   2.0000      -1.002576       -27.2815 
 129   2.0000      -0.984456       -26.7884 
 130   2.0000      -0.975431       -26.5428 
 131   2.0000      -0.961392       -26.1608 
 132   2.0000      -0.950552       -25.8658 
 133   2.0000      -0.941919       -25.6309 
 134   2.0000      -0.940744       -25.5989 
 135   2.0000      -0.939607       -25.5680 
 136   2.0000      -0.935099       -25.4453 
 137   2.0000      -0.930313       -25.3151 
 138   2.0000      -0.926495       -25.2112 
 139   2.0000      -0.923353       -25.1257 
 140   2.0000      -0.922216       -25.0948 
 141   2.0000      -0.919639       -25.0246 
 142   2.0000      -0.903535       -24.5864 
 143   2.0000      -0.887670       -24.1547 
 144   2.0000      -0.869408       -23.6578 
 145   2.0000      -0.855598       -23.2820 
 146   2.0000      -0.846517       -23.0349 
 147   2.0000      -0.837951       -22.8018 
 148   2.0000      -0.825841       -22.4723 
 149   2.0000      -0.817455       -22.2441 
 150   2.0000      -0.813334       -22.1319 
 151   2.0000      -0.807617       -21.9764 
 152   2.0000      -0.806434       -21.9442 
 153   2.0000      -0.800708       -21.7884 
 154   2.0000      -0.799474       -21.7548 
 155   2.0000      -0.795180       -21.6379 
 156   2.0000      -0.788687       -21.4613 
 157   2.0000      -0.780639       -21.2423 
 158   2.0000      -0.779390       -21.2083 
 159   2.0000      -0.772428       -21.0188 
 160   2.0000      -0.766363       -20.8538 
 161   2.0000      -0.763759       -20.7829 
 162   2.0000      -0.760036       -20.6816 
 163   2.0000      -0.741895       -20.1880 
 164   2.0000      -0.735198       -20.0057 
 165   2.0000      -0.732017       -19.9192 
 166   2.0000      -0.729822       -19.8595 
 167   2.0000      -0.726557       -19.7706 
 168   2.0000      -0.725192       -19.7335 
 169   2.0000      -0.719208       -19.5706 
 170   2.0000      -0.717031       -19.5114 
 171   2.0000      -0.714533       -19.4434 
 172   2.0000      -0.708993       -19.2927 
 173   2.0000      -0.705385       -19.1945 
 174   2.0000      -0.702728       -19.1222 
 175   2.0000      -0.700162       -19.0524 
 176   2.0000      -0.697012       -18.9667 
 177   2.0000      -0.684822       -18.6350 
 178   2.0000      -0.681853       -18.5542 
 179   2.0000      -0.678377       -18.4596 
 180   2.0000      -0.673896       -18.3376 
 181   2.0000      -0.667455       -18.1624 
 182   2.0000      -0.665076       -18.0976 
 183   2.0000      -0.660891       -17.9837 
 184   2.0000      -0.657033       -17.8788 
 185   2.0000      -0.651811       -17.7367 
 186   2.0000      -0.649300       -17.6684 
 187   2.0000      -0.648066       -17.6348 
 188   2.0000      -0.645082       -17.5536 
 189   2.0000      -0.641379       -17.4528 
 190   2.0000      -0.639922       -17.4132 
 191   2.0000      -0.631799       -17.1921 
 192   2.0000      -0.629080       -17.1181 
 193   2.0000      -0.626434       -17.0461 
 194   2.0000      -0.625707       -17.0264 
 195   2.0000      -0.621860       -16.9217 
 196   2.0000      -0.618100       -16.8194 
 197   2.0000      -0.616048       -16.7635 
 198   2.0000      -0.614333       -16.7169 
 199   2.0000      -0.611114       -16.6292 
 200   2.0000      -0.608198       -16.5499 
 201   2.0000      -0.607293       -16.5253 
 202   2.0000      -0.605040       -16.4640 
 203   2.0000      -0.602901       -16.4058 
 204   2.0000      -0.597328       -16.2541 
 205   2.0000      -0.594026       -16.1643 
 206   2.0000      -0.588261       -16.0074 
 207   2.0000      -0.584737       -15.9115 
 208   2.0000      -0.582412       -15.8482 
 209   2.0000      -0.580216       -15.7885 
 210   2.0000      -0.579498       -15.7690 
 211   2.0000      -0.577209       -15.7067 
 212   2.0000      -0.574648       -15.6370 
 213   2.0000      -0.570990       -15.5374 
 214   2.0000      -0.569933       -15.5087 
 215   2.0000      -0.568114       -15.4592 
 216   2.0000      -0.567458       -15.4413 
 217   2.0000      -0.565391       -15.3851 
 218   2.0000      -0.561697       -15.2846 
 219   2.0000      -0.560421       -15.2498 
 220   2.0000      -0.558940       -15.2095 
 221   2.0000      -0.557581       -15.1725 
 222   2.0000      -0.556727       -15.1493 
 223   2.0000      -0.555393       -15.1130 
 224   2.0000      -0.555006       -15.1025 
 225   2.0000      -0.553464       -15.0605 
 226   2.0000      -0.550535       -14.9808 
 227   2.0000      -0.548260       -14.9189 
 228   2.0000      -0.546416       -14.8687 
 229   2.0000      -0.544633       -14.8202 
 230   2.0000      -0.540154       -14.6983 
 231   2.0000      -0.538274       -14.6472 
 232   2.0000      -0.535623       -14.5750 
 233   2.0000      -0.533259       -14.5107 
 234   2.0000      -0.531950       -14.4751 
 235   2.0000      -0.528310       -14.3760 
 236   2.0000      -0.523144       -14.2355 
 237   2.0000      -0.522342       -14.2137 
 238   2.0000      -0.518793       -14.1171 
 239   2.0000      -0.513707       -13.9787 
 240   2.0000      -0.509563       -13.8659 
 241   2.0000      -0.504340       -13.7238 
 242   2.0000      -0.503462       -13.6999 
 243   2.0000      -0.501905       -13.6575 
 244   2.0000      -0.499747       -13.5988 
 245   2.0000      -0.498257       -13.5583 
 246   2.0000      -0.496816       -13.5191 
 247   2.0000      -0.494798       -13.4642 
 248   2.0000      -0.493867       -13.4388 
 249   2.0000      -0.491605       -13.3773 
 250   2.0000      -0.490765       -13.3544 
 251   2.0000      -0.489448       -13.3186 
 252   2.0000      -0.486249       -13.2315 
 253   2.0000      -0.484029       -13.1711 
 254   2.0000      -0.481463       -13.1013 
 255   2.0000      -0.479288       -13.0421 
 256   2.0000      -0.477935       -13.0053 
 257   2.0000      -0.473477       -12.8840 
 258   2.0000      -0.472974       -12.8703 
 259   2.0000      -0.466908       -12.7052 
 260   2.0000      -0.463845       -12.6219 
 261   2.0000      -0.461542       -12.5592 
 262   2.0000      -0.455303       -12.3894 
 263   2.0000      -0.451174       -12.2771 
 264   2.0000      -0.449310       -12.2264 
 265   2.0000      -0.442801       -12.0492 
 266   2.0000      -0.436652       -11.8819 
 267   2.0000      -0.413874       -11.2621 
 268   2.0000      -0.400665       -10.9027 
 269   2.0000      -0.397196       -10.8083 
 270   2.0000      -0.389631       -10.6024 
 271   2.0000      -0.380381       -10.3507 
 272   2.0000      -0.375487       -10.2175 
 273   2.0000      -0.362363        -9.8604 
 274   2.0000      -0.351382        -9.5616 
 275   2.0000      -0.347350        -9.4519 
 276   2.0000      -0.338783        -9.2187 
 277   2.0000      -0.327231        -8.9044 
 278   2.0000      -0.299376        -8.1464 
 279   2.0000      -0.296044        -8.0558 
 280   2.0000      -0.254885        -6.9358 
 281   0.0000      -0.028360        -0.7717 
 282   0.0000      -0.012922        -0.3516 
 283   0.0000       0.016559         0.4506 
 284   0.0000       0.027094         0.7373 
 285   0.0000       0.052771         1.4360 
 286   0.0000       0.079400         2.1606 
 287   0.0000       0.097604         2.6559 
 288   0.0000       0.108332         2.9479 
 289   0.0000       0.128747         3.5034 
 290   0.0000       0.139401         3.7933 
 291   0.0000       0.140346         3.8190 
 292   0.0000       0.141568         3.8523 
 293   0.0000       0.146871         3.9966 
 294   0.0000       0.153902         4.1879 
 295   0.0000       0.154162         4.1950 
 296   0.0000       0.155419         4.2292 
 297   0.0000       0.162384         4.4187 
 298   0.0000       0.167043         4.5455 
 299   0.0000       0.169993         4.6258 
 300   0.0000       0.172706         4.6996 
 301   0.0000       0.174817         4.7570 
 302   0.0000       0.175095         4.7646 
 303   0.0000       0.177703         4.8356 
 304   0.0000       0.185237         5.0406 
 305   0.0000       0.188463         5.1283 
 306   0.0000       0.189663         5.1610 
 307   0.0000       0.193121         5.2551 
 308   0.0000       0.195364         5.3161 
 309   0.0000       0.196744         5.3537 
 310   0.0000       0.198288         5.3957 
 311   0.0000       0.202686         5.5154 
 312   0.0000       0.206353         5.6151 
 313   0.0000       0.206996         5.6326 
 314   0.0000       0.210415         5.7257 
 315   0.0000       0.211488         5.7549 
 316   0.0000       0.213525         5.8103 
 317   0.0000       0.216883         5.9017 
 318   0.0000       0.217519         5.9190 
 319   0.0000       0.218119         5.9353 
 320   0.0000       0.219108         5.9622 
 321   0.0000       0.221893         6.0380 
 322   0.0000       0.223460         6.0806 
 323   0.0000       0.226537         6.1644 
 324   0.0000       0.227714         6.1964 
 325   0.0000       0.229680         6.2499 
 326   0.0000       0.231161         6.2902 
 327   0.0000       0.232542         6.3278 
 328   0.0000       0.234435         6.3793 
 329   0.0000       0.236472         6.4347 
 330   0.0000       0.241613         6.5746 
 331   0.0000       0.242917         6.6101 
 332   0.0000       0.244265         6.6468 
 333   0.0000       0.247799         6.7429 
 334   0.0000       0.248213         6.7542 
 335   0.0000       0.249979         6.8023 
 336   0.0000       0.250860         6.8263 
 337   0.0000       0.251815         6.8522 
 338   0.0000       0.255159         6.9432 
 339   0.0000       0.257626         7.0104 
 340   0.0000       0.261260         7.1092 
 341   0.0000       0.262897         7.1538 
 342   0.0000       0.264478         7.1968 
 343   0.0000       0.269370         7.3299 
 344   0.0000       0.273105         7.4316 
 345   0.0000       0.275218         7.4891 
 346   0.0000       0.275690         7.5019 
 347   0.0000       0.281880         7.6703 
 348   0.0000       0.282795         7.6952 
 349   0.0000       0.283467         7.7135 
 350   0.0000       0.287146         7.8137 
 351   0.0000       0.290889         7.9155 
 352   0.0000       0.293356         7.9826 
 353   0.0000       0.294828         8.0227 
 354   0.0000       0.297446         8.0939 
 355   0.0000       0.299976         8.1628 
 356   0.0000       0.302412         8.2291 
 357   0.0000       0.305226         8.3056 
 358   0.0000       0.307352         8.3635 
 359   0.0000       0.312458         8.5024 
 360   0.0000       0.314727         8.5641 
 361   0.0000       0.320203         8.7132 
 362   0.0000       0.323763         8.8100 
 363   0.0000       0.326416         8.8822 
 364   0.0000       0.329677         8.9710 
 365   0.0000       0.330480         8.9928 
 366   0.0000       0.333819         9.0837 
 367   0.0000       0.336882         9.1670 
 368   0.0000       0.339859         9.2480 
 369   0.0000       0.340402         9.2628 
 370   0.0000       0.341782         9.3004 
 371   0.0000       0.346829         9.4377 
 372   0.0000       0.348758         9.4902 
 373   0.0000       0.350691         9.5428 
 374   0.0000       0.352343         9.5877 
 375   0.0000       0.357612         9.7311 
 376   0.0000       0.358641         9.7591 
 377   0.0000       0.364166         9.9095 
 378   0.0000       0.365253         9.9390 
 379   0.0000       0.368720        10.0334 
 380   0.0000       0.369646        10.0586 
 381   0.0000       0.374516        10.1911 
 382   0.0000       0.376333        10.2405 
 383   0.0000       0.378452        10.2982 
 384   0.0000       0.381293        10.3755 
 385   0.0000       0.383322        10.4307 
 386   0.0000       0.384969        10.4755 
 387   0.0000       0.389936        10.6107 
 388   0.0000       0.390345        10.6218 
 389   0.0000       0.394460        10.7338 
 390   0.0000       0.399073        10.8593 
 391   0.0000       0.402360        10.9488 
 392   0.0000       0.405148        11.0246 
 393   0.0000       0.406441        11.0598 
 394   0.0000       0.408373        11.1124 
 395   0.0000       0.408878        11.1261 
 396   0.0000       0.414500        11.2791 
 397   0.0000       0.420427        11.4404 
 398   0.0000       0.421747        11.4763 
 399   0.0000       0.425228        11.5710 
 400   0.0000       0.425854        11.5881 
 401   0.0000       0.429714        11.6931 
 402   0.0000       0.431019        11.7286 
 403   0.0000       0.435118        11.8402 
 404   0.0000       0.439453        11.9581 
 405   0.0000       0.442952        12.0533 
 406   0.0000       0.444075        12.0839 
 407   0.0000       0.445752        12.1295 
 408   0.0000       0.449954        12.2439 
 409   0.0000       0.455897        12.4056 
 410   0.0000       0.457537        12.4502 
 411   0.0000       0.458951        12.4887 
 412   0.0000       0.462912        12.5965 
 413   0.0000       0.465929        12.6786 
 414   0.0000       0.466746        12.7008 
 415   0.0000       0.473390        12.8816 
 416   0.0000       0.476937        12.9781 
 417   0.0000       0.479539        13.0489 
 418   0.0000       0.481268        13.0960 
 419   0.0000       0.485248        13.2043 
 420   0.0000       0.488511        13.2930 
 421   0.0000       0.491403        13.3718 
 422   0.0000       0.496892        13.5211 
 423   0.0000       0.499339        13.5877 
 424   0.0000       0.500736        13.6257 
 425   0.0000       0.501791        13.6544 
 426   0.0000       0.506801        13.7908 
 427   0.0000       0.508153        13.8276 
 428   0.0000       0.514732        14.0066 
 429   0.0000       0.518798        14.1172 
 430   0.0000       0.522101        14.2071 
 431   0.0000       0.528156        14.3718 
 432   0.0000       0.532514        14.4904 
 433   0.0000       0.536888        14.6095 
 434   0.0000       0.540689        14.7129 
 435   0.0000       0.548025        14.9125 
 436   0.0000       0.549679        14.9575 
 437   0.0000       0.553060        15.0495 
 438   0.0000       0.555749        15.1227 
 439   0.0000       0.560354        15.2480 
 440   0.0000       0.562105        15.2956 
 441   0.0000       0.564580        15.3630 
 442   0.0000       0.567210        15.4346 
 443   0.0000       0.571829        15.5603 
 444   0.0000       0.572507        15.5787 
 445   0.0000       0.576475        15.6867 
 446   0.0000       0.578793        15.7498 
 447   0.0000       0.582017        15.8375 
 448   0.0000       0.585831        15.9413 
 449   0.0000       0.587764        15.9939 
 450   0.0000       0.590705        16.0739 
 451   0.0000       0.592027        16.1099 
 452   0.0000       0.595228        16.1970 
 453   0.0000       0.598311        16.2809 
 454   0.0000       0.600344        16.3362 
 455   0.0000       0.606227        16.4963 
[...]

                       ****Iteration    9****
   Time for densities:     1.512
   Using LibInt in JK Direct
   Time for J+K (Direct):  1773.883
   Time for Sigma-Completion:    15.754
   Size of expansion space: 9
   Lowest Energy          :     0.097984038473
   Maximum Energy change  :     0.000011705810 (vector 2)
   Maximum residual norm  :     0.000001449343

                       ****Iteration   10****
   Time for densities:     1.511
   Using LibInt in JK Direct
   Time for J+K (Direct):  1744.638
   Time for Sigma-Completion:    16.546
   Size of expansion space: 12
   Lowest Energy          :     0.097984028215
   Maximum Energy change  :     0.000007174237 (vector 2)
   Maximum residual norm  :     0.000001270232

                       ****Iteration   11****
   Time for densities:     1.512
   Using LibInt in JK Direct
   Time for J+K (Direct):  1773.744
   Time for Sigma-Completion:    14.722
   Size of expansion space: 15
   Lowest Energy          :     0.097984025766
   Maximum Energy change  :     0.000004013174 (vector 2)
   Maximum residual norm  :     0.000000856050

                       ****Iteration   12****
   Time for densities:     1.510
   Using LibInt in JK Direct
   Time for J+K (Direct):  1768.859
   Time for Sigma-Completion:    16.962
   Size of expansion space: 18
   Lowest Energy          :     0.097984025290
   Maximum Energy change  :     0.000002443728 (vector 2)
   Maximum residual norm  :     0.000000247463

      *** CONVERGENCE OF RESIDUAL NORM REACHED ***

Storing the converged CI vectors               ... SNBDT1-F.cis1

                 *** DAVIDSON DONE ***

Total time for solving the CIS problem: 28545.736sec

-----------------------------
CIS-EXCITED STATES (SINGLETS)
-----------------------------

the weight of the individual excitations are printed if larger than 1.0e-02

STATE  1:  E=   0.097984 au      2.666 eV    21505.0 cm**-1
   278a -> 281a  :     0.072183 (c=  0.26866837)
   278a -> 282a  :     0.039889 (c=  0.19972269)
   279a -> 282a  :     0.135934 (c= -0.36869179)
   280a -> 281a  :     0.573679 (c= -0.75741596)
   280a -> 282a  :     0.030590 (c=  0.17490134)
   280a -> 285a  :     0.014889 (c= -0.12202003)

STATE  2:  E=   0.114467 au      3.115 eV    25122.7 cm**-1
   273a -> 282a  :     0.021661 (c= -0.14717601)
   276a -> 282a  :     0.014605 (c=  0.12085261)
   277a -> 281a  :     0.010166 (c= -0.10082647)
   278a -> 281a  :     0.107146 (c= -0.32733166)
   278a -> 282a  :     0.011688 (c= -0.10811193)
   279a -> 281a  :     0.227782 (c=  0.47726549)
   279a -> 282a  :     0.052938 (c= -0.23008190)
   280a -> 282a  :     0.411275 (c=  0.64130692)
   280a -> 286a  :     0.010746 (c=  0.10366296)

STATE  3:  E=   0.151562 au      4.124 eV    33264.1 cm**-1
   273a -> 281a  :     0.013797 (c= -0.11746241)
   274a -> 281a  :     0.017036 (c=  0.13052362)
   276a -> 281a  :     0.013463 (c=  0.11602985)
   277a -> 282a  :     0.075093 (c= -0.27403076)
   278a -> 281a  :     0.230922 (c= -0.48054293)
   279a -> 281a  :     0.073383 (c= -0.27089257)
   279a -> 282a  :     0.122372 (c=  0.34981731)
   279a -> 285a  :     0.011780 (c= -0.10853462)
   280a -> 281a  :     0.061504 (c= -0.24799970)
   280a -> 282a  :     0.012752 (c=  0.11292499)
   280a -> 283a  :     0.060950 (c=  0.24688001)
   280a -> 284a  :     0.026972 (c= -0.16423008)
   280a -> 285a  :     0.087701 (c= -0.29614335)
   280a -> 287a  :     0.024231 (c=  0.15566425)


----------------------
CIS-EXCITATION SPECTRA
----------------------

Center of mass = ( -2.3359,  0.3192,  0.1629)
Calculating the Dipole integrals                  ... done
Transforming integrals                            ... done
Calculating the Linear Momentum integrals         ... done
Transforming integrals                            ... done
Calculating angular momentum integrals            ... done
Transforming integrals                            ... done

-----------------------------------------------------------------------------
         ABSORPTION SPECTRUM VIA TRANSITION ELECTRIC DIPOLE MOMENTS
-----------------------------------------------------------------------------
State   Energy    Wavelength  fosc         T2        TX        TY        TZ  
        (cm-1)      (nm)                 (au**2)    (au)      (au)      (au) 
-----------------------------------------------------------------------------
   1   21505.0    465.0   2.029366213  31.06679   5.40120  -1.22919  -0.61884
   2   25122.7    398.0   0.626827306   8.21405   1.67276   2.29667  -0.37582
   3   33264.1    300.6   0.378995035   3.75089   1.68718   0.40975  -0.85815

-----------------------------------------------------------------------------
         ABSORPTION SPECTRUM VIA TRANSITION VELOCITY DIPOLE MOMENTS
-----------------------------------------------------------------------------
State   Energy    Wavelength   fosc        P2         PX        PY        PZ  
        (cm-1)      (nm)                 (au**2)     (au)      (au)      (au) 
-----------------------------------------------------------------------------
   1   21505.0    465.0   1.094873004   0.16092  -0.39044   0.09202   0.00259
   2   25122.7    398.0   0.199734945   0.03429  -0.12590  -0.11531   0.07174
   3   33264.1    300.6   0.062605435   0.01423  -0.02119   0.06171  -0.09988

-------------------------------------------------------------------
                             CD SPECTRUM
-------------------------------------------------------------------
State  Energy     Wavelength     R         MX        MY        MZ   
       (cm-1)       (nm)     (1e40*cgs)   (au)      (au)      (au)  
-------------------------------------------------------------------
   1   21505.0    465.0    -159.22649   0.37839   0.86437   2.13139
   2   25122.7    398.0    252.50390  -0.13220   0.37680   0.28913
   3   33264.1    300.6    223.21161  -0.07357   0.02221  -0.68575

Total run time:    28651.276 sec

           *** ORCA-CIS/TD-DFT FINISHED WITHOUT ERROR ***

-----------------------
CIS/TD-DFT TOTAL ENERGY
-----------------------

    E(SCF)  =  -4710.961706335 Eh
    DE(CIS) =      0.097984025 Eh (Root  1)
    ----------------------------- ---------
    E(tot)  =  -4710.863722309 Eh


-------------------------   --------------------
FINAL SINGLE POINT ENERGY     -4710.863722309444
-------------------------   --------------------

------------------------------------------------------------------------------
                         ORCA SCF GRADIENT CALCULATION
------------------------------------------------------------------------------


------------
CIS GRADIENT
------------

Reference wavefunction             ... RHF
State of interest                  ... 1
Basis dimension                    ... 1310
DFT-XC contribution needed         ... NO
RI-approximation                   ... OFF
CIS-vectors being read from        ... SNBDT1-F.cis

 => Number of Vectors found: 3
 => Orbital Window: 92...280 -> 281...1309

Reading the CIS file                     ... done
Norm of the CI vector                    ... 1.000000000
Making the CIS (pseudo)densities         ... done
Making operators G(D) and Q(T)           ... done
Transforming the Fock operators          ... done
Making the frozen-core relaxed density   ... done
Constructing the G(H) operator           ... done
Transforming the G(H) operator           ... done
Calculating the CIS Lagrangian           ... done
Solving the Z-vector equations           ... done
Finalizing the relaxed density           ... done
Storing the relaxed density              ... done
Constructing the G(Z) operator           ... done
Transforming the G(Z) operator           ... done
Making the W-matrix                      ... done
Finalizing the W-matrix                  ... done
Transforming the W-matrix                ... done
Nuclear repulsion gradient               ... done
One-Electron gradient                    ... done
Prescreening matrices                    ... done
Two-Electron gradient (4-center)         ... done
                 ---------------------------
                 EXCITED STATE GRADIENT DONE
                 ---------------------------


------------------
CARTESIAN GRADIENT
------------------

   1   C   :    0.006464482    0.000284330   -0.004507560
   2   C   :   -0.014321565   -0.004485057    0.007126330
   3   C   :    0.012408025   -0.003685003    0.000239660
   4   C   :   -0.005644615   -0.004901895    0.005431584
   5   C   :    0.013707247    0.002350517   -0.007933254
   6   C   :   -0.016454863    0.002117993   -0.001680437
   7   S   :   -0.000868823    0.006383740   -0.003624497
   8   C   :   -0.005316878    0.007077732   -0.007650757
   9   C   :   -0.009899200   -0.003173421    0.000761604
  10   C   :    0.009248676    0.007975476   -0.008048776
  11   C   :    0.007118937   -0.007428753    0.007538663
  12   N   :   -0.001141877   -0.005987087    0.007752991
  13   S   :    0.003650238    0.006083599   -0.001030796
  14   C   :    0.007674134    0.000960177    0.000562972
  15   C   :   -0.001635938   -0.002366220    0.001356602
  16   S   :    0.002036575   -0.003588038    0.004752717
  17   C   :    0.008906950   -0.009199980    0.005364032
  18   C   :    0.007069901   -0.004250749   -0.001166833
  19   C   :   -0.014550957   -0.000695615    0.009985274
  20   C   :   -0.001137561    0.001490511   -0.006637540
  21   N   :   -0.000856545    0.006857910   -0.008231492
  22   S   :    0.001620725   -0.000898358    0.001577156
  23   C   :    0.004340943    0.001859551   -0.003879284
  24   C   :   -0.007646718    0.002440462    0.005017467
  25   O   :    0.015959597   -0.004651911    0.009826020
  26   O   :   -0.000406606    0.005051570   -0.020340797
  27   C   :    0.005020366    0.000206834    0.004251598
  28   C   :   -0.002101808    0.004353506   -0.002915619
  29   C   :   -0.002225454   -0.002144507    0.004500408
  30   C   :    0.001538676   -0.004213130   -0.002621391
  31   C   :    0.003301216   -0.003038700    0.000795635
  32   C   :   -0.004232572    0.001512441    0.004299711
  33   C   :   -0.001484276   -0.002699277   -0.004939991
  34   C   :    0.003293612    0.004130638   -0.002276252
  35   C   :   -0.003490840   -0.004155475    0.004873017
  36   C   :   -0.004097029    0.003128164   -0.001222656
  37   C   :    0.003752904    0.000690646   -0.006410217
  38   C   :   -0.005673408   -0.002212048    0.001982381
  39   C   :    0.005472508    0.002179140    0.000118025
  40   C   :   -0.000054620   -0.002001434    0.005244171
  41   C   :   -0.000104144    0.005101654   -0.003182805
  42   C   :    0.004316063    0.002023242    0.003674073
  43   C   :   -0.003286102    0.007213689   -0.002389809
  44   C   :   -0.001785016    0.005810110    0.001278871
  45   C   :   -0.004846726    0.036591751   -0.013767242
  46   C   :   -0.001268235   -0.009365204    0.006488449
  47   C   :   -0.013350362    0.008120759    0.007236695
  48   C   :    0.008380673   -0.013796055   -0.011033471
  49   C   :   -0.000639559   -0.001621979    0.001426416
  50   C   :   -0.002751455   -0.001645724    0.002849270
  51   C   :   -0.003414131    0.005706888   -0.001161852
  52   C   :    0.000399947    0.002719410   -0.000816035
  53   C   :   -0.002132986    0.010495721   -0.003234695
  54   C   :    0.004920821   -0.007127167    0.007925180
  55   C   :    0.025635822    0.023992322   -0.015279843
  56   C   :   -0.003416152   -0.009307549    0.006781696
  57   C   :    0.017093903   -0.004902030    0.004305704
  58   C   :   -0.008333040    0.002373746   -0.011102653
  59   C   :   -0.000563035   -0.001247143    0.000923401
  60   C   :   -0.000303234   -0.003808540    0.003032387
  61   C   :    0.007848171    0.002445302   -0.002091639
  62   C   :    0.000591502    0.002727973   -0.001024898
  63   O   :   -0.035812536   -0.026658227    0.019100992
  64   F   :   -0.015092481    0.010045071   -0.008961618
  65   C   :    0.011864935    0.007057677    0.004362334
  66   C   :   -0.030734483   -0.059066811    0.031162243
  67   C   :   -0.048253116    0.025526191   -0.049477656
  68   N   :    0.027806702    0.056062760   -0.029546689
  69   N   :    0.044803801   -0.028042043    0.043751864
  70   O   :    0.009798758   -0.045084706    0.014645648
  71   F   :    0.016142616   -0.003661233   -0.010305300
  72   C   :   -0.008194008    0.017769994    0.006924377
  73   C   :   -0.009774654   -0.066816393    0.033828592
  74   C   :    0.036920437   -0.004696447   -0.066222140
  75   N   :   -0.036227605    0.001783685    0.060388514
  76   N   :    0.010098966    0.062096658   -0.032499589
  77   H   :    0.002508484   -0.005760287    0.004760773
  78   H   :   -0.002021998    0.005758276   -0.005984091
  79   H   :   -0.006156477   -0.001783569    0.007468873
  80   H   :   -0.004967997    0.005232369   -0.005722887
  81   H   :    0.004073112   -0.005709437    0.003661217
  82   H   :   -0.003903532    0.004386164   -0.003290065
  83   H   :    0.001856914   -0.006483362   -0.004149965
  84   H   :    0.005548260    0.003050557    0.002211616
  85   H   :   -0.004278566    0.004002338   -0.003785029
  86   H   :    0.005119701    0.003921086    0.002204899
  87   H   :   -0.003876956   -0.002773279    0.005196085
  88   H   :   -0.004209181   -0.004020687   -0.006471910
  89   H   :   -0.008932532    0.003777257    0.005383780
  90   H   :    0.007037864   -0.002877423   -0.005542728
  91   H   :   -0.005268503    0.002543549    0.003560798
  92   H   :    0.004857981    0.005776326   -0.002950366
  93   H   :    0.003855526   -0.004368219    0.003794473
  94   H   :   -0.004846871    0.002626570    0.004118073
  95   H   :    0.003931285   -0.004522180    0.003965250
  96   H   :   -0.003000186   -0.003136525   -0.005356637
  97   H   :    0.010884266    0.001850120   -0.001582530
  98   H   :   -0.004437669    0.005993470   -0.001043144
  99   H   :    0.003955098   -0.005158416    0.001478385
 100   H   :   -0.010702349   -0.000368831    0.003196545
 101   H   :    0.004394562    0.000094394    0.005761718
 102   H   :    0.006846650    0.002951961   -0.003742038
 103   H   :   -0.002145334   -0.004498103   -0.004444220
 104   H   :   -0.003998704    0.005918891   -0.000147008
 105   H   :   -0.000785405   -0.002145456    0.007485224
 106   H   :   -0.004043409    0.005184110   -0.000374218
 107   H   :   -0.002519726   -0.004752760   -0.004449501
 108   H   :    0.006090934    0.002967300   -0.001180410
 109   H   :   -0.006578407   -0.001068475    0.003475007
 110   H   :    0.004271896    0.001946939    0.004652017
 111   H   :    0.002275259   -0.005540251   -0.003368353
 112   H   :   -0.005399791   -0.001958014    0.004182850
 113   H   :    0.002416502   -0.005126591   -0.003778199
 114   H   :   -0.002307575    0.005969919   -0.003548131
 115   H   :    0.002662498   -0.008139488    0.003275539
 116   H   :    0.003498725   -0.006977335    0.001995093
 117   H   :    0.003275319    0.004888711   -0.005347375
 118   H   :   -0.004438764    0.007406949   -0.000791557
 119   H   :   -0.007658050   -0.004839882    0.002922389
 120   H   :   -0.006771441   -0.003408246    0.002845960
 121   H   :   -0.000040120    0.006138905   -0.004993698
 122   H   :    0.008245091    0.002855017   -0.001781147

Difference to translation invariance:
           :   -0.0000000000    0.0000000001   -0.0000000001

Norm of the cartesian gradient     ...    0.2453879611
RMS gradient                       ...    0.0128266342
MAX gradient                       ...    0.0668163925

-------
TIMINGS
-------

Total CIS gradient time            ...    25375.415 sec

Fock matrix formation       ....    1935.580 sec  (  7.6%)
  Coulomb formation         ....    1935.580 sec  (100.0% of F)
Z-vector equation           ....   21131.132 sec  ( 83.3%)
One electron gradient       ....      17.843 sec  (  0.1%)
Prescreening matrices       ....       1.194 sec  (  0.0%)
Two electron gradient       ....    2286.375 sec  (  9.0%)

                            ***************************************
                            *     ORCA property calculations      *
                            ***************************************

                                    ---------------------
                                    Active property flags
                                    ---------------------
   (+) Dipole Moment


------------------------------------------------------------------------------
                       ORCA ELECTRIC PROPERTIES CALCULATION
------------------------------------------------------------------------------

Dipole Moment Calculation                       ... on
Quadrupole Moment Calculation                   ... off
Polarizability Calculation                      ... off
GBWName                                         ... SNBDT1-F.gbw
Electron density file                           ... SNBDT1-F.scfp
The origin for moment calculation is the CENTER OF MASS  = (-2.335922,  0.319175  0.162927)

-------------
DIPOLE MOMENT
-------------
                                X             Y             Z
Electronic contribution:     13.43316      55.62472     -12.83563
Nuclear contribution   :    -15.71489     -58.92729      11.75488
                        -----------------------------------------
Total Dipole Moment    :     -2.28173      -3.30257      -1.08075
                        -----------------------------------------
Magnitude (a.u.)       :      4.15708
Magnitude (Debye)      :     10.56645



--------------------
Rotational spectrum 
--------------------
 
Rotational constants in cm-1:     0.001545     0.000288     0.000257 
Rotational constants in MHz :    46.332745     8.647981     7.690798 

 Dipole components along the rotational axes: 
x,y,z [a.u.] :    -1.341277    -2.725590    -2.837855 
x,y,z [Debye]:    -3.409256    -6.927899    -7.213255 

 

                        *** CIS RELAXED DENSITY ***

------------------------------------------------------------------------------
                       ORCA ELECTRIC PROPERTIES CALCULATION
------------------------------------------------------------------------------

Dipole Moment Calculation                       ... on
Quadrupole Moment Calculation                   ... off
Polarizability Calculation                      ... off
GBWName                                         ... SNBDT1-F.gbw
Electron density file                           ... SNBDT1-F.cisp
The origin for moment calculation is the CENTER OF MASS  = (-2.335922,  0.319175  0.162927)

-------------
DIPOLE MOMENT
-------------
                                X             Y             Z
Electronic contribution:     13.99646      54.60820     -12.76120
Nuclear contribution   :    -15.71489     -58.92729      11.75488
                        -----------------------------------------
Total Dipole Moment    :     -1.71843      -4.31908      -1.00632
                        -----------------------------------------
Magnitude (a.u.)       :      4.75607
Magnitude (Debye)      :     12.08896



--------------------
Rotational spectrum 
--------------------
 
Rotational constants in cm-1:     0.001545     0.000288     0.000257 
Rotational constants in MHz :    46.332745     8.647981     7.690798 

 Dipole components along the rotational axes: 
x,y,z [a.u.] :    -0.547766    -3.516892    -3.154615 
x,y,z [Debye]:    -1.392310    -8.939229    -8.018394 

 

Timings for individual modules:

Sum of individual times         ...    62178.434 sec (=1036.307 min)
GTO integral calculation        ...        4.419 sec (=   0.074 min)   0.0 %
SCF iterations                  ...     8146.754 sec (= 135.779 min)  13.1 %
CIS module                      ...    28651.545 sec (= 477.526 min)  46.1 %
SCF Gradient evaluation         ...    25375.715 sec (= 422.929 min)  40.8 %
                             ****ORCA TERMINATED NORMALLY****
TOTAL RUN TIME: 0 days 17 hours 16 minutes 19 seconds 574 msec
