
                                 *****************
                                 * O   R   C   A *
                                 *****************

           --- An Ab Initio, DFT and Semiempirical electronic structure package ---

                  #######################################################
                  #                        -***-                        #
                  #          Department of theory and spectroscopy      #
                  #               Directorship: Frank Neese             #
                  #        Max Planck Institute fuer Kohlenforschung    #
                  #                Kaiser Wilhelm Platz 1               #
                  #                 D-45470 Muelheim/Ruhr               #
                  #                      Germany                        #
                  #                                                     #
                  #                  All rights reserved                #
                  #                        -***-                        #
                  #######################################################


                         Program Version 4.2.0 -  RELEASE  -


 With contributions from (in alphabetic order):
   Daniel Aravena         : Magnetic Suceptibility
   Michael Atanasov       : Ab Initio Ligand Field Theory (pilot matlab implementation)
   Alexander A. Auer      : GIAO ZORA, VPT2
   Ute Becker             : Parallelization
   Giovanni Bistoni       : ED, misc. LED, open-shell LED, HFLED
   Martin Brehm           : Molecular dynamics
   Dmytro Bykov           : SCF Hessian
   Vijay G. Chilkuri      : MRCI spin determinant printing, contributions to CSF-ICE
   Dipayan Datta          : RHF DLPNO-CCSD density
   Achintya Kumar Dutta   : EOM-CC, STEOM-CC
   Dmitry Ganyushin       : Spin-Orbit,Spin-Spin,Magnetic field MRCI
   Miquel Garcia          : C-PCM Hessian, Gaussian charge scheme
   Yang Guo               : DLPNO-NEVPT2, CIM, IAO-localization
   Andreas Hansen         : Spin unrestricted coupled pair/coupled cluster methods
   Benjamin Helmich-Paris : CASSCF linear response (MC-RPA)
   Lee Huntington         : MR-EOM, pCC
   Robert Izsak           : Overlap fitted RIJCOSX, COSX-SCS-MP3, EOM
   Christian Kollmar      : KDIIS, OOCD, Brueckner-CCSD(T), CCSD density
   Simone Kossmann        : Meta GGA functionals, TD-DFT gradient, OOMP2, MP2 Hessian
   Martin Krupicka        : AUTO-CI
   Lucas Lang             : DCDCAS
   Dagmar Lenk            : GEPOL surface, SMD
   Dimitrios Liakos       : Extrapolation schemes; Compound Job, initial MDCI parallelization
   Dimitrios Manganas     : Further ROCIS development; embedding schemes
   Dimitrios Pantazis     : SARC Basis sets
   Taras Petrenko         : DFT Hessian,TD-DFT gradient, ASA, ECA, R-Raman, ABS, FL, XAS/XES, NRVS
   Peter Pinski           : DLPNO-MP2, DLPNO-MP2 Gradient
   Christoph Reimann      : Effective Core Potentials
   Marius Retegan         : Local ZFS, SOC
   Christoph Riplinger    : Optimizer, TS searches, QM/MM, DLPNO-CCSD(T), (RO)-DLPNO pert. Triples
   Tobias Risthaus        : Range-separated hybrids, TD-DFT gradient, RPA, STAB
   Michael Roemelt        : Original ROCIS implementation
   Masaaki Saitow         : Open-shell DLPNO-CCSD energy and density
   Barbara Sandhoefer     : DKH picture change effects
   Avijit Sen             : IP-ROCIS
   Kantharuban Sivalingam : CASSCF convergence, NEVPT2, FIC-MRCI
   Bernardo de Souza      : ESD, SOC TD-DFT
   Georgi Stoychev        : AutoAux, RI-MP2 NMR
   Willem Van den Heuvel  : Paramagnetic NMR
   Boris Wezisla          : Elementary symmetry handling
   Frank Wennmohs         : Technical directorship


 We gratefully acknowledge several colleagues who have allowed us to
 interface, adapt or use parts of their codes:
   Stefan Grimme, W. Hujo, H. Kruse,             : VdW corrections, initial TS optimization,
                  C. Bannwarth                     DFT functionals, gCP, sTDA/sTD-DF
   Ed Valeev, F. Pavosevic, A. Kumar             : LibInt (2-el integral package), F12 methods
   Garnet Chan, S. Sharma, J. Yang, R. Olivares  : DMRG
   Ulf Ekstrom                                   : XCFun DFT Library
   Mihaly Kallay                                 : mrcc  (arbitrary order and MRCC methods)
   Andreas Klamt, Michael Diedenhofen            : otool_cosmo (COSMO solvation model)
   Jiri Pittner, Ondrej Demel                    : Mk-CCSD
   Frank Weinhold                                : gennbo (NPA and NBO analysis)
   Christopher J. Cramer and Donald G. Truhlar   : smd solvation model
   Lars Goerigk                                  : TD-DFT with DH, B97 family of functionals
   V. Asgeirsson, H. Jonsson                     : NEB implementation
   FAccTs GmbH                                   : IRC, NEB, NEB-TS, Multilevel, MM, QM/MM, CI optimization
   S Lehtola, MJT Oliveira, MAL Marques          : LibXC Library


 Your calculation uses the libint2 library for the computation of 2-el integrals
 For citations please refer to: http://libint.valeyev.net

 Your ORCA version has been built with support for libXC version: 4.2.3
 For citations please refer to: https://tddft.org/programs/libxc/

 This ORCA versions uses:
   CBLAS   interface :  Fast vector & matrix operations
   LAPACKE interface :  Fast linear algebra routines
   SCALAPACK package :  Parallel linear algebra routines


----- Orbital basis set information -----
Your calculation utilizes the basis: def2-SVP
   F. Weigend and R. Ahlrichs, Phys. Chem. Chem. Phys. 7, 3297 (2005).

================================================================================
                                        WARNINGS
                       Please study these warnings very carefully!
================================================================================

INFO   : Checking CIS options ...

WARNING: CIS/ROCIS methods need fully converged wavefunctions
  ===> : Setting SCFConvForced true
         You can overwrite this default with %scf ConvForced false 


INFO   : the flag for use of LIBINT has been found!

================================================================================
                                       INPUT FILE
================================================================================
NAME = SNBDT1-F.inp
|  1> # ORCA input file
|  2> # SNBDT1-F.out
|  3> ! Engrad Keepdens
|  4> %maxcore 1000
|  5> %tddft
|  6>   nroots 3 
|  7>   # nroots is the number of states to be computed
|  8>   Iroot 1
|  9>   end
| 10> * xyz 0 1
| 11>    C       -2.75775        -0.28298         0.46022
| 12>    C       -1.64820         0.35948        -0.10791
| 13>    C       -0.43908        -0.31159        -0.07805
| 14>    C       -0.24055        -1.55111         0.58587
| 15>    C       -1.30408        -2.06736         1.36280
| 16>    C       -2.54433        -1.44639         1.25749
| 17>    S        0.98268         0.34692        -0.85103
| 18>    C        1.86730        -1.04648        -0.34291
| 19>    C        1.10640        -1.98383         0.39234
| 20>    C        3.15556        -1.54909        -0.45640
| 21>    C        3.14882        -2.80500         0.19241
| 22>    N        1.90424        -3.05416         0.70766
| 23>    S        4.70313        -1.15719        -1.09025
| 24>    C        5.34789        -2.68405        -0.47470
| 25>    C        4.37896        -3.45397         0.14902
| 26>    S       -4.02964        -1.98707         2.05892
| 27>    C       -4.92437        -0.73651         1.27614
| 28>    C       -4.13769         0.06000         0.42492
| 29>    C       -6.23614        -0.28797         1.16929
| 30>    C       -6.21732         0.75858         0.21314
| 31>    N       -4.93804         0.95657        -0.23915
| 32>    S       -7.81217        -0.56112         1.78988
| 33>    C       -8.44039         0.76614         0.80703
| 34>    C       -7.46006         1.34489         0.01220
| 35>    O       -1.01045        -3.13685         2.14337
| 36>    O       -1.70373         1.61441        -0.66139
| 37>    C       -1.89782         2.65795         0.29709
| 38>    C       -0.64917         2.94782         1.13761
| 39>    C        0.41143         3.64290         0.28893
| 40>    C       -1.02766         3.80387         2.34280
| 41>    C       -1.79773        -3.46375         3.27795
| 42>    C       -0.95014        -4.31517         4.22854
| 43>    C        0.18601        -3.48488         4.81962
| 44>    C       -1.83848        -4.88396         5.33044
| 45>    C       -4.63070         1.66037        -1.45970
| 46>    C       -4.55651         0.71089        -2.66852
| 47>    C        1.55701        -4.33509         1.26581
| 48>    C        1.32099        -5.39801         0.17948
| 49>    C       -5.91965         0.10647        -2.99067
| 50>    C       -4.00069         1.47303        -3.86741
| 51>    C        1.06211        -6.74513         0.84731
| 52>    C        0.14500        -5.00209        -0.70807
| 53>    C        6.68878        -3.06501        -0.69462
| 54>    C        7.76071        -2.27122        -0.97860
| 55>    C        8.95602        -2.83869        -1.64921
| 56>    C        9.71074        -1.66203        -2.14219
| 57>    C        9.09341        -0.48225        -1.68635
| 58>    C        7.96672        -0.84723        -0.83059
| 59>    C       10.83863        -1.63095        -2.93703
| 60>    C       11.33097        -0.37922        -3.27617
| 61>    C       10.73322         0.79836        -2.85188
| 62>    C        9.60586         0.75467        -2.04561
| 63>    C       -9.81415         1.05209         0.89010
| 64>    C      -10.51439         2.14630         0.46220
| 65>    C      -11.98155         2.01556         0.27035
| 66>    C      -12.37967         3.21166        -0.50681
| 67>    C      -11.26594         4.05554        -0.66696
| 68>    C      -10.13055         3.47601         0.05373
| 69>    C      -13.61317         3.52205        -1.04133
| 70>    C      -13.70407         4.70633        -1.75824
| 71>    C      -12.61895         5.54972        -1.94385
| 72>    C      -11.38662         5.23036        -1.39343
| 73>    O      -12.68561         1.10374         0.63804
| 74>    F      -14.88473         5.05027        -2.29871
| 75>    C       -9.02922         4.18300         0.46734
| 76>    C       -8.74622         5.50590         0.07277
| 77>    C       -8.08188         3.70487         1.39358
| 78>    N       -8.44274         6.57002        -0.23402
| 79>    N       -7.28917         3.38437         2.15984
| 80>    O        9.22417        -4.00849        -1.80056
| 81>    F       12.42771        -0.30033        -4.04904
| 82>    C        7.42095        -0.05247         0.14338
| 83>    C        7.72835         1.31231         0.30785
| 84>    C        6.56865        -0.54802         1.15252
| 85>    N        5.92601        -0.93246         2.02276
| 86>    N        7.93789         2.42844         0.47570
| 87>    H        4.59939        -4.41379         0.57947
| 88>    H       -7.67016         2.12149        -0.70026
| 89>    H       -2.74069         2.40713         0.95393
| 90>    H       -2.15655         3.54180        -0.29166
| 91>    H       -0.25125         1.99126         1.49585
| 92>    H        0.08078         4.64462         0.02263
| 93>    H        0.59167         3.08338        -0.62532
| 94>    H        1.34707         3.72124         0.83611
| 95>    H       -1.47231         4.74153         2.01690
| 96>    H       -0.14262         4.02969         2.93162
| 97>    H       -1.74258         3.28745         2.97970
| 98>    H       -2.68489        -4.02870         2.96756
| 99>    H       -2.11700        -2.55312         3.79432
|100>    H       -0.52595        -5.14397         3.65238
|101>    H       -0.21490        -2.69980         5.45707
|102>    H        0.77623        -3.02190         4.03296
|103>    H        0.84091        -4.11217         5.41855
|104>    H       -2.30488        -4.07982         5.89448
|105>    H       -1.24591        -5.48522         6.01457
|106>    H       -2.62302        -5.50993         4.91253
|107>    H       -3.67005         2.16082        -1.36137
|108>    H       -5.40787         2.41133        -1.61559
|109>    H       -3.86094        -0.09703        -2.41471
|110>    H        0.65195        -4.22181         1.85563
|111>    H        2.37759        -4.64846         1.91802
|112>    H        2.22174        -5.47372        -0.44014
|113>    H       -5.83988        -0.56820        -3.83944
|114>    H       -6.63317         0.88855        -3.24339
|115>    H       -6.30976        -0.45851        -2.14671
|116>    H       -4.64772         2.31027        -4.12031
|117>    H       -3.93331         0.81854        -4.73252
|118>    H       -3.00689         1.85490        -3.64714
|119>    H        0.16109        -6.69760         1.45502
|120>    H        1.89512        -7.02878         1.48653
|121>    H        0.92744        -7.52016         0.09724
|122>    H       -0.75272        -4.87255        -0.10756
|123>    H       -0.04420        -5.77260        -1.45145
|124>    H        0.34689        -4.06953        -1.23047
|125>    H        6.88111        -4.13350        -0.71816
|126>    H       11.31654        -2.53547        -3.27761
|127>    H       11.15734         1.74219        -3.15636
|128>    H        9.14023         1.67159        -1.72237
|129>    H      -10.43456         0.25943         1.29843
|130>    H      -14.46636         2.87661        -0.90755
|131>    H      -12.74787         6.45348        -2.51825
|132>    H      -10.54746         5.88925        -1.54617
|133> *
|134> 
|135>                          ****END OF INPUT****
================================================================================

                     *******************************
                     * Energy+Gradient Calculation *
                     *******************************

---------------------------------
CARTESIAN COORDINATES (ANGSTROEM)
---------------------------------
  C     -2.757750   -0.282980    0.460220
  C     -1.648200    0.359480   -0.107910
  C     -0.439080   -0.311590   -0.078050
  C     -0.240550   -1.551110    0.585870
  C     -1.304080   -2.067360    1.362800
  C     -2.544330   -1.446390    1.257490
  S      0.982680    0.346920   -0.851030
  C      1.867300   -1.046480   -0.342910
  C      1.106400   -1.983830    0.392340
  C      3.155560   -1.549090   -0.456400
  C      3.148820   -2.805000    0.192410
  N      1.904240   -3.054160    0.707660
  S      4.703130   -1.157190   -1.090250
  C      5.347890   -2.684050   -0.474700
  C      4.378960   -3.453970    0.149020
  S     -4.029640   -1.987070    2.058920
  C     -4.924370   -0.736510    1.276140
  C     -4.137690    0.060000    0.424920
  C     -6.236140   -0.287970    1.169290
  C     -6.217320    0.758580    0.213140
  N     -4.938040    0.956570   -0.239150
  S     -7.812170   -0.561120    1.789880
  C     -8.440390    0.766140    0.807030
  C     -7.460060    1.344890    0.012200
  O     -1.010450   -3.136850    2.143370
  O     -1.703730    1.614410   -0.661390
  C     -1.897820    2.657950    0.297090
  C     -0.649170    2.947820    1.137610
  C      0.411430    3.642900    0.288930
  C     -1.027660    3.803870    2.342800
  C     -1.797730   -3.463750    3.277950
  C     -0.950140   -4.315170    4.228540
  C      0.186010   -3.484880    4.819620
  C     -1.838480   -4.883960    5.330440
  C     -4.630700    1.660370   -1.459700
  C     -4.556510    0.710890   -2.668520
  C      1.557010   -4.335090    1.265810
  C      1.320990   -5.398010    0.179480
  C     -5.919650    0.106470   -2.990670
  C     -4.000690    1.473030   -3.867410
  C      1.062110   -6.745130    0.847310
  C      0.145000   -5.002090   -0.708070
  C      6.688780   -3.065010   -0.694620
  C      7.760710   -2.271220   -0.978600
  C      8.956020   -2.838690   -1.649210
  C      9.710740   -1.662030   -2.142190
  C      9.093410   -0.482250   -1.686350
  C      7.966720   -0.847230   -0.830590
  C     10.838630   -1.630950   -2.937030
  C     11.330970   -0.379220   -3.276170
  C     10.733220    0.798360   -2.851880
  C      9.605860    0.754670   -2.045610
  C     -9.814150    1.052090    0.890100
  C    -10.514390    2.146300    0.462200
  C    -11.981550    2.015560    0.270350
  C    -12.379670    3.211660   -0.506810
  C    -11.265940    4.055540   -0.666960
  C    -10.130550    3.476010    0.053730
  C    -13.613170    3.522050   -1.041330
  C    -13.704070    4.706330   -1.758240
  C    -12.618950    5.549720   -1.943850
  C    -11.386620    5.230360   -1.393430
  O    -12.685610    1.103740    0.638040
  F    -14.884730    5.050270   -2.298710
  C     -9.029220    4.183000    0.467340
  C     -8.746220    5.505900    0.072770
  C     -8.081880    3.704870    1.393580
  N     -8.442740    6.570020   -0.234020
  N     -7.289170    3.384370    2.159840
  O      9.224170   -4.008490   -1.800560
  F     12.427710   -0.300330   -4.049040
  C      7.420950   -0.052470    0.143380
  C      7.728350    1.312310    0.307850
  C      6.568650   -0.548020    1.152520
  N      5.926010   -0.932460    2.022760
  N      7.937890    2.428440    0.475700
  H      4.599390   -4.413790    0.579470
  H     -7.670160    2.121490   -0.700260
  H     -2.740690    2.407130    0.953930
  H     -2.156550    3.541800   -0.291660
  H     -0.251250    1.991260    1.495850
  H      0.080780    4.644620    0.022630
  H      0.591670    3.083380   -0.625320
  H      1.347070    3.721240    0.836110
  H     -1.472310    4.741530    2.016900
  H     -0.142620    4.029690    2.931620
  H     -1.742580    3.287450    2.979700
  H     -2.684890   -4.028700    2.967560
  H     -2.117000   -2.553120    3.794320
  H     -0.525950   -5.143970    3.652380
  H     -0.214900   -2.699800    5.457070
  H      0.776230   -3.021900    4.032960
  H      0.840910   -4.112170    5.418550
  H     -2.304880   -4.079820    5.894480
  H     -1.245910   -5.485220    6.014570
  H     -2.623020   -5.509930    4.912530
  H     -3.670050    2.160820   -1.361370
  H     -5.407870    2.411330   -1.615590
  H     -3.860940   -0.097030   -2.414710
  H      0.651950   -4.221810    1.855630
  H      2.377590   -4.648460    1.918020
  H      2.221740   -5.473720   -0.440140
  H     -5.839880   -0.568200   -3.839440
  H     -6.633170    0.888550   -3.243390
  H     -6.309760   -0.458510   -2.146710
  H     -4.647720    2.310270   -4.120310
  H     -3.933310    0.818540   -4.732520
  H     -3.006890    1.854900   -3.647140
  H      0.161090   -6.697600    1.455020
  H      1.895120   -7.028780    1.486530
  H      0.927440   -7.520160    0.097240
  H     -0.752720   -4.872550   -0.107560
  H     -0.044200   -5.772600   -1.451450
  H      0.346890   -4.069530   -1.230470
  H      6.881110   -4.133500   -0.718160
  H     11.316540   -2.535470   -3.277610
  H     11.157340    1.742190   -3.156360
  H      9.140230    1.671590   -1.722370
  H    -10.434560    0.259430    1.298430
  H    -14.466360    2.876610   -0.907550
  H    -12.747870    6.453480   -2.518250
  H    -10.547460    5.889250   -1.546170

----------------------------
CARTESIAN COORDINATES (A.U.)
----------------------------
  NO LB      ZA    FRAG     MASS         X           Y           Z
   0 C     6.0000    0    12.011   -5.211392   -0.534755    0.869690
   1 C     6.0000    0    12.011   -3.114647    0.679319   -0.203920
   2 C     6.0000    0    12.011   -0.829741   -0.588820   -0.147493
   3 C     6.0000    0    12.011   -0.454574   -2.931173    1.107134
   4 C     6.0000    0    12.011   -2.464354   -3.906744    2.575319
   5 C     6.0000    0    12.011   -4.808087   -2.733281    2.376312
   6 S    16.0000    0    32.060    1.856996    0.655584   -1.608214
   7 C     6.0000    0    12.011    3.528686   -1.977561   -0.648006
   8 C     6.0000    0    12.011    2.090793   -3.748895    0.741415
   9 C     6.0000    0    12.011    5.963144   -2.927356   -0.862471
  10 C     6.0000    0    12.011    5.950407   -5.300682    0.363602
  11 N     7.0000    0    14.007    3.598492   -5.771526    1.337284
  12 S    16.0000    0    32.060    8.887628   -2.186772   -2.060274
  13 C     6.0000    0    12.011   10.106047   -5.072119   -0.897053
  14 C     6.0000    0    12.011    8.275035   -6.527057    0.281607
  15 S    16.0000    0    32.060   -7.614916   -3.755018    3.890795
  16 C     6.0000    0    12.011   -9.305711   -1.391802    2.411555
  17 C     6.0000    0    12.011   -7.819101    0.113384    0.802982
  18 C     6.0000    0    12.011  -11.784597   -0.544184    2.209638
  19 C     6.0000    0    12.011  -11.749032    1.433508    0.402776
  20 N     7.0000    0    14.007   -9.331543    1.807655   -0.451928
  21 S    16.0000    0    32.060  -14.762862   -1.060363    3.382383
  22 C     6.0000    0    12.011  -15.950026    1.447795    1.525066
  23 C     6.0000    0    12.011  -14.097470    2.541474    0.023055
  24 O     8.0000    0    15.999   -1.909474   -5.927787    4.050382
  25 O     8.0000    0    15.999   -3.219583    3.050793   -1.249846
  26 C     6.0000    0    12.011   -3.586360    5.022798    0.561419
  27 C     6.0000    0    12.011   -1.226754    5.570572    2.149771
  28 C     6.0000    0    12.011    0.777490    6.884083    0.545999
  29 C     6.0000    0    12.011   -1.941996    7.188273    4.427250
  30 C     6.0000    0    12.011   -3.397217   -6.545539    6.194428
  31 C     6.0000    0    12.011   -1.795504   -8.154490    7.990783
  32 C     6.0000    0    12.011    0.351508   -6.585469    9.107762
  33 C     6.0000    0    12.011   -3.474224   -9.229347   10.073072
  34 C     6.0000    0    12.011   -8.750755    3.137645   -2.758433
  35 C     6.0000    0    12.011   -8.610556    1.343387   -5.042772
  36 C     6.0000    0    12.011    2.942322   -8.192133    2.392034
  37 C     6.0000    0    12.011    2.496309  -10.200761    0.339168
  38 C     6.0000    0    12.011  -11.186517    0.201199   -5.651547
  39 C     6.0000    0    12.011   -7.560208    2.783623   -7.308346
  40 C     6.0000    0    12.011    2.007097  -12.746448    1.601184
  41 C     6.0000    0    12.011    0.274010   -9.452580   -1.338058
  42 C     6.0000    0    12.011   12.639962   -5.792029   -1.312642
  43 C     6.0000    0    12.011   14.665617   -4.291984   -1.849286
  44 C     6.0000    0    12.011   16.924425   -5.364347   -3.116555
  45 C     6.0000    0    12.011   18.350639   -3.140782   -4.048152
  46 C     6.0000    0    12.011   17.184055   -0.911320   -3.186740
  47 C     6.0000    0    12.011   15.054919   -1.601033   -1.569588
  48 C     6.0000    0    12.011   20.482042   -3.082049   -5.550182
  49 C     6.0000    0    12.011   21.412430   -0.716622   -6.191064
  50 C     6.0000    0    12.011   20.282846    1.508682   -5.389272
  51 C     6.0000    0    12.011   18.152445    1.426120   -3.865643
  52 C     6.0000    0    12.011  -18.546056    1.988162    1.682045
  53 C     6.0000    0    12.011  -19.869318    4.055919    0.873431
  54 C     6.0000    0    12.011  -22.641848    3.808856    0.510887
  55 C     6.0000    0    12.011  -23.394186    6.069158   -0.957732
  56 C     6.0000    0    12.011  -21.289541    7.663860   -1.260372
  57 C     6.0000    0    12.011  -19.143965    6.568707    0.101535
  58 C     6.0000    0    12.011  -25.725163    6.655710   -1.967829
  59 C     6.0000    0    12.011  -25.896939    8.893675   -3.322592
  60 C     6.0000    0    12.011  -23.846360   10.487451   -3.673344
  61 C     6.0000    0    12.011  -21.517593    9.883948   -2.633201
  62 O     8.0000    0    15.999  -23.972329    2.085766    1.205721
  63 F     9.0000    0    18.998  -28.128063    9.543627   -4.343932
  64 C     6.0000    0    12.011  -17.062753    7.904724    0.883145
  65 C     6.0000    0    12.011  -16.527961   10.404643    0.137515
  66 C     6.0000    0    12.011  -15.272540    7.001190    2.633485
  67 N     7.0000    0    14.007  -15.954466   12.415538   -0.442234
  68 N     7.0000    0    14.007  -13.774535    6.395532    4.081506
  69 O     8.0000    0    15.999   17.431155   -7.574948   -3.402565
  70 F     9.0000    0    18.998   23.484968   -0.567541   -7.651577
  71 C     6.0000    0    12.011   14.023563   -0.099154    0.270949
  72 C     6.0000    0    12.011   14.604465    2.479907    0.581752
  73 C     6.0000    0    12.011   12.412950   -1.035608    2.177947
  74 N     7.0000    0    14.007   11.198536   -1.762094    3.822462
  75 N     7.0000    0    14.007   15.000438    4.589087    0.898943
  76 H     1.0000    0     1.008    8.691587   -8.340854    1.095040
  77 H     1.0000    0     1.008  -14.494502    4.009035   -1.323300
  78 H     1.0000    0     1.008   -5.179154    4.548816    1.802666
  79 H     1.0000    0     1.008   -4.075289    6.693032   -0.551158
  80 H     1.0000    0     1.008   -0.474794    3.762936    2.826747
  81 H     1.0000    0     1.008    0.152652    8.777060    0.042765
  82 H     1.0000    0     1.008    1.118094    5.826744   -1.181684
  83 H     1.0000    0     1.008    2.545593    7.032124    1.580019
  84 H     1.0000    0     1.008   -2.782263    8.960193    3.811389
  85 H     1.0000    0     1.008   -0.269513    7.615011    5.539959
  86 H     1.0000    0     1.008   -3.292999    6.212380    5.630817
  87 H     1.0000    0     1.008   -5.073707   -7.613140    5.607876
  88 H     1.0000    0     1.008   -4.000550   -4.824698    7.170226
  89 H     1.0000    0     1.008   -0.993901   -9.720695    6.901998
  90 H     1.0000    0     1.008   -0.406102   -5.101883   10.312368
  91 H     1.0000    0     1.008    1.466862   -5.710563    7.621190
  92 H     1.0000    0     1.008    1.589090   -7.770875   10.239576
  93 H     1.0000    0     1.008   -4.355592   -7.709742   11.138953
  94 H     1.0000    0     1.008   -2.354429  -10.365564   11.365890
  95 H     1.0000    0     1.008   -4.956789  -10.412259    9.283336
  96 H     1.0000    0     1.008   -6.935389    4.083358   -2.572616
  97 H     1.0000    0     1.008  -10.219393    4.556753   -3.053023
  98 H     1.0000    0     1.008   -7.296119   -0.183360   -4.563141
  99 H     1.0000    0     1.008    1.232007   -7.978065    3.506633
 100 H     1.0000    0     1.008    4.492994   -8.784316    3.624533
 101 H     1.0000    0     1.008    4.198480  -10.343832   -0.831744
 102 H     1.0000    0     1.008  -11.035774   -1.073742   -7.255490
 103 H     1.0000    0     1.008  -12.534875    1.679116   -6.129119
 104 H     1.0000    0     1.008  -11.923718   -0.866458   -4.056694
 105 H     1.0000    0     1.008   -8.782918    4.365778   -7.786257
 106 H     1.0000    0     1.008   -7.432879    1.546816   -8.943167
 107 H     1.0000    0     1.008   -5.682199    3.505253   -6.892096
 108 H     1.0000    0     1.008    0.304416  -12.656630    2.749589
 109 H     1.0000    0     1.008    3.581258  -13.282469    2.809135
 110 H     1.0000    0     1.008    1.752608  -14.211043    0.183757
 111 H     1.0000    0     1.008   -1.422435   -9.207785   -0.203259
 112 H     1.0000    0     1.008   -0.083526  -10.908633   -2.742843
 113 H     1.0000    0     1.008    0.655527   -7.690297   -2.325251
 114 H     1.0000    0     1.008   13.003413   -7.811183   -1.357126
 115 H     1.0000    0     1.008   21.385161   -4.791344   -6.193785
 116 H     1.0000    0     1.008   21.084317    3.292262   -5.964656
 117 H     1.0000    0     1.008   17.272532    3.158847   -3.254808
 118 H     1.0000    0     1.008  -19.718461    0.490252    2.453677
 119 H     1.0000    0     1.008  -27.337459    5.436005   -1.715021
 120 H     1.0000    0     1.008  -24.089983   12.195310   -4.758803
 121 H     1.0000    0     1.008  -19.931811   11.129070   -2.921838

--------------------------------
INTERNAL COORDINATES (ANGSTROEM)
--------------------------------
 C      0   0   0     0.000000000000     0.00000000     0.00000000
 C      1   0   0     1.402365056253     0.00000000     0.00000000
 C      2   1   0     1.383183913621   117.42716308     0.00000000
 C      3   2   1     1.420075264801   123.76441448   354.65242207
 C      4   3   2     1.414648489308   118.04698015   353.94484717
 C      5   4   3     1.391011861740   117.76368454    10.15222499
 S      3   2   1     1.747150536760   121.26130659   175.82815539
 C      7   3   2     1.726934289080    89.00077010   180.49172991
 C      8   7   3     1.413572210748   114.35214908   359.97297294
 C      8   7   3     1.387483556587   138.05888161   179.15552867
 C     10   8   7     1.413615850152   106.25209110   181.97232244
 N     11  10   8     1.369869572076   109.78914367   358.95954766
 S     10   8   7     1.717650819404   141.63591074     2.68095764
 C     13  10   8     1.768026787043    90.17486619   179.01326645
 C     14  13  10     1.385867522421   112.42644676     1.77746805
 S      6   5   4     1.772221967870   125.22846591   176.01983993
 C     16   6   5     1.725452582629    90.47696229   183.34283346
 C     17  16   6     1.406367338536   113.26649783     0.58282642
 C     17  16   6     1.390447980688   139.27681016   176.55783084
 C     19  17  16     1.417689640718   106.10748575   185.54833759
 N     20  19  17     1.371248920729   109.96395261   359.30556623
 S     19  17  16     1.715696194406   141.94902098     5.95977068
 C     22  19  17     1.766995641902    90.33273649   177.78306067
 C     23  22  19     1.388435522558   112.36425777     1.95216971
 O      5   4   3     1.356214202071   116.17437012   189.89957962
 O      2   1   3     1.372688237074   123.37849282   181.20396365
 C     26   2   1     1.430150541062   113.72434906    69.64156176
 C     27  26   2     1.532848756336   113.26145924    73.41603423
 C     28  27  26     1.525865757136   110.32646823    71.60309260
 C     28  27  26     1.525961735660   109.70101618   194.01743102
 C     25   5   4     1.419135365214   121.44550399   158.03839965
 C     31  25   5     1.531974599202   108.49203691   202.08559894
 C     32  31  25     1.526300715128   110.47553732    67.52764520
 C     32  31  25     1.525402776220   109.46671570   189.91953896
 C     21  20  19     1.442059159015   123.26229045   161.82094043
 C     35  21  20     1.538915923272   111.96249415   269.27209212
 C     12  11  10     1.439750589616   121.78630913   171.56857690
 C     37  12  11     1.538056317467   112.21249233   284.69914088
 C     36  35  21     1.525534273132   111.54594081    66.61213405
 C     36  35  21     1.525493521487   109.06547214   189.51260252
 C     38  37  12     1.525695925701   109.09086142   175.80217672
 C     38  37  12     1.525598285592   110.47789062   297.67213168
 C     14  13  10     1.411198540284   121.69411484   178.12081801
 C     43  14  13     1.363737925483   128.47559468    22.50087141
 C     44  43  14     1.483410249762   120.32052900   202.29677432
 C     45  44  43     1.482282130500   104.88949743   163.97248541
 C     46  45  44     1.407397343645   109.53479606     5.59135093
 C     44  43  14     1.446407480726   131.58202654    17.22768632
 C     46  45  44     1.380171164784   128.71897258   186.27793109
 C     49  46  45     1.387170720604   116.81848306   178.72103256
 C     50  49  46     1.387091101190   122.57017535   359.81999232
 C     47  46  45     1.386233687551   120.12510274   181.38669430
 C     23  22  19     1.405661611128   117.86516099   179.69129807
 C     53  23  22     1.367746318474   130.13588075   165.95650688
 C     54  53  23     1.485415038196   118.40281582   160.30293293
 C     55  54  53     1.480922823783   105.20177975   194.11230635
 C     56  55  54     1.406476444808   109.35847776   355.11973294
 C     54  53  23     1.443020987581   133.59572240   344.57239471
 C     56  55  54     1.379701356272   128.70829128   174.29367547
 C     59  56  55     1.387350668180   116.79592576   181.44171713
 C     60  59  56     1.386810433549   122.48156380     0.18652038
 C     57  56  55     1.386551245248   119.94134362   178.44606402
 O     55  54  53     1.209260985933   127.02499743    12.08378327
 F     60  59  56     1.343264895730   118.95186499   179.93790959
 C     58  54  53     1.372529001916   127.06998522   331.67306993
 C     65  58  54     1.409197961572   124.07807348   183.01506215
 C     65  58  54     1.408538927435   124.26270804   359.39324870
 N     66  65  58     1.148290724904   176.22571298   204.04242456
 N     67  65  58     1.148156688654   176.35238233   199.77233955
 O     45  44  43     1.209645933734   127.23818199   346.44661374
 F     50  49  46     1.344020199476   118.89313509   180.01150867
 C     48  44  43     1.370447339886   125.94038224    32.10201802
 C     72  48  44     1.408605547803   123.91464604   175.08161088
 C     72  48  44     1.410797161927   123.04137926     0.21565255
 N     74  72  48     1.148084465882   176.34805879   115.86063636
 N     73  72  48     1.147966380605   177.34099050   168.38241501
 H     15  14  13     1.074770217209   122.20773844   179.93050082
 H     24  23  22     1.074638926151   122.86899247   175.73927261
 H     27  26   2     1.097624386983   109.78758495   310.14051341
 H     27  26   2     1.093050135126   105.13861763   193.04223933
 H     28  27  26     1.096213144238   108.05172306   312.43026526
 H     29  28  27     1.087974296985   110.13974242    68.17744271
 H     29  28  27     1.086923249590   110.40186844   308.28832255
 H     29  28  27     1.086722281726   110.56274084   188.17335206
 H     30  28  27     1.087718119781   110.38683261   300.78754910
 H     30  28  27     1.086737993446   110.02924602   181.15432966
 H     30  28  27     1.087861127534   111.04404181    61.06430183
 H     31  25   5     1.096614481119   109.94892852    82.13122049
 H     31  25   5     1.094448859792   110.32685039   321.83195402
 H     32  31  25     1.094900425473   107.97024700   308.30135657
 H     33  32  31     1.087851983038   110.19281924    65.67758089
 H     33  32  31     1.086988539222   110.83174899   305.60523852
 H     33  32  31     1.086786041040   110.36497154   185.36875905
 H     34  32  31     1.087341354497   110.41096044   300.06457795
 H     34  32  31     1.086594059159   110.09323255   180.34452755
 H     34  32  31     1.087193736461   110.93223083    60.26054997
 H     35  21  20     1.087643054453   109.65075377   149.16720289
 H     35  21  20     1.091895518170   107.74652940    30.69427840
 H     36  35  21     1.095888619979   107.66975436   307.18460230
 H     37  12  11     1.086210658390   108.58286049   163.98413254
 H     37  12  11     1.094043041841   107.76143234    45.65685580
 H     38  37  12     1.095906707252   108.72067263    57.02025466
 H     39  36  35     1.087176790913   110.19233504   180.64602077
 H     39  36  35     1.088405859595   110.49455204    61.09473028
 H     39  36  35     1.087959877063   111.24379053   300.44590169
 H     40  36  35     1.087923273260   110.51658750   299.46120678
 H     40  36  35     1.086882025153   110.32135817   179.62411576
 H     40  36  35     1.087189960311   110.44518193    59.76910768
 H     41  38  37     1.087845386716   110.27268874    62.37878585
 H     41  38  37     1.087642032564   110.95087552   302.12882358
 H     41  38  37     1.086928017258   110.39845044   182.01754888
 H     42  38  37     1.087793211093   110.23605501   302.06028036
 H     42  38  37     1.087242440535   110.36496034   182.15157101
 H     42  38  37     1.087809489617   111.02668172    62.24095047
 H     43  14  13     1.085917050515   115.93108164   207.77569679
 H     49  46  45     1.078215718166   121.68452388   358.61869201
 H     51  50  49     1.078610640454   119.14858357   180.58316472
 H     52  47  46     1.077978515973   121.43850486   178.94848090
 H     53  23  22     1.086255878051   115.59159618   341.48245024
 H     59  56  55     1.078157251100   121.65049435     1.53230211
 H     61  60  59     1.078581412783   119.16526337   179.46531122
 H     62  57  56     1.077801023056   121.63196560   180.96556040

---------------------------
INTERNAL COORDINATES (A.U.)
---------------------------
 C      0   0   0     0.000000000000     0.00000000     0.00000000
 C      1   0   0     2.650085896100     0.00000000     0.00000000
 C      2   1   0     2.613838789589   117.42716308     0.00000000
 C      3   2   1     2.683553340030   123.76441448   354.65242207
 C      4   3   2     2.673298220557   118.04698015   353.94484717
 C      5   4   3     2.628631467724   117.76368454    10.15222499
 S      3   2   1     3.301636029210   121.26130659   175.82815539
 C      7   3   2     3.263432857639    89.00077010   180.49172991
 C      8   7   3     2.671264348836   114.35214908   359.97297294
 C      8   7   3     2.621963937269   138.05888161   179.15552867
 C     10   8   7     2.671346815357   106.25209110   181.97232244
 N     11  10   8     2.588678330416   109.78914367   358.95954766
 S     10   8   7     3.245889642379   141.63591074     2.68095764
 C     13  10   8     3.341086424947    90.17486619   179.01326645
 C     14  13  10     2.618910075271   112.42644676     1.77746805
 S      6   5   4     3.349014167793   125.22846591   176.01983993
 C     16   6   5     3.260632838235    90.47696229   183.34283346
 C     17  16   6     2.657649113524   113.26649783     0.58282642
 C     17  16   6     2.627565886965   139.27681016   176.55783084
 C     19  17  16     2.679045163855   106.10748575   185.54833759
 N     20  19  17     2.591284921613   109.96395261   359.30556623
 S     19  17  16     3.242195936439   141.94902098     5.95977068
 C     22  19  17     3.339137843027    90.33273649   177.78306067
 C     23  22  19     2.623762892242   112.36425777     1.95216971
 O      5   4   3     2.562873420849   116.17437012   189.89957962
 O      2   1   3     2.594004835324   123.37849282   181.20396365
 C     26   2   1     2.702592852887   113.72434906    69.64156176
 C     27  26   2     2.896664354196   113.26145924    73.41603423
 C     28  27  26     2.883468398115   110.32646823    71.60309260
 C     28  27  26     2.883649771241   109.70101618   194.01743102
 C     25   5   4     2.681777187216   121.44550399   158.03839965
 C     31  25   5     2.895012436615   108.49203691   202.08559894
 C     32  31  25     2.884290349600   110.47553732    67.52764520
 C     32  31  25     2.882593490979   109.46671570   189.91953896
 C     21  20  19     2.725096879452   123.26229045   161.82094043
 C     35  21  20     2.908129638115   111.96249415   269.27209212
 C     12  11  10     2.720734315526   121.78630913   171.56857690
 C     37  12  11     2.906505218560   112.21249233   284.69914088
 C     36  35  21     2.882841984130   111.54594081    66.61213405
 C     36  35  21     2.882764974682   109.06547214   189.51260252
 C     38  37  12     2.883147463214   109.09086142   175.80217672
 C     38  37  12     2.882962950148   110.47789062   297.67213168
 C     14  13  10     2.666778761726   121.69411484   178.12081801
 C     43  14  13     2.577091197604   128.47559468    22.50087141
 C     44  43  14     2.803239116303   120.32052900   202.29677432
 C     45  44  43     2.801107279851   104.88949743   163.97248541
 C     46  45  44     2.659595541098   109.53479606     5.59135093
 C     44  43  14     2.733314016627   131.58202654    17.22768632
 C     46  45  44     2.608145519376   128.71897258   186.27793109
 C     49  46  45     2.621372762935   116.81848306   178.72103256
 C     50  49  46     2.621222304048   122.57017535   359.81999232
 C     47  46  45     2.619602027086   120.12510274   181.38669430
 C     23  22  19     2.656315481999   117.86516099   179.69129807
 C     53  23  22     2.584665962595   130.13588075   165.95650688
 C     54  53  23     2.807027617399   118.40281582   160.30293293
 C     55  54  53     2.798538562422   105.20177975   194.11230635
 C     56  55  54     2.657855294498   109.35847776   355.11973294
 C     54  53  23     2.726914472029   133.59572240   344.57239471
 C     56  55  54     2.607257709955   128.70829128   174.29367547
 C     59  56  55     2.621712814573   116.79592576   181.44171713
 C     60  59  56     2.620691919072   122.48156380     0.18652038
 C     57  56  55     2.620202124167   119.94134362   178.44606402
 O     55  54  53     2.285172087849   127.02499743    12.08378327
 F     60  59  56     2.538402778240   118.95186499   179.93790959
 C     58  54  53     2.593703924485   127.06998522   331.67306993
 C     65  58  54     2.662998215852   124.07807348   183.01506215
 C     65  58  54     2.661752821820   124.26270804   359.39324870
 N     66  65  58     2.169954992190   176.22571298   204.04242456
 N     67  65  58     2.169701700385   176.35238233   199.77233955
 O     45  44  43     2.285899533769   127.23818199   346.44661374
 F     50  49  46     2.539830095468   118.89313509   180.01150867
 C     48  44  43     2.589770153345   125.94038224    32.10201802
 C     72  48  44     2.661878716069   123.91464604   175.08161088
 C     72  48  44     2.666020266555   123.04137926     0.21565255
 N     74  72  48     2.169565219127   176.34805879   115.86063636
 N     73  72  48     2.169342070293   177.34099050   168.38241501
 H     15  14  13     2.031021367421   122.20773844   179.93050082
 H     24  23  22     2.030773263278   122.86899247   175.73927261
 H     27  26   2     2.074209489311   109.78758495   310.14051341
 H     27  26   2     2.065565406035   105.13861763   193.04223933
 H     28  27  26     2.071542627014   108.05172306   312.43026526
 H     29  28  27     2.055973462047   110.13974242    68.17744271
 H     29  28  27     2.053987270317   110.40186844   308.28832255
 H     29  28  27     2.053607496092   110.56274084   188.17335206
 H     30  28  27     2.055489357290   110.38683261   300.78754910
 H     30  28  27     2.053637186941   110.02924602   181.15432966
 H     30  28  27     2.055759602778   111.04404181    61.06430183
 H     31  25   5     2.072301043807   109.94892852    82.13122049
 H     31  25   5     2.068208612589   110.32685039   321.83195402
 H     32  31  25     2.069061948057   107.97024700   308.30135657
 H     33  32  31     2.055742322185   110.19281924    65.67758089
 H     33  32  31     2.054110649841   110.83174899   305.60523852
 H     33  32  31     2.053727983735   110.36497154   185.36875905
 H     34  32  31     2.054777374087   110.41096044   300.06457795
 H     34  32  31     2.053365190557   110.09323255   180.34452755
 H     34  32  31     2.054498416426   110.93223083    60.26054997
 H     35  21  20     2.055347504378   109.65075377   149.16720289
 H     35  21  20     2.063383496198   107.74652940    30.69427840
 H     36  35  21     2.070929365042   107.66975436   307.18460230
 H     37  12  11     2.052640668103   108.58286049   163.98413254
 H     37  12  11     2.067441727801   107.76143234    45.65685580
 H     38  37  12     2.070963545034   108.72067263    57.02025466
 H     39  36  35     2.054466393981   110.19233504   180.64602077
 H     39  36  35     2.056788997189   110.49455204    61.09473028
 H     39  36  35     2.055946212345   111.24379053   300.44590169
 H     40  36  35     2.055877041180   110.51658750   299.46120678
 H     40  36  35     2.053909367420   110.32135817   179.62411576
 H     40  36  35     2.054491280536   110.44518193    59.76910768
 H     41  38  37     2.055729856944   110.27268874    62.37878585
 H     41  38  37     2.055345573287   110.95087552   302.12882358
 H     41  38  37     2.053996279903   110.39845044   182.01754888
 H     42  38  37     2.055631259305   110.23605501   302.06028036
 H     42  38  37     2.054590453787   110.36496034   182.15157101
 H     42  38  37     2.055662021256   111.02668172    62.24095047
 H     43  14  13     2.052085829630   115.93108164   207.77569679
 H     49  46  45     2.037532420623   121.68452388   358.61869201
 H     51  50  49     2.038278715591   119.14858357   180.58316472
 H     52  47  46     2.037084173440   121.43850486   178.94848090
 H     53  23  22     2.052726120878   115.59159618   341.48245024
 H     59  56  55     2.037421933881   121.65049435     1.53230211
 H     61  60  59     2.038223483297   119.16526337   179.46531122
 H     62  57  56     2.036748760435   121.63196560   180.96556040

---------------------
BASIS SET INFORMATION
---------------------
There are 6 groups of distinct atoms

 Group   1 Type C   : 7s4p1d contracted to 3s2p1d pattern {511/31/1}
 Group   2 Type S   : 10s7p1d contracted to 4s3p1d pattern {5311/511/1}
 Group   3 Type N   : 7s4p1d contracted to 3s2p1d pattern {511/31/1}
 Group   4 Type O   : 7s4p1d contracted to 3s2p1d pattern {511/31/1}
 Group   5 Type F   : 7s4p1d contracted to 3s2p1d pattern {511/31/1}
 Group   6 Type H   : 4s1p contracted to 2s1p pattern {31/1}

Atom   0C    basis set group =>   1
Atom   1C    basis set group =>   1
Atom   2C    basis set group =>   1
Atom   3C    basis set group =>   1
Atom   4C    basis set group =>   1
Atom   5C    basis set group =>   1
Atom   6S    basis set group =>   2
Atom   7C    basis set group =>   1
Atom   8C    basis set group =>   1
Atom   9C    basis set group =>   1
Atom  10C    basis set group =>   1
Atom  11N    basis set group =>   3
Atom  12S    basis set group =>   2
Atom  13C    basis set group =>   1
Atom  14C    basis set group =>   1
Atom  15S    basis set group =>   2
Atom  16C    basis set group =>   1
Atom  17C    basis set group =>   1
Atom  18C    basis set group =>   1
Atom  19C    basis set group =>   1
Atom  20N    basis set group =>   3
Atom  21S    basis set group =>   2
Atom  22C    basis set group =>   1
Atom  23C    basis set group =>   1
Atom  24O    basis set group =>   4
Atom  25O    basis set group =>   4
Atom  26C    basis set group =>   1
Atom  27C    basis set group =>   1
Atom  28C    basis set group =>   1
Atom  29C    basis set group =>   1
Atom  30C    basis set group =>   1
Atom  31C    basis set group =>   1
Atom  32C    basis set group =>   1
Atom  33C    basis set group =>   1
Atom  34C    basis set group =>   1
Atom  35C    basis set group =>   1
Atom  36C    basis set group =>   1
Atom  37C    basis set group =>   1
Atom  38C    basis set group =>   1
Atom  39C    basis set group =>   1
Atom  40C    basis set group =>   1
Atom  41C    basis set group =>   1
Atom  42C    basis set group =>   1
Atom  43C    basis set group =>   1
Atom  44C    basis set group =>   1
Atom  45C    basis set group =>   1
Atom  46C    basis set group =>   1
Atom  47C    basis set group =>   1
Atom  48C    basis set group =>   1
Atom  49C    basis set group =>   1
Atom  50C    basis set group =>   1
Atom  51C    basis set group =>   1
Atom  52C    basis set group =>   1
Atom  53C    basis set group =>   1
Atom  54C    basis set group =>   1
Atom  55C    basis set group =>   1
Atom  56C    basis set group =>   1
Atom  57C    basis set group =>   1
Atom  58C    basis set group =>   1
Atom  59C    basis set group =>   1
Atom  60C    basis set group =>   1
Atom  61C    basis set group =>   1
Atom  62O    basis set group =>   4
Atom  63F    basis set group =>   5
Atom  64C    basis set group =>   1
Atom  65C    basis set group =>   1
Atom  66C    basis set group =>   1
Atom  67N    basis set group =>   3
Atom  68N    basis set group =>   3
Atom  69O    basis set group =>   4
Atom  70F    basis set group =>   5
Atom  71C    basis set group =>   1
Atom  72C    basis set group =>   1
Atom  73C    basis set group =>   1
Atom  74N    basis set group =>   3
Atom  75N    basis set group =>   3
Atom  76H    basis set group =>   6
Atom  77H    basis set group =>   6
Atom  78H    basis set group =>   6
Atom  79H    basis set group =>   6
Atom  80H    basis set group =>   6
Atom  81H    basis set group =>   6
Atom  82H    basis set group =>   6
Atom  83H    basis set group =>   6
Atom  84H    basis set group =>   6
Atom  85H    basis set group =>   6
Atom  86H    basis set group =>   6
Atom  87H    basis set group =>   6
Atom  88H    basis set group =>   6
Atom  89H    basis set group =>   6
Atom  90H    basis set group =>   6
Atom  91H    basis set group =>   6
Atom  92H    basis set group =>   6
Atom  93H    basis set group =>   6
Atom  94H    basis set group =>   6
Atom  95H    basis set group =>   6
Atom  96H    basis set group =>   6
Atom  97H    basis set group =>   6
Atom  98H    basis set group =>   6
Atom  99H    basis set group =>   6
Atom 100H    basis set group =>   6
Atom 101H    basis set group =>   6
Atom 102H    basis set group =>   6
Atom 103H    basis set group =>   6
Atom 104H    basis set group =>   6
Atom 105H    basis set group =>   6
Atom 106H    basis set group =>   6
Atom 107H    basis set group =>   6
Atom 108H    basis set group =>   6
Atom 109H    basis set group =>   6
Atom 110H    basis set group =>   6
Atom 111H    basis set group =>   6
Atom 112H    basis set group =>   6
Atom 113H    basis set group =>   6
Atom 114H    basis set group =>   6
Atom 115H    basis set group =>   6
Atom 116H    basis set group =>   6
Atom 117H    basis set group =>   6
Atom 118H    basis set group =>   6
Atom 119H    basis set group =>   6
Atom 120H    basis set group =>   6
Atom 121H    basis set group =>   6
------------------------------------------------------------------------------
                           ORCA GTO INTEGRAL CALCULATION
------------------------------------------------------------------------------

                         BASIS SET STATISTICS AND STARTUP INFO

 # of primitive gaussian shells          ... 1166
 # of primitive gaussian functions       ... 2194
 # of contracted shells                  ...  602
 # of contracted basis functions         ... 1310
 Highest angular momentum                ...    2
 Maximum contraction depth               ...    5
 Integral package used                   ... LIBINT
 Integral threshhold            Thresh   ...  2.500e-11
 Primitive cut-off              TCut     ...  2.500e-12


------------------------------ INTEGRAL EVALUATION ----------------------------


 * One electron integrals 
 Pre-screening matrix                    ... done
 Shell pair data                         ... done (   0.026 sec)

-------------------------------------------------------------------------------
                                 ORCA SCF
-------------------------------------------------------------------------------

------------
SCF SETTINGS
------------
Hamiltonian:
 Ab initio Hamiltonian  Method          .... Hartree-Fock(GTOs)


General Settings:
 Integral files         IntName         .... SNBDT1-F
 Hartree-Fock type      HFTyp           .... RHF
 Total Charge           Charge          ....    0
 Multiplicity           Mult            ....    1
 Number of Electrons    NEL             ....  562
 Basis Dimension        Dim             .... 1310
 Nuclear Repulsion      ENuc            ....  12630.2925491178 Eh

Convergence Acceleration:
 DIIS                   CNVDIIS         .... on
   Start iteration      DIISMaxIt       ....    12
   Startup error        DIISStart       ....  0.200000
   # of expansion vecs  DIISMaxEq       ....     5
   Bias factor          DIISBfac        ....   1.050
   Max. coefficient     DIISMaxC        ....  10.000
 Newton-Raphson         CNVNR           .... off
 SOSCF                  CNVSOSCF        .... on
   Start iteration      SOSCFMaxIt      ....   150
   Startup grad/error   SOSCFStart      ....  0.003300
 Level Shifting         CNVShift        .... on
   Level shift para.    LevelShift      ....    0.2500
   Turn off err/grad.   ShiftErr        ....    0.0010
 Zerner damping         CNVZerner       .... off
 Static damping         CNVDamp         .... on
   Fraction old density DampFac         ....    0.7000
   Max. Damping (<1)    DampMax         ....    0.9800
   Min. Damping (>=0)   DampMin         ....    0.0000
   Turn off err/grad.   DampErr         ....    0.1000
 Fernandez-Rico         CNVRico         .... off

SCF Procedure:
 Maximum # iterations   MaxIter         ....   125
 SCF integral mode      SCFMode         .... Direct
   Integral package                     .... LIBINT
 Reset frequency        DirectResetFreq ....    20
 Integral Threshold     Thresh          ....  2.500e-11 Eh
 Primitive CutOff       TCut            ....  2.500e-12 Eh

Convergence Tolerance:
 Convergence Check Mode ConvCheckMode   .... Total+1el-Energy
 Convergence forced     ConvForced      .... 1
 Energy Change          TolE            ....  1.000e-08 Eh
 1-El. energy change                    ....  1.000e-05 Eh
 Orbital Gradient       TolG            ....  1.000e-05
 Orbital Rotation angle TolX            ....  1.000e-05
 DIIS Error             TolErr          ....  5.000e-07


Diagonalization of the overlap matrix:
Smallest eigenvalue                        ... 1.366e-04
Time for diagonalization                   ...    0.557 sec
Threshold for overlap eigenvalues          ... 1.000e-08
Number of eigenvalues below threshold      ... 0
Time for construction of square roots      ...    0.226 sec
Total time needed                          ...    0.794 sec

-------------------
DFT GRID GENERATION
-------------------

General Integration Accuracy     IntAcc      ...  4.340
Radial Grid Type                 RadialGrid  ... Gauss-Chebyshev
Angular Grid (max. acc.)         AngularGrid ... Lebedev-110
Angular grid pruning method      GridPruning ... 3 (G Style)
Weight generation scheme         WeightScheme... Becke
Basis function cutoff            BFCut       ...    1.0000e-11
Integration weight cutoff        WCut        ...    1.0000e-14
Grids for H and He will be reduced by one unit

# of grid points (after initial pruning)     ... 163664 (   0.3 sec)
# of grid points (after weights+screening)   ... 141559 (   6.3 sec)
nearest neighbour list constructed           ...    0.0 sec
Grid point re-assignment to atoms done       ...    0.0 sec
Grid point division into batches done        ...    0.1 sec
Reduced shell lists constructed in    3.4 sec

Total number of grid points                  ...   141559
Total number of batches                      ...     2273
Average number of points per batch           ...       62
Average number of grid points per atom       ...     1160
Average number of shells per batch           ...   123.51 (20.52%)
Average number of basis functions per batch  ...   247.39 (18.88%)
Average number of large shells per batch     ...    70.74 (57.27%)
Average number of large basis fcns per batch ...   144.71 (58.49%)
Maximum spatial batch extension              ...  23.76, 20.95, 33.62 au
Average spatial batch extension              ...   3.10,  3.16,  3.46 au

Time for grid setup =   10.114 sec

------------------------------
INITIAL GUESS: MODEL POTENTIAL
------------------------------
Loading Hartree-Fock densities                     ... done
Calculating cut-offs                               ... done
Setting up the integral package                    ... done
Initializing the effective Hamiltonian             ... done
Starting the Coulomb interaction                   ... done (  13.3 sec)
Reading the grid                                   ... done
Mapping shells                                     ... done
Starting the XC term evaluation                    ... done (   2.8 sec)
Transforming the Hamiltonian                       ... done (   0.2 sec)
Diagonalizing the Hamiltonian                      ... done (   0.6 sec)
Back transforming the eigenvectors                 ... done (   0.1 sec)
Now organizing SCF variables                       ... done
                      ------------------
                      INITIAL GUESS DONE (  27.5 sec)
                      ------------------
--------------
SCF ITERATIONS
--------------
ITER       Energy         Delta-E        Max-DP      RMS-DP      [F,P]     Damp
               ***  Starting incremental Fock matrix formation  ***
  0  -4708.5167360265   0.000000000000 0.11101207  0.00122433  0.2379634 0.7000
  1  -4709.3558751026  -0.839139076139 0.08717470  0.00094623  0.1444837 0.7000
                               ***Turning on DIIS***
  2  -4709.8654831324  -0.509608029788 0.21101809  0.00219583  0.0810367 0.0000
  3  -4706.9462231259   2.919260006453 0.05855405  0.00049622  0.0473050 0.0000
  4  -4711.2167396638  -4.270516537876 0.01446746  0.00019544  0.0170452 0.0000
  5  -4711.1114193807   0.105320283099 0.00794232  0.00009991  0.0082518 0.0000
  6  -4710.9029652275   0.208454153209 0.00592296  0.00006341  0.0028905 0.0000
  7  -4710.9718782646  -0.068913037052 0.00308830  0.00004069  0.0017771 0.0000
  8  -4710.9420623173   0.029815947259 0.00324435  0.00003093  0.0012379 0.0000
                      *** Initiating the SOSCF procedure ***
                           *** Shutting down DIIS ***
                      *** Re-Reading the Fockian *** 
                      *** Removing any level shift *** 
ITER      Energy       Delta-E        Grad      Rot      Max-DP    RMS-DP
  9  -4710.94968118  -0.0076188641  0.002819  0.002819  0.002918  0.000030
               *** Restarting incremental Fock matrix formation ***
 10  -4710.97106194  -0.0213807595  0.000510  0.002104  0.000890  0.000009
 11  -4710.97107758  -0.0000156426  0.000394  0.004212  0.001351  0.000013
 12  -4710.97109080  -0.0000132164  0.000090  0.000514  0.000266  0.000003
 13  -4710.97109202  -0.0000012197  0.000051  0.000319  0.000176  0.000002
 14  -4710.97109253  -0.0000005139  0.000017  0.000148  0.000090  0.000001
 15  -4710.97109266  -0.0000001300  0.000014  0.000080  0.000042  0.000000
 16  -4710.97109270  -0.0000000395  0.000006  0.000053  0.000025  0.000000
 17  -4710.97109272  -0.0000000199  0.000003  0.000025  0.000008  0.000000
                  ***Gradient check signals convergence***
              ***Rediagonalizing the Fockian in SOSCF/NRSCF***

               *****************************************************
               *                     SUCCESS                       *
               *           SCF CONVERGED AFTER  18 CYCLES          *
               *****************************************************


----------------
TOTAL SCF ENERGY
----------------

Total Energy       :        -4710.97109271 Eh         -128192.04059 eV

Components:
Nuclear Repulsion  :        12630.29254912 Eh          343687.73301 eV
Electronic Energy  :       -17341.26364183 Eh         -471879.77360 eV
One Electron Energy:       -31623.95285439 Eh         -860531.50574 eV
Two Electron Energy:        14282.68921256 Eh          388651.73215 eV

Virial components:
Potential Energy   :        -9409.71253300 Eh         -256051.29542 eV
Kinetic Energy     :         4698.74144029 Eh          127859.25483 eV
Virial Ratio       :            2.00260275


---------------
SCF CONVERGENCE
---------------

  Last Energy change         ...    1.3428e-08  Tolerance :   1.0000e-08
  Last MAX-Density change    ...    5.5452e-06  Tolerance :   1.0000e-07
  Last RMS-Density change    ...    6.9643e-08  Tolerance :   5.0000e-09
  Last Orbital Gradient      ...    1.9828e-06  Tolerance :   1.0000e-05
  Last Orbital Rotation      ...    1.4904e-05  Tolerance :   1.0000e-05

             **** THE GBW FILE WAS UPDATED (SNBDT1-F.gbw) ****
             **** DENSITY FILE WAS UPDATED (SNBDT1-F.scfp) ****
             **** ENERGY FILE WAS UPDATED (SNBDT1-F.en.tmp) ****
             **** THE GBW FILE WAS UPDATED (SNBDT1-F.gbw) ****
             **** DENSITY FILE WAS UPDATED (SNBDT1-F.scfp) ****
----------------
ORBITAL ENERGIES
----------------

  NO   OCC          E(Eh)            E(eV) 
   0   2.0000     -91.975254     -2502.7739 
   1   2.0000     -91.968474     -2502.5894 
   2   2.0000     -91.968185     -2502.5815 
   3   2.0000     -91.961272     -2502.3934 
   4   2.0000     -26.325713      -716.3591 
   5   2.0000     -26.320905      -716.2282 
   6   2.0000     -20.611513      -560.8678 
   7   2.0000     -20.598369      -560.5101 
   8   2.0000     -20.564183      -559.5799 
   9   2.0000     -20.560065      -559.4678 
  10   2.0000     -15.642235      -425.6469 
  11   2.0000     -15.638124      -425.5350 
  12   2.0000     -15.589805      -424.2202 
  13   2.0000     -15.587915      -424.1687 
  14   2.0000     -15.582764      -424.0286 
  15   2.0000     -15.576809      -423.8665 
  16   2.0000     -11.368615      -309.3558 
  17   2.0000     -11.363307      -309.2113 
  18   2.0000     -11.361584      -309.1644 
  19   2.0000     -11.358086      -309.0692 
  20   2.0000     -11.347255      -308.7745 
  21   2.0000     -11.341140      -308.6081 
  22   2.0000     -11.331613      -308.3489 
  23   2.0000     -11.328124      -308.2539 
  24   2.0000     -11.318721      -307.9981 
  25   2.0000     -11.317641      -307.9687 
  26   2.0000     -11.313006      -307.8425 
  27   2.0000     -11.312315      -307.8237 
  28   2.0000     -11.312111      -307.8182 
  29   2.0000     -11.311568      -307.8034 
  30   2.0000     -11.310436      -307.7726 
  31   2.0000     -11.304009      -307.5977 
  32   2.0000     -11.301133      -307.5195 
  33   2.0000     -11.300705      -307.5078 
  34   2.0000     -11.299688      -307.4801 
  35   2.0000     -11.296861      -307.4032 
  36   2.0000     -11.296798      -307.4015 
  37   2.0000     -11.296215      -307.3856 
  38   2.0000     -11.295185      -307.3576 
  39   2.0000     -11.293863      -307.3216 
  40   2.0000     -11.293351      -307.3077 
  41   2.0000     -11.292383      -307.2814 
  42   2.0000     -11.292357      -307.2806 
  43   2.0000     -11.291692      -307.2626 
  44   2.0000     -11.290882      -307.2405 
  45   2.0000     -11.290005      -307.2166 
  46   2.0000     -11.289605      -307.2058 
  47   2.0000     -11.289002      -307.1894 
  48   2.0000     -11.287736      -307.1549 
  49   2.0000     -11.286923      -307.1328 
  50   2.0000     -11.286479      -307.1207 
  51   2.0000     -11.286292      -307.1156 
  52   2.0000     -11.285912      -307.1053 
  53   2.0000     -11.285339      -307.0897 
  54   2.0000     -11.284385      -307.0637 
  55   2.0000     -11.283767      -307.0469 
  56   2.0000     -11.282348      -307.0083 
  57   2.0000     -11.281783      -306.9929 
  58   2.0000     -11.281410      -306.9828 
  59   2.0000     -11.279085      -306.9195 
  60   2.0000     -11.277651      -306.8805 
  61   2.0000     -11.277071      -306.8647 
  62   2.0000     -11.271965      -306.7258 
  63   2.0000     -11.267057      -306.5922 
  64   2.0000     -11.251638      -306.1726 
  65   2.0000     -11.246487      -306.0325 
  66   2.0000     -11.246434      -306.0310 
  67   2.0000     -11.238459      -305.8140 
  68   2.0000     -11.236311      -305.7556 
  69   2.0000     -11.236274      -305.7546 
  70   2.0000     -11.232590      -305.6543 
  71   2.0000     -11.232120      -305.6415 
  72   2.0000     -11.231327      -305.6200 
  73   2.0000     -11.228866      -305.5530 
  74   2.0000     -11.225658      -305.4657 
  75   2.0000     -11.218389      -305.2679 
  76   2.0000      -9.010347      -245.1840 
  77   2.0000      -9.003509      -244.9979 
  78   2.0000      -9.003231      -244.9904 
  79   2.0000      -8.996496      -244.8071 
  80   2.0000      -6.697934      -182.2600 
  81   2.0000      -6.696948      -182.2332 
  82   2.0000      -6.694797      -182.1747 
  83   2.0000      -6.691255      -182.0783 
  84   2.0000      -6.690852      -182.0673 
  85   2.0000      -6.690257      -182.0511 
  86   2.0000      -6.689837      -182.0397 
  87   2.0000      -6.687737      -181.9826 
  88   2.0000      -6.687692      -181.9814 
  89   2.0000      -6.684148      -181.8849 
  90   2.0000      -6.683204      -181.8592 
  91   2.0000      -6.680767      -181.7929 
  92   2.0000      -1.628174       -44.3049 
  93   2.0000      -1.623170       -44.1687 
  94   2.0000      -1.434079       -39.0233 
  95   2.0000      -1.416436       -38.5432 
  96   2.0000      -1.396623       -38.0040 
  97   2.0000      -1.391951       -37.8769 
  98   2.0000      -1.344157       -36.5764 
  99   2.0000      -1.338284       -36.4166 
 100   2.0000      -1.250869       -34.0379 
 101   2.0000      -1.243421       -33.8352 
 102   2.0000      -1.226631       -33.3783 
 103   2.0000      -1.225614       -33.3507 
 104   2.0000      -1.220479       -33.2109 
 105   2.0000      -1.216246       -33.0957 
 106   2.0000      -1.215361       -33.0716 
 107   2.0000      -1.198302       -32.6075 
 108   2.0000      -1.192387       -32.4465 
 109   2.0000      -1.181650       -32.1543 
 110   2.0000      -1.164878       -31.6980 
 111   2.0000      -1.159423       -31.5495 
 112   2.0000      -1.131054       -30.7775 
 113   2.0000      -1.112454       -30.2714 
 114   2.0000      -1.108844       -30.1732 
 115   2.0000      -1.100761       -29.9532 
 116   2.0000      -1.095701       -29.8155 
 117   2.0000      -1.092188       -29.7199 
 118   2.0000      -1.085926       -29.5496 
 119   2.0000      -1.082996       -29.4698 
 120   2.0000      -1.077082       -29.3089 
 121   2.0000      -1.062986       -28.9253 
 122   2.0000      -1.057448       -28.7746 
 123   2.0000      -1.057314       -28.7710 
 124   2.0000      -1.051692       -28.6180 
 125   2.0000      -1.032803       -28.1040 
 126   2.0000      -1.019199       -27.7338 
 127   2.0000      -1.009798       -27.4780 
 128   2.0000      -1.006574       -27.3903 
 129   2.0000      -0.987466       -26.8703 
 130   2.0000      -0.979566       -26.6554 
 131   2.0000      -0.966443       -26.2983 
 132   2.0000      -0.955400       -25.9977 
 133   2.0000      -0.943353       -25.6699 
 134   2.0000      -0.941327       -25.6148 
 135   2.0000      -0.940545       -25.5935 
 136   2.0000      -0.938944       -25.5500 
 137   2.0000      -0.934506       -25.4292 
 138   2.0000      -0.931441       -25.3458 
 139   2.0000      -0.930355       -25.3162 
 140   2.0000      -0.928199       -25.2576 
 141   2.0000      -0.922421       -25.1004 
 142   2.0000      -0.906692       -24.6724 
 143   2.0000      -0.890555       -24.2332 
 144   2.0000      -0.871360       -23.7109 
 145   2.0000      -0.858185       -23.3524 
 146   2.0000      -0.850442       -23.1417 
 147   2.0000      -0.843765       -22.9600 
 148   2.0000      -0.826791       -22.4981 
 149   2.0000      -0.820943       -22.3390 
 150   2.0000      -0.817698       -22.2507 
 151   2.0000      -0.810521       -22.0554 
 152   2.0000      -0.810324       -22.0500 
 153   2.0000      -0.803534       -21.8653 
 154   2.0000      -0.800568       -21.7846 
 155   2.0000      -0.798814       -21.7368 
 156   2.0000      -0.792735       -21.5714 
 157   2.0000      -0.786418       -21.3995 
 158   2.0000      -0.779044       -21.1989 
 159   2.0000      -0.773552       -21.0494 
 160   2.0000      -0.769721       -20.9452 
 161   2.0000      -0.765669       -20.8349 
 162   2.0000      -0.761327       -20.7168 
 163   2.0000      -0.743320       -20.2268 
 164   2.0000      -0.738340       -20.0913 
 165   2.0000      -0.736872       -20.0513 
 166   2.0000      -0.734023       -19.9738 
 167   2.0000      -0.730661       -19.8823 
 168   2.0000      -0.719791       -19.5865 
 169   2.0000      -0.719063       -19.5667 
 170   2.0000      -0.717739       -19.5307 
 171   2.0000      -0.715020       -19.4567 
 172   2.0000      -0.712637       -19.3918 
 173   2.0000      -0.709184       -19.2979 
 174   2.0000      -0.705730       -19.2039 
 175   2.0000      -0.703437       -19.1415 
 176   2.0000      -0.698925       -19.0187 
 177   2.0000      -0.688073       -18.7234 
 178   2.0000      -0.684776       -18.6337 
 179   2.0000      -0.681289       -18.5388 
 180   2.0000      -0.675488       -18.3810 
 181   2.0000      -0.673255       -18.3202 
 182   2.0000      -0.669742       -18.2246 
 183   2.0000      -0.666526       -18.1371 
 184   2.0000      -0.660746       -17.9798 
 185   2.0000      -0.654103       -17.7990 
 186   2.0000      -0.652281       -17.7495 
 187   2.0000      -0.649772       -17.6812 
 188   2.0000      -0.647740       -17.6259 
 189   2.0000      -0.646762       -17.5993 
 190   2.0000      -0.645172       -17.5560 
 191   2.0000      -0.635089       -17.2817 
 192   2.0000      -0.631349       -17.1799 
 193   2.0000      -0.629964       -17.1422 
 194   2.0000      -0.627803       -17.0834 
 195   2.0000      -0.624736       -16.9999 
 196   2.0000      -0.622456       -16.9379 
 197   2.0000      -0.621680       -16.9168 
 198   2.0000      -0.617785       -16.8108 
 199   2.0000      -0.615458       -16.7475 
 200   2.0000      -0.610738       -16.6190 
 201   2.0000      -0.610078       -16.6011 
 202   2.0000      -0.607101       -16.5200 
 203   2.0000      -0.604684       -16.4543 
 204   2.0000      -0.599780       -16.3208 
 205   2.0000      -0.597809       -16.2672 
 206   2.0000      -0.590520       -16.0689 
 207   2.0000      -0.586120       -15.9491 
 208   2.0000      -0.584591       -15.9075 
 209   2.0000      -0.582366       -15.8470 
 210   2.0000      -0.579510       -15.7693 
 211   2.0000      -0.577343       -15.7103 
 212   2.0000      -0.576445       -15.6859 
 213   2.0000      -0.575212       -15.6523 
 214   2.0000      -0.570373       -15.5206 
 215   2.0000      -0.569008       -15.4835 
 216   2.0000      -0.568285       -15.4638 
 217   2.0000      -0.567295       -15.4369 
 218   2.0000      -0.565125       -15.3778 
 219   2.0000      -0.563675       -15.3384 
 220   2.0000      -0.562474       -15.3057 
 221   2.0000      -0.559726       -15.2309 
 222   2.0000      -0.558514       -15.1979 
 223   2.0000      -0.557314       -15.1653 
 224   2.0000      -0.556868       -15.1531 
 225   2.0000      -0.556639       -15.1469 
 226   2.0000      -0.554254       -15.0820 
 227   2.0000      -0.551823       -15.0159 
 228   2.0000      -0.550196       -14.9716 
 229   2.0000      -0.547296       -14.8927 
 230   2.0000      -0.545518       -14.8443 
 231   2.0000      -0.543085       -14.7781 
 232   2.0000      -0.537101       -14.6153 
 233   2.0000      -0.534050       -14.5322 
 234   2.0000      -0.532572       -14.4920 
 235   2.0000      -0.528560       -14.3829 
 236   2.0000      -0.528102       -14.3704 
 237   2.0000      -0.527599       -14.3567 
 238   2.0000      -0.525658       -14.3039 
 239   2.0000      -0.520404       -14.1609 
 240   2.0000      -0.509710       -13.8699 
 241   2.0000      -0.505771       -13.7627 
 242   2.0000      -0.503043       -13.6885 
 243   2.0000      -0.502861       -13.6835 
 244   2.0000      -0.499786       -13.5999 
 245   2.0000      -0.498730       -13.5711 
 246   2.0000      -0.495831       -13.4923 
 247   2.0000      -0.494837       -13.4652 
 248   2.0000      -0.494106       -13.4453 
 249   2.0000      -0.493587       -13.4312 
 250   2.0000      -0.491682       -13.3793 
 251   2.0000      -0.489532       -13.3208 
 252   2.0000      -0.487413       -13.2632 
 253   2.0000      -0.486340       -13.2340 
 254   2.0000      -0.485077       -13.1996 
 255   2.0000      -0.481431       -13.1004 
 256   2.0000      -0.479887       -13.0584 
 257   2.0000      -0.474819       -12.9205 
 258   2.0000      -0.474359       -12.9080 
 259   2.0000      -0.471373       -12.8267 
 260   2.0000      -0.466243       -12.6871 
 261   2.0000      -0.464144       -12.6300 
 262   2.0000      -0.457208       -12.4413 
 263   2.0000      -0.452474       -12.3125 
 264   2.0000      -0.447120       -12.1667 
 265   2.0000      -0.444116       -12.0850 
 266   2.0000      -0.437757       -11.9120 
 267   2.0000      -0.414113       -11.2686 
 268   2.0000      -0.401419       -10.9232 
 269   2.0000      -0.397739       -10.8230 
 270   2.0000      -0.389834       -10.6079 
 271   2.0000      -0.385043       -10.4775 
 272   2.0000      -0.376643       -10.2490 
 273   2.0000      -0.364187        -9.9100 
 274   2.0000      -0.350614        -9.5407 
 275   2.0000      -0.346423        -9.4267 
 276   2.0000      -0.342518        -9.3204 
 277   2.0000      -0.323995        -8.8164 
 278   2.0000      -0.297682        -8.1003 
 279   2.0000      -0.294394        -8.0109 
 280   2.0000      -0.251581        -6.8459 
 281   0.0000      -0.025867        -0.7039 
 282   0.0000      -0.009768        -0.2658 
 283   0.0000       0.018739         0.5099 
 284   0.0000       0.026769         0.7284 
 285   0.0000       0.055172         1.5013 
 286   0.0000       0.082549         2.2463 
 287   0.0000       0.102150         2.7796 
 288   0.0000       0.112341         3.0569 
 289   0.0000       0.134240         3.6529 
 290   0.0000       0.141885         3.8609 
 291   0.0000       0.142952         3.8899 
 292   0.0000       0.144518         3.9325 
 293   0.0000       0.154368         4.2006 
 294   0.0000       0.157108         4.2751 
 295   0.0000       0.158611         4.3160 
 296   0.0000       0.159850         4.3497 
 297   0.0000       0.166069         4.5190 
 298   0.0000       0.168690         4.5903 
 299   0.0000       0.171157         4.6574 
 300   0.0000       0.173608         4.7241 
 301   0.0000       0.175057         4.7635 
 302   0.0000       0.178140         4.8474 
 303   0.0000       0.183617         4.9965 
 304   0.0000       0.189247         5.1497 
 305   0.0000       0.190224         5.1763 
 306   0.0000       0.193256         5.2588 
 307   0.0000       0.194847         5.3021 
 308   0.0000       0.197335         5.3698 
 309   0.0000       0.200803         5.4641 
 310   0.0000       0.204656         5.5690 
 311   0.0000       0.206294         5.6135 
 312   0.0000       0.206562         5.6208 
 313   0.0000       0.210005         5.7145 
 314   0.0000       0.212790         5.7903 
 315   0.0000       0.214795         5.8449 
 316   0.0000       0.216664         5.8957 
 317   0.0000       0.217958         5.9309 
 318   0.0000       0.220045         5.9877 
 319   0.0000       0.221911         6.0385 
 320   0.0000       0.222232         6.0472 
 321   0.0000       0.224228         6.1015 
 322   0.0000       0.224287         6.1032 
 323   0.0000       0.228055         6.2057 
 324   0.0000       0.230969         6.2850 
 325   0.0000       0.235309         6.4031 
 326   0.0000       0.237336         6.4583 
 327   0.0000       0.238596         6.4925 
 328   0.0000       0.240312         6.5392 
 329   0.0000       0.240663         6.5488 
 330   0.0000       0.245863         6.6903 
 331   0.0000       0.246616         6.7108 
 332   0.0000       0.248702         6.7675 
 333   0.0000       0.250931         6.8282 
 334   0.0000       0.251819         6.8524 
 335   0.0000       0.254013         6.9121 
 336   0.0000       0.256428         6.9778 
 337   0.0000       0.256962         6.9923 
 338   0.0000       0.259017         7.0482 
 339   0.0000       0.261711         7.1215 
 340   0.0000       0.264101         7.1865 
 341   0.0000       0.265588         7.2270 
 342   0.0000       0.266917         7.2632 
 343   0.0000       0.271389         7.3849 
 344   0.0000       0.273699         7.4477 
 345   0.0000       0.275366         7.4931 
 346   0.0000       0.282533         7.6881 
 347   0.0000       0.283784         7.7222 
 348   0.0000       0.287548         7.8246 
 349   0.0000       0.288327         7.8458 
 350   0.0000       0.288947         7.8627 
 351   0.0000       0.290183         7.8963 
 352   0.0000       0.292617         7.9625 
 353   0.0000       0.295037         8.0284 
 354   0.0000       0.299197         8.1416 
 355   0.0000       0.301738         8.2107 
 356   0.0000       0.303613         8.2617 
 357   0.0000       0.305651         8.3172 
 358   0.0000       0.308612         8.3978 
 359   0.0000       0.311671         8.4810 
 360   0.0000       0.312888         8.5141 
 361   0.0000       0.319176         8.6852 
 362   0.0000       0.325699         8.8627 
 363   0.0000       0.331685         9.0256 
 364   0.0000       0.334395         9.0993 
 365   0.0000       0.335586         9.1318 
 366   0.0000       0.339877         9.2485 
 367   0.0000       0.340408         9.2630 
 368   0.0000       0.342582         9.3221 
 369   0.0000       0.343556         9.3486 
 370   0.0000       0.346656         9.4330 
 371   0.0000       0.349901         9.5213 
 372   0.0000       0.351241         9.5578 
 373   0.0000       0.352746         9.5987 
 374   0.0000       0.355176         9.6648 
 375   0.0000       0.357423         9.7260 
 376   0.0000       0.359596         9.7851 
 377   0.0000       0.362048         9.8518 
 378   0.0000       0.365632         9.9494 
 379   0.0000       0.367258         9.9936 
 380   0.0000       0.372062        10.1243 
 381   0.0000       0.373365        10.1598 
 382   0.0000       0.377191        10.2639 
 383   0.0000       0.379761        10.3338 
 384   0.0000       0.381435        10.3794 
 385   0.0000       0.383019        10.4225 
 386   0.0000       0.387853        10.5540 
 387   0.0000       0.389632        10.6024 
 388   0.0000       0.391361        10.6495 
 389   0.0000       0.395542        10.7633 
 390   0.0000       0.403256        10.9731 
 391   0.0000       0.406004        11.0479 
 392   0.0000       0.407663        11.0931 
 393   0.0000       0.410704        11.1758 
 394   0.0000       0.414015        11.2659 
 395   0.0000       0.416124        11.3233 
 396   0.0000       0.421578        11.4717 
 397   0.0000       0.424309        11.5460 
 398   0.0000       0.426318        11.6007 
 399   0.0000       0.428987        11.6733 
 400   0.0000       0.432497        11.7689 
 401   0.0000       0.434127        11.8132 
 402   0.0000       0.436761        11.8849 
 403   0.0000       0.439725        11.9655 
 404   0.0000       0.444132        12.0855 
 405   0.0000       0.445578        12.1248 
 406   0.0000       0.446972        12.1627 
 407   0.0000       0.452848        12.3226 
 408   0.0000       0.455853        12.4044 
 409   0.0000       0.459255        12.4970 
 410   0.0000       0.462652        12.5894 
 411   0.0000       0.465782        12.6746 
 412   0.0000       0.466783        12.7018 
 413   0.0000       0.469069        12.7640 
 414   0.0000       0.471193        12.8218 
 415   0.0000       0.475365        12.9353 
 416   0.0000       0.482746        13.1362 
 417   0.0000       0.484494        13.1837 
 418   0.0000       0.486120        13.2280 
 419   0.0000       0.489851        13.3295 
 420   0.0000       0.493763        13.4360 
 421   0.0000       0.496497        13.5104 
 422   0.0000       0.497713        13.5435 
 423   0.0000       0.500893        13.6300 
 424   0.0000       0.502272        13.6675 
 425   0.0000       0.508042        13.8245 
 426   0.0000       0.512271        13.9396 
 427   0.0000       0.513388        13.9700 
 428   0.0000       0.517925        14.0935 
 429   0.0000       0.522347        14.2138 
 430   0.0000       0.527287        14.3482 
 431   0.0000       0.537438        14.6244 
 432   0.0000       0.540049        14.6955 
 433   0.0000       0.545149        14.8343 
 434   0.0000       0.548673        14.9301 
 435   0.0000       0.554482        15.0882 
 436   0.0000       0.556084        15.1318 
 437   0.0000       0.556524        15.1438 
 438   0.0000       0.562351        15.3024 
 439   0.0000       0.562498        15.3064 
 440   0.0000       0.564832        15.3699 
 441   0.0000       0.568074        15.4581 
 442   0.0000       0.570642        15.5280 
 443   0.0000       0.574217        15.6252 
 444   0.0000       0.577386        15.7115 
 445   0.0000       0.579488        15.7687 
 446   0.0000       0.580701        15.8017 
 447   0.0000       0.589216        16.0334 
 448   0.0000       0.589898        16.0519 
 449   0.0000       0.590792        16.0763 
 450   0.0000       0.593450        16.1486 
 451   0.0000       0.596589        16.2340 
 452   0.0000       0.601445        16.3661 
 453   0.0000       0.602496        16.3948 
[...]
   Maximum residual norm  :     0.000002366187

                       ****Iteration    9****
   Time for densities:     1.716
   Using LibInt in JK Direct
   Time for J+K (Direct):  2543.648
   Time for Sigma-Completion:    25.367
   Size of expansion space: 9
   Lowest Energy          :     0.097303458770
   Maximum Energy change  :     0.000006490851 (vector 2)
   Maximum residual norm  :     0.000000760658

                       ****Iteration   10****
   Time for densities:     1.742
   Using LibInt in JK Direct
   Time for J+K (Direct):  2511.215
   Time for Sigma-Completion:    25.236
   Size of expansion space: 12
   Lowest Energy          :     0.097303450356
   Maximum Energy change  :     0.000003478240 (vector 2)
   Maximum residual norm  :     0.000000601710

                       ****Iteration   11****
   Time for densities:     1.736
   Using LibInt in JK Direct
   Time for J+K (Direct):  2593.105
   Time for Sigma-Completion:    25.823
   Size of expansion space: 15
   Lowest Energy          :     0.097303448334
   Maximum Energy change  :     0.000001923911 (vector 2)
   Maximum residual norm  :     0.000000410196

                       ****Iteration   12****
   Time for densities:     1.790
   Using LibInt in JK Direct
   Time for J+K (Direct):  2579.069
   Time for Sigma-Completion:    25.239
   Size of expansion space: 18
   Lowest Energy          :     0.097303447974
   Maximum Energy change  :     0.000001233239 (vector 2)
   Maximum residual norm  :     0.000000136634

      *** CONVERGENCE OF RESIDUAL NORM REACHED ***

Storing the converged CI vectors               ... SNBDT1-F.cis1

                 *** DAVIDSON DONE ***

Total time for solving the CIS problem: 41600.366sec

-----------------------------
CIS-EXCITED STATES (SINGLETS)
-----------------------------

the weight of the individual excitations are printed if larger than 1.0e-02

STATE  1:  E=   0.097303 au      2.648 eV    21355.6 cm**-1
   278a -> 281a  :     0.049316 (c=  0.22207211)
   278a -> 282a  :     0.045267 (c=  0.21276144)
   279a -> 282a  :     0.145486 (c= -0.38142624)
   280a -> 281a  :     0.610417 (c= -0.78129206)
   280a -> 282a  :     0.022217 (c=  0.14905520)
   280a -> 285a  :     0.015228 (c= -0.12340023)

STATE  2:  E=   0.114424 au      3.114 eV    25113.1 cm**-1
   273a -> 282a  :     0.025951 (c= -0.16109331)
   276a -> 282a  :     0.013453 (c=  0.11598620)
   277a -> 281a  :     0.010561 (c= -0.10276697)
   278a -> 281a  :     0.112818 (c=  0.33588426)
   278a -> 282a  :     0.019752 (c=  0.14054089)
   279a -> 281a  :     0.241829 (c= -0.49176102)
   279a -> 282a  :     0.038518 (c=  0.19625920)
   280a -> 282a  :     0.401104 (c= -0.63332738)
   280a -> 286a  :     0.011308 (c= -0.10633993)

STATE  3:  E=   0.150619 au      4.099 eV    33057.0 cm**-1
   273a -> 281a  :     0.017472 (c=  0.13218122)
   276a -> 281a  :     0.016096 (c= -0.12686943)
   277a -> 282a  :     0.092330 (c=  0.30385841)
   278a -> 281a  :     0.265581 (c= -0.51534534)
   278a -> 285a  :     0.011606 (c= -0.10773237)
   279a -> 281a  :     0.078513 (c= -0.28020170)
   279a -> 282a  :     0.099936 (c=  0.31612595)
   280a -> 281a  :     0.063213 (c= -0.25142124)
   280a -> 282a  :     0.011817 (c=  0.10870646)
   280a -> 283a  :     0.072759 (c=  0.26973794)
   280a -> 284a  :     0.011429 (c= -0.10690471)
   280a -> 285a  :     0.083048 (c= -0.28818072)
   280a -> 287a  :     0.020936 (c=  0.14469419)


----------------------
CIS-EXCITATION SPECTRA
----------------------

Center of mass = ( -2.4874,  0.0089,  0.0110)
Calculating the Dipole integrals                  ... done
Transforming integrals                            ... done
Calculating the Linear Momentum integrals         ... done
Transforming integrals                            ... done
Calculating angular momentum integrals            ... done
Transforming integrals                            ... done

-----------------------------------------------------------------------------
         ABSORPTION SPECTRUM VIA TRANSITION ELECTRIC DIPOLE MOMENTS
-----------------------------------------------------------------------------
State   Energy    Wavelength  fosc         T2        TX        TY        TZ  
        (cm-1)      (nm)                 (au**2)    (au)      (au)      (au) 
-----------------------------------------------------------------------------
   1   21355.6    468.3   2.342899288  36.11741  -5.87346   1.19394   0.44093
   2   25113.1    398.2   0.270198620   3.54208   0.49725   1.80265  -0.21273
   3   33057.0    302.5   0.451572820   4.49718  -1.69890  -0.72086   1.04465

-----------------------------------------------------------------------------
         ABSORPTION SPECTRUM VIA TRANSITION VELOCITY DIPOLE MOMENTS
-----------------------------------------------------------------------------
State   Energy    Wavelength   fosc        P2         PX        PY        PZ  
        (cm-1)      (nm)                 (au**2)     (au)      (au)      (au) 
-----------------------------------------------------------------------------
   1   21355.6    468.3   1.222914727   0.17849   0.41040  -0.10030   0.00098
   2   25113.1    398.2   0.108208818   0.01857  -0.02817  -0.11763   0.06279
   3   33057.0    302.5   0.051275801   0.01158   0.03107  -0.07355   0.07218

-------------------------------------------------------------------
                             CD SPECTRUM
-------------------------------------------------------------------
State  Energy     Wavelength     R         MX        MY        MZ   
       (cm-1)       (nm)     (1e40*cgs)   (au)      (au)      (au)  
-------------------------------------------------------------------
   1   21355.6    468.3    234.57583  -0.34817  -0.55180  -2.01530
   2   25113.1    398.2    -151.22903   0.04298  -0.15382   0.30491
   3   33057.0    302.5    352.54434   0.00547  -0.19668   0.58901

Total run time:    41835.649 sec

           *** ORCA-CIS/TD-DFT FINISHED WITHOUT ERROR ***

-----------------------
CIS/TD-DFT TOTAL ENERGY
-----------------------

    E(SCF)  =  -4710.971092710 Eh
    DE(CIS) =      0.097303448 Eh (Root  1)
    ----------------------------- ---------
    E(tot)  =  -4710.873789262 Eh


-------------------------   --------------------
FINAL SINGLE POINT ENERGY     -4710.873789261643
-------------------------   --------------------

------------------------------------------------------------------------------
                         ORCA SCF GRADIENT CALCULATION
------------------------------------------------------------------------------


------------
CIS GRADIENT
------------

Reference wavefunction             ... RHF
State of interest                  ... 1
Basis dimension                    ... 1310
DFT-XC contribution needed         ... NO
RI-approximation                   ... OFF
CIS-vectors being read from        ... SNBDT1-F.cis

 => Number of Vectors found: 3
 => Orbital Window: 92...280 -> 281...1309

Reading the CIS file                     ... done
Norm of the CI vector                    ... 1.000000000
Making the CIS (pseudo)densities         ... done
Making operators G(D) and Q(T)           ... done
Transforming the Fock operators          ... done
Making the frozen-core relaxed density   ... done
Constructing the G(H) operator           ... done
Transforming the G(H) operator           ... done
Calculating the CIS Lagrangian           ... done
Solving the Z-vector equations           ... done
Finalizing the relaxed density           ... done
Storing the relaxed density              ... done
Constructing the G(Z) operator           ... done
Transforming the G(Z) operator           ... done
Making the W-matrix                      ... done
Finalizing the W-matrix                  ... done
Transforming the W-matrix                ... done
Nuclear repulsion gradient               ... done
One-Electron gradient                    ... done
Prescreening matrices                    ... done
Two-Electron gradient (4-center)         ... done
                 ---------------------------
                 EXCITED STATE GRADIENT DONE
                 ---------------------------


------------------
CARTESIAN GRADIENT
------------------

   1   C   :    0.002521377   -0.006394389    0.002648434
   2   C   :   -0.015872107   -0.006291489    0.011240484
   3   C   :    0.014772129   -0.013861588    0.004443392
   4   C   :   -0.003297070   -0.000478733   -0.000959674
   5   C   :    0.007393732    0.004749855   -0.005224104
   6   C   :   -0.011376821    0.013949630   -0.006648456
   7   S   :   -0.003254550    0.001216310    0.002053514
   8   C   :   -0.006122917    0.007842620   -0.001609583
   9   C   :   -0.007158770   -0.006796787    0.002783287
  10   C   :    0.007813159    0.004272787   -0.004701301
  11   C   :   -0.000033849   -0.012374474    0.005815029
  12   N   :   -0.001814644   -0.005396741   -0.001477906
  13   S   :    0.005826605    0.001495936    0.006575635
  14   C   :    0.001563288   -0.002900220    0.006323136
  15   C   :    0.003526800    0.002689426   -0.002758878
  16   S   :    0.007580204    0.000319119   -0.001760823
  17   C   :    0.005788073   -0.005429974    0.006410256
  18   C   :    0.008214925    0.002937221   -0.003772278
  19   C   :   -0.011643689   -0.003550360    0.007512024
  20   C   :    0.004280211    0.006400432   -0.014299894
  21   N   :   -0.001638766    0.001544775   -0.008962317
  22   S   :    0.002433490    0.000430307   -0.002498793
  23   C   :    0.002483957    0.009169997   -0.003664809
  24   C   :   -0.007377475    0.004086950    0.009438004
  25   O   :    0.017294148   -0.015644173    0.005879493
  26   O   :    0.001081311    0.020524571   -0.016481593
  27   C   :   -0.002949816   -0.003844613   -0.003581034
  28   C   :    0.002925778   -0.000937745    0.004440249
  29   C   :    0.001446216    0.005032640   -0.000323927
  30   C   :   -0.000352736    0.005240991    0.002445388
  31   C   :   -0.005466857    0.009781897   -0.005793888
  32   C   :    0.002712027   -0.006829411    0.001469540
  33   C   :    0.000487675    0.003646624    0.004509107
  34   C   :   -0.002249978    0.000683392    0.005260718
  35   C   :   -0.008052862   -0.000522644    0.012940132
  36   C   :    0.003005174   -0.006215951    0.000998406
  37   C   :    0.003009233    0.013774638    0.000277664
  38   C   :    0.003413745   -0.000864026   -0.004493903
  39   C   :   -0.004844321    0.003355682   -0.002102924
  40   C   :   -0.001342547    0.003858856   -0.003986981
  41   C   :   -0.003749661   -0.003096741    0.003194633
  42   C   :   -0.004882871    0.000558053    0.001500990
  43   C   :    0.002430440    0.006905178   -0.001824069
  44   C   :   -0.000694009    0.002420660    0.003533828
  45   C   :   -0.003368614    0.038870321    0.004672138
  46   C   :   -0.005324098   -0.014131298    0.002333103
  47   C   :   -0.013630773    0.006384910    0.011828777
  48   C   :    0.006494119   -0.000614043   -0.019316266
  49   C   :   -0.000392377   -0.000969244   -0.000653346
  50   C   :   -0.015303005   -0.002497504    0.010703723
  51   C   :   -0.004701539    0.003642534    0.003633681
  52   C   :    0.001944101    0.000253396   -0.000129459
  53   C   :   -0.002926863    0.007541214   -0.003103317
  54   C   :    0.004598776   -0.001055873    0.003153442
  55   C   :    0.018079736    0.031829227   -0.011654676
  56   C   :    0.000538897   -0.013366013    0.006997198
  57   C   :    0.017809016    0.002867064    0.005183279
  58   C   :   -0.010307972    0.000705900   -0.013691808
  59   C   :   -0.000408912   -0.000947410   -0.000404292
  60   C   :    0.015556289   -0.006278082    0.008154261
  61   C   :    0.006903497    0.002124315    0.001042048
  62   C   :   -0.001789279    0.000782754   -0.000002358
  63   O   :   -0.021321702   -0.030723236    0.012741991
  64   F   :   -0.021215421    0.006580174   -0.009740602
  65   C   :    0.010814076    0.011812383    0.008658451
  66   C   :   -0.013214535   -0.052534224    0.017389419
  67   C   :   -0.036010095    0.013839199   -0.042703736
  68   N   :    0.009674090    0.029419217   -0.008387858
  69   N   :    0.023084932   -0.012280556    0.019935025
  70   O   :    0.007137599   -0.038848983   -0.004271619
  71   F   :    0.020062758    0.001692687   -0.013848199
  72   C   :   -0.005064845    0.012146379    0.016940123
  73   C   :   -0.011160924   -0.055533938   -0.005943382
  74   C   :    0.027435804    0.020115728   -0.047567352
  75   N   :   -0.019753064   -0.013022909    0.023761282
  76   N   :    0.005230738    0.031201187    0.005398631
  77   H   :   -0.000857870    0.003421161   -0.001047103
  78   H   :    0.000114166   -0.001496942    0.000429868
  79   H   :   -0.002776885   -0.001205240    0.005420614
  80   H   :    0.001429343    0.002781470   -0.002523657
  81   H   :    0.001178945   -0.003302627   -0.000116513
  82   H   :   -0.000170615   -0.003528212    0.001199886
  83   H   :   -0.002083291   -0.002898590    0.000959835
  84   H   :   -0.003338352   -0.001114625   -0.000045361
  85   H   :    0.001480176   -0.003746868   -0.000925174
  86   H   :   -0.001218265   -0.001739559   -0.002477079
  87   H   :    0.001658731   -0.000172768   -0.002964221
  88   H   :   -0.005433699   -0.003084476   -0.000132378
  89   H   :   -0.002084947    0.003124675    0.002844812
  90   H   :    0.001656075   -0.000669772   -0.000617514
  91   H   :   -0.000282534   -0.002787285   -0.002260937
  92   H   :   -0.002545465   -0.001586252   -0.000662121
  93   H   :   -0.002739967    0.000328962   -0.002315300
  94   H   :    0.002086403   -0.001424819   -0.003290432
  95   H   :    0.000079325    0.001740416   -0.002804092
  96   H   :    0.002836433    0.002621116   -0.000759848
  97   H   :    0.008698985    0.000263108   -0.000475444
  98   H   :   -0.002810785    0.000197911   -0.001007796
  99   H   :    0.000950752   -0.001633542    0.000795001
 100   H   :   -0.009817784    0.001186932    0.002206663
 101   H   :    0.002951818   -0.001921415   -0.000290535
 102   H   :    0.001332141    0.000675280   -0.000977661
 103   H   :    0.001312501    0.001999677    0.002215303
 104   H   :    0.003030172   -0.001226259    0.001204821
 105   H   :    0.002119574    0.001658623    0.001253256
 106   H   :    0.001199319   -0.003073355    0.002287060
 107   H   :   -0.000666283    0.000237557    0.003240208
 108   H   :   -0.002713927   -0.001883156    0.001451584
 109   H   :    0.002481668    0.001738719   -0.002232221
 110   H   :   -0.001497934    0.002738675   -0.002318649
 111   H   :    0.000582934    0.003153736    0.000550033
 112   H   :    0.003131671   -0.000004207   -0.000004374
 113   H   :    0.001495654    0.001078722    0.002656134
 114   H   :    0.001648871   -0.000359770    0.002434891
 115   H   :   -0.000613321   -0.000955363   -0.001156065
 116   H   :   -0.001227418    0.000990104    0.000812023
 117   H   :   -0.001139543   -0.001009529    0.000858434
 118   H   :   -0.001775654   -0.000371681    0.000820303
 119   H   :    0.000448476   -0.001967925    0.000126980
 120   H   :    0.001740555    0.000533807    0.000162618
 121   H   :    0.000931061   -0.001136887    0.000994819
 122   H   :    0.001921004   -0.000633289    0.000604820

Difference to translation invariance:
           :    0.0000000002    0.0000000002   -0.0000000001

Norm of the cartesian gradient     ...    0.1862411183
RMS gradient                       ...    0.0097349792
MAX gradient                       ...    0.0555339379

-------
TIMINGS
-------

Total CIS gradient time            ...    33357.542 sec

Fock matrix formation       ....    2660.381 sec  (  8.0%)
  Coulomb formation         ....    2660.381 sec  (100.0% of F)
Z-vector equation           ....   28040.680 sec  ( 84.1%)
One electron gradient       ....      19.229 sec  (  0.1%)
Prescreening matrices       ....       1.282 sec  (  0.0%)
Two electron gradient       ....    2631.658 sec  (  7.9%)

                            ***************************************
                            *     ORCA property calculations      *
                            ***************************************

                                    ---------------------
                                    Active property flags
                                    ---------------------
   (+) Dipole Moment


------------------------------------------------------------------------------
                       ORCA ELECTRIC PROPERTIES CALCULATION
------------------------------------------------------------------------------

Dipole Moment Calculation                       ... on
Quadrupole Moment Calculation                   ... off
Polarizability Calculation                      ... off
GBWName                                         ... SNBDT1-F.gbw
Electron density file                           ... SNBDT1-F.scfp
The origin for moment calculation is the CENTER OF MASS  = (-2.487423,  0.008874  0.010958)

-------------
DIPOLE MOMENT
-------------
                                X             Y             Z
Electronic contribution:      2.94590      36.32918     -22.01502
Nuclear contribution   :     -4.19910     -38.51088      20.87040
                        -----------------------------------------
Total Dipole Moment    :     -1.25320      -2.18171      -1.14462
                        -----------------------------------------
Magnitude (a.u.)       :      2.76415
Magnitude (Debye)      :      7.02591



--------------------
Rotational spectrum 
--------------------
 
Rotational constants in cm-1:     0.001745     0.000281     0.000259 
Rotational constants in MHz :    52.327766     8.430094     7.758706 

 Dipole components along the rotational axes: 
x,y,z [a.u.] :    -0.643802     1.498178    -2.231927 
x,y,z [Debye]:    -1.636414     3.808067    -5.673108 

 

                        *** CIS RELAXED DENSITY ***

------------------------------------------------------------------------------
                       ORCA ELECTRIC PROPERTIES CALCULATION
------------------------------------------------------------------------------

Dipole Moment Calculation                       ... on
Quadrupole Moment Calculation                   ... off
Polarizability Calculation                      ... off
GBWName                                         ... SNBDT1-F.gbw
Electron density file                           ... SNBDT1-F.cisp
The origin for moment calculation is the CENTER OF MASS  = (-2.487423,  0.008874  0.010958)

-------------
DIPOLE MOMENT
-------------
                                X             Y             Z
Electronic contribution:      3.11179      35.68402     -21.83476
Nuclear contribution   :     -4.19910     -38.51088      20.87040
                        -----------------------------------------
Total Dipole Moment    :     -1.08731      -2.82686      -0.96436
                        -----------------------------------------
Magnitude (a.u.)       :      3.17858
Magnitude (Debye)      :      8.07931



--------------------
Rotational spectrum 
--------------------
 
Rotational constants in cm-1:     0.001745     0.000281     0.000259 
Rotational constants in MHz :    52.327766     8.430094     7.758706 

 Dipole components along the rotational axes: 
x,y,z [a.u.] :    -0.337400     2.103296    -2.359169 
x,y,z [Debye]:    -0.857603     5.346153    -5.996530 

 

Timings for individual modules:

Sum of individual times         ...    86476.514 sec (=1441.275 min)
GTO integral calculation        ...        3.690 sec (=   0.062 min)   0.0 %
SCF iterations                  ...    11276.051 sec (= 187.934 min)  13.0 %
CIS module                      ...    41837.407 sec (= 697.290 min)  48.4 %
SCF Gradient evaluation         ...    33359.366 sec (= 555.989 min)  38.6 %
                             ****ORCA TERMINATED NORMALLY****
TOTAL RUN TIME: 1 days 0 hours 1 minutes 19 seconds 625 msec
