
                                 *****************
                                 * O   R   C   A *
                                 *****************

           --- An Ab Initio, DFT and Semiempirical electronic structure package ---

                  #######################################################
                  #                        -***-                        #
                  #          Department of theory and spectroscopy      #
                  #               Directorship: Frank Neese             #
                  #        Max Planck Institute fuer Kohlenforschung    #
                  #                Kaiser Wilhelm Platz 1               #
                  #                 D-45470 Muelheim/Ruhr               #
                  #                      Germany                        #
                  #                                                     #
                  #                  All rights reserved                #
                  #                        -***-                        #
                  #######################################################


                         Program Version 4.2.0 -  RELEASE  -


 With contributions from (in alphabetic order):
   Daniel Aravena         : Magnetic Suceptibility
   Michael Atanasov       : Ab Initio Ligand Field Theory (pilot matlab implementation)
   Alexander A. Auer      : GIAO ZORA, VPT2
   Ute Becker             : Parallelization
   Giovanni Bistoni       : ED, misc. LED, open-shell LED, HFLED
   Martin Brehm           : Molecular dynamics
   Dmytro Bykov           : SCF Hessian
   Vijay G. Chilkuri      : MRCI spin determinant printing, contributions to CSF-ICE
   Dipayan Datta          : RHF DLPNO-CCSD density
   Achintya Kumar Dutta   : EOM-CC, STEOM-CC
   Dmitry Ganyushin       : Spin-Orbit,Spin-Spin,Magnetic field MRCI
   Miquel Garcia          : C-PCM Hessian, Gaussian charge scheme
   Yang Guo               : DLPNO-NEVPT2, CIM, IAO-localization
   Andreas Hansen         : Spin unrestricted coupled pair/coupled cluster methods
   Benjamin Helmich-Paris : CASSCF linear response (MC-RPA)
   Lee Huntington         : MR-EOM, pCC
   Robert Izsak           : Overlap fitted RIJCOSX, COSX-SCS-MP3, EOM
   Christian Kollmar      : KDIIS, OOCD, Brueckner-CCSD(T), CCSD density
   Simone Kossmann        : Meta GGA functionals, TD-DFT gradient, OOMP2, MP2 Hessian
   Martin Krupicka        : AUTO-CI
   Lucas Lang             : DCDCAS
   Dagmar Lenk            : GEPOL surface, SMD
   Dimitrios Liakos       : Extrapolation schemes; Compound Job, initial MDCI parallelization
   Dimitrios Manganas     : Further ROCIS development; embedding schemes
   Dimitrios Pantazis     : SARC Basis sets
   Taras Petrenko         : DFT Hessian,TD-DFT gradient, ASA, ECA, R-Raman, ABS, FL, XAS/XES, NRVS
   Peter Pinski           : DLPNO-MP2, DLPNO-MP2 Gradient
   Christoph Reimann      : Effective Core Potentials
   Marius Retegan         : Local ZFS, SOC
   Christoph Riplinger    : Optimizer, TS searches, QM/MM, DLPNO-CCSD(T), (RO)-DLPNO pert. Triples
   Tobias Risthaus        : Range-separated hybrids, TD-DFT gradient, RPA, STAB
   Michael Roemelt        : Original ROCIS implementation
   Masaaki Saitow         : Open-shell DLPNO-CCSD energy and density
   Barbara Sandhoefer     : DKH picture change effects
   Avijit Sen             : IP-ROCIS
   Kantharuban Sivalingam : CASSCF convergence, NEVPT2, FIC-MRCI
   Bernardo de Souza      : ESD, SOC TD-DFT
   Georgi Stoychev        : AutoAux, RI-MP2 NMR
   Willem Van den Heuvel  : Paramagnetic NMR
   Boris Wezisla          : Elementary symmetry handling
   Frank Wennmohs         : Technical directorship


 We gratefully acknowledge several colleagues who have allowed us to
 interface, adapt or use parts of their codes:
   Stefan Grimme, W. Hujo, H. Kruse,             : VdW corrections, initial TS optimization,
                  C. Bannwarth                     DFT functionals, gCP, sTDA/sTD-DF
   Ed Valeev, F. Pavosevic, A. Kumar             : LibInt (2-el integral package), F12 methods
   Garnet Chan, S. Sharma, J. Yang, R. Olivares  : DMRG
   Ulf Ekstrom                                   : XCFun DFT Library
   Mihaly Kallay                                 : mrcc  (arbitrary order and MRCC methods)
   Andreas Klamt, Michael Diedenhofen            : otool_cosmo (COSMO solvation model)
   Jiri Pittner, Ondrej Demel                    : Mk-CCSD
   Frank Weinhold                                : gennbo (NPA and NBO analysis)
   Christopher J. Cramer and Donald G. Truhlar   : smd solvation model
   Lars Goerigk                                  : TD-DFT with DH, B97 family of functionals
   V. Asgeirsson, H. Jonsson                     : NEB implementation
   FAccTs GmbH                                   : IRC, NEB, NEB-TS, Multilevel, MM, QM/MM, CI optimization
   S Lehtola, MJT Oliveira, MAL Marques          : LibXC Library


 Your calculation uses the libint2 library for the computation of 2-el integrals
 For citations please refer to: http://libint.valeyev.net

 Your ORCA version has been built with support for libXC version: 4.2.3
 For citations please refer to: https://tddft.org/programs/libxc/

 This ORCA versions uses:
   CBLAS   interface :  Fast vector & matrix operations
   LAPACKE interface :  Fast linear algebra routines
   SCALAPACK package :  Parallel linear algebra routines


----- Orbital basis set information -----
Your calculation utilizes the basis: def2-SVP
   F. Weigend and R. Ahlrichs, Phys. Chem. Chem. Phys. 7, 3297 (2005).

================================================================================
                                        WARNINGS
                       Please study these warnings very carefully!
================================================================================

INFO   : Checking CIS options ...

WARNING: CIS/ROCIS methods need fully converged wavefunctions
  ===> : Setting SCFConvForced true
         You can overwrite this default with %scf ConvForced false 


INFO   : the flag for use of LIBINT has been found!

================================================================================
                                       INPUT FILE
================================================================================
NAME = Y1.inp
|  1> # ORCA input file
|  2> # Y1.out
|  3> ! Engrad Keepdens
|  4> %maxcore 1000
|  5> %tddft
|  6>   nroots 3 
|  7>   # nroots is the number of states to be computed
|  8>   Iroot 1
|  9>   end
| 10> * xyz 0 1
| 11>    C       -1.47577        -0.07170        -0.91184
| 12>    O       -2.07764         0.83594        -0.38499
| 13>    C       -0.05138        -0.11193        -1.30816
| 14>    C        0.93359         0.83591        -1.11201
| 15>    C        2.21824         0.54875        -1.55318
| 16>    C        2.49911        -0.66164        -2.17060
| 17>    C        1.51078        -1.61492        -2.37944
| 18>    C        0.22550        -1.33529        -1.94693
| 19>    C       -1.02031        -2.09107        -2.06232
| 20>    C       -1.27578        -3.06409        -2.99386
| 21>    C       -2.58244        -3.48707        -3.31669
| 22>    N       -3.63366        -3.80573        -3.65057
| 23>    C       -0.28664        -3.68068        -3.78292
| 24>    N        0.48503        -4.24950        -4.41538
| 25>    C       -2.00162        -1.42405        -1.23858
| 26>    C       -3.14368        -1.85883        -0.63313
| 27>    C       -3.60260        -3.16863        -0.39208
| 28>    S       -2.61105        -4.60041        -0.63823
| 29>    C       -3.84511        -5.61708         0.00215
| 30>    C       -4.96509        -4.86099         0.39448
| 31>    C       -4.81842        -3.49620         0.18920
| 32>    S       -6.26828        -5.83554         1.03012
| 33>    C       -5.31188        -7.24759         0.73879
| 34>    C       -4.04243        -6.98511         0.20933
| 35>    N       -3.38908        -8.16332        -0.04757
| 36>    C       -2.17709        -8.11558        -0.83279
| 37>    C       -0.85805        -7.98044        -0.03848
| 38>    C        0.26041        -7.57880        -1.00958
| 39>    C        0.58724        -8.63292        -2.06178
| 40>    C       -0.95943        -6.96782         1.10954
| 41>    C        0.11318        -7.17177         2.17722
| 42>    C        0.05538        -6.08813         3.25094
| 43>    C        1.11629        -6.30370         4.32315
| 44>    C       -4.24532        -9.20767         0.27904
| 45>    C       -5.46030        -8.63571         0.77108
| 46>    C       -6.59044        -9.42353         1.06372
| 47>    N       -7.81113        -9.12795         1.51569
| 48>    N       -8.44042       -10.27589         1.49743
| 49>    C       -9.81769       -10.38632         1.86436
| 50>    C      -10.73823        -9.90963         0.72663
| 51>    C      -10.42530       -10.66461        -0.57726
| 52>    C       -9.60732        -9.82980        -1.55718
| 53>    C      -12.19717       -10.08230         1.16339
| 54>    C      -13.16804        -9.27759         0.30181
| 55>    C      -14.61784        -9.48767         0.73233
| 56>    C      -15.58400        -8.67285        -0.11862
| 57>    N       -7.76072       -11.31140         1.07345
| 58>    C       -6.55819       -10.81054         0.78277
| 59>    C       -5.36041       -11.39361         0.32821
| 60>    C       -4.16488       -10.62378         0.15635
| 61>    N       -3.14097       -11.50323        -0.17618
| 62>    C       -1.70539       -11.39889        -0.06985
| 63>    C       -1.15380       -11.38535         1.37285
| 64>    C       -1.73927       -12.49619         2.25854
| 65>    C       -2.93336       -12.04889         3.09433
| 66>    C        0.37352       -11.52370         1.26962
| 67>    C        1.11784       -11.11079         2.53656
| 68>    C        2.62325       -11.32046         2.39406
| 69>    C        3.37338       -10.86235         3.63826
| 70>    C       -3.67773       -12.75967        -0.25391
| 71>    C       -5.04493       -12.72522         0.04252
| 72>    S       -5.81183       -14.27680         0.00605
| 73>    C       -4.27216       -14.99956        -0.39644
| 74>    C       -3.23483       -14.05877        -0.50784
| 75>    S       -1.73270       -14.82163        -0.87014
| 76>    C       -2.49196       -16.40985        -0.81418
| 77>    C       -3.85498       -16.31107        -0.59408
| 78>    C       -1.76254       -17.59753        -1.03494
| 79>    C       -0.41681       -17.79914        -0.95510
| 80>    C        0.64581       -17.00820        -0.37553
| 81>    C        0.54887       -16.21987         0.74235
| 82>    C        1.61527       -15.48313         1.28961
| 83>    N        2.43180       -14.82332         1.75585
| 84>    C       -0.62880       -16.11805         1.51248
| 85>    N       -1.54862       -16.05367         2.19675
| 86>    C        1.89519       -17.44155        -0.99652
| 87>    C        3.17761       -16.92314        -0.93124
| 88>    C        4.19581       -17.59644        -1.59351
| 89>    C        3.95013       -18.76511        -2.30013
| 90>    C        2.66682       -19.28938        -2.37554
| 91>    C        1.64840       -18.61947        -1.72647
| 92>    C        0.20712       -18.94611        -1.66707
| 93>    O       -0.35949       -19.90718        -2.13470
| 94>    H        0.69685         1.77103        -0.62826
| 95>    H        3.00729         1.27227        -1.41358
| 96>    H        3.50656        -0.86947        -2.49881
| 97>    H        1.75101        -2.55137        -2.85739
| 98>    H       -3.73711        -1.07746        -0.16721
| 99>    H       -5.56504        -2.76155         0.42886
|100>    H       -2.26449        -7.23549        -1.47996
|101>    H       -2.14906        -8.99200        -1.48177
|102>    H       -0.60010        -8.94194         0.40745
|103>    H        1.16404        -7.38176        -0.43167
|104>    H       -0.01858        -6.64733        -1.50828
|105>    H        0.84724        -9.58093        -1.59410
|106>    H        1.43679        -8.30621        -2.65588
|107>    H       -0.24647        -8.79480        -2.74008
|108>    H       -1.93243        -7.05480         1.59653
|109>    H       -0.87422        -5.95697         0.70855
|110>    H        1.10567        -7.16726         1.72301
|111>    H       -0.03135        -8.14606         2.64992
|112>    H       -0.93467        -6.08830         3.71304
|113>    H        0.20213        -5.11091         2.78506
|114>    H        0.97706        -7.26632         4.81065
|115>    H        1.05977        -5.52525         5.07989
|116>    H        2.11162        -6.28350         3.88430
|117>    H       -9.98028        -9.77638         2.75592
|118>    H      -10.00814       -11.43746         2.08906
|119>    H      -10.54526        -8.84265         0.57519
|120>    H      -11.35623       -10.95712        -1.06444
|121>    H       -9.87843       -11.58138        -0.34572
|122>    H      -10.15762        -8.93861        -1.85175
|123>    H       -9.38455       -10.40710        -2.45168
|124>    H       -8.66459        -9.51381        -1.11689
|125>    H      -12.30251        -9.75470         2.20046
|126>    H      -12.46197       -11.14137         1.12454
|127>    H      -13.06317        -9.56426        -0.74609
|128>    H      -12.92004        -8.21658         0.37908
|129>    H      -14.72819        -9.20185         1.78088
|130>    H      -14.86823       -10.54791         0.65116
|131>    H      -15.36353        -7.61094        -0.03475
|132>    H      -16.60971        -8.83672         0.20289
|133>    H      -15.50316        -8.95666        -1.16569
|134>    H       -1.34712       -10.52399        -0.60554
|135>    H       -1.30003       -12.27832        -0.57932
|136>    H       -1.39878       -10.42075         1.83156
|137>    H       -0.96473       -12.84479         2.94241
|138>    H       -2.01897       -13.35594         1.65085
|139>    H       -2.64661       -11.23785         3.76130
|140>    H       -3.28911       -12.87896         3.69951
|141>    H       -3.75827       -11.70466         2.47648
|142>    H        0.74218       -10.90972         0.44317
|143>    H        0.61624       -12.56252         1.03406
|144>    H        0.76060       -11.69030         3.38899
|145>    H        0.92024       -10.05720         2.74677
|146>    H        2.98495       -10.76273         1.52657
|147>    H        2.82048       -12.37897         2.21792
|148>    H        3.19955        -9.80379         3.82363
|149>    H        4.44246       -11.01917         3.51891
|150>    H        3.04116       -11.42171         4.50976
|151>    H       -4.49740       -17.17029        -0.53427
|152>    H       -2.34174       -18.44640        -1.38528
|153>    H        3.38864       -16.01356        -0.39160
|154>    H        5.19951       -17.20041        -1.55400
|155>    H        4.76540       -19.26969        -2.79639
|156>    H        2.45691       -20.19617        -2.92152
|157> *
|158> 
|159>                          ****END OF INPUT****
================================================================================

                     *******************************
                     * Energy+Gradient Calculation *
                     *******************************

---------------------------------
CARTESIAN COORDINATES (ANGSTROEM)
---------------------------------
  C     -1.475770   -0.071700   -0.911840
  O     -2.077640    0.835940   -0.384990
  C     -0.051380   -0.111930   -1.308160
  C      0.933590    0.835910   -1.112010
  C      2.218240    0.548750   -1.553180
  C      2.499110   -0.661640   -2.170600
  C      1.510780   -1.614920   -2.379440
  C      0.225500   -1.335290   -1.946930
  C     -1.020310   -2.091070   -2.062320
  C     -1.275780   -3.064090   -2.993860
  C     -2.582440   -3.487070   -3.316690
  N     -3.633660   -3.805730   -3.650570
  C     -0.286640   -3.680680   -3.782920
  N      0.485030   -4.249500   -4.415380
  C     -2.001620   -1.424050   -1.238580
  C     -3.143680   -1.858830   -0.633130
  C     -3.602600   -3.168630   -0.392080
  S     -2.611050   -4.600410   -0.638230
  C     -3.845110   -5.617080    0.002150
  C     -4.965090   -4.860990    0.394480
  C     -4.818420   -3.496200    0.189200
  S     -6.268280   -5.835540    1.030120
  C     -5.311880   -7.247590    0.738790
  C     -4.042430   -6.985110    0.209330
  N     -3.389080   -8.163320   -0.047570
  C     -2.177090   -8.115580   -0.832790
  C     -0.858050   -7.980440   -0.038480
  C      0.260410   -7.578800   -1.009580
  C      0.587240   -8.632920   -2.061780
  C     -0.959430   -6.967820    1.109540
  C      0.113180   -7.171770    2.177220
  C      0.055380   -6.088130    3.250940
  C      1.116290   -6.303700    4.323150
  C     -4.245320   -9.207670    0.279040
  C     -5.460300   -8.635710    0.771080
  C     -6.590440   -9.423530    1.063720
  N     -7.811130   -9.127950    1.515690
  N     -8.440420  -10.275890    1.497430
  C     -9.817690  -10.386320    1.864360
  C    -10.738230   -9.909630    0.726630
  C    -10.425300  -10.664610   -0.577260
  C     -9.607320   -9.829800   -1.557180
  C    -12.197170  -10.082300    1.163390
  C    -13.168040   -9.277590    0.301810
  C    -14.617840   -9.487670    0.732330
  C    -15.584000   -8.672850   -0.118620
  N     -7.760720  -11.311400    1.073450
  C     -6.558190  -10.810540    0.782770
  C     -5.360410  -11.393610    0.328210
  C     -4.164880  -10.623780    0.156350
  N     -3.140970  -11.503230   -0.176180
  C     -1.705390  -11.398890   -0.069850
  C     -1.153800  -11.385350    1.372850
  C     -1.739270  -12.496190    2.258540
  C     -2.933360  -12.048890    3.094330
  C      0.373520  -11.523700    1.269620
  C      1.117840  -11.110790    2.536560
  C      2.623250  -11.320460    2.394060
  C      3.373380  -10.862350    3.638260
  C     -3.677730  -12.759670   -0.253910
  C     -5.044930  -12.725220    0.042520
  S     -5.811830  -14.276800    0.006050
  C     -4.272160  -14.999560   -0.396440
  C     -3.234830  -14.058770   -0.507840
  S     -1.732700  -14.821630   -0.870140
  C     -2.491960  -16.409850   -0.814180
  C     -3.854980  -16.311070   -0.594080
  C     -1.762540  -17.597530   -1.034940
  C     -0.416810  -17.799140   -0.955100
  C      0.645810  -17.008200   -0.375530
  C      0.548870  -16.219870    0.742350
  C      1.615270  -15.483130    1.289610
  N      2.431800  -14.823320    1.755850
  C     -0.628800  -16.118050    1.512480
  N     -1.548620  -16.053670    2.196750
  C      1.895190  -17.441550   -0.996520
  C      3.177610  -16.923140   -0.931240
  C      4.195810  -17.596440   -1.593510
  C      3.950130  -18.765110   -2.300130
  C      2.666820  -19.289380   -2.375540
  C      1.648400  -18.619470   -1.726470
  C      0.207120  -18.946110   -1.667070
  O     -0.359490  -19.907180   -2.134700
  H      0.696850    1.771030   -0.628260
  H      3.007290    1.272270   -1.413580
  H      3.506560   -0.869470   -2.498810
  H      1.751010   -2.551370   -2.857390
  H     -3.737110   -1.077460   -0.167210
  H     -5.565040   -2.761550    0.428860
  H     -2.264490   -7.235490   -1.479960
  H     -2.149060   -8.992000   -1.481770
  H     -0.600100   -8.941940    0.407450
  H      1.164040   -7.381760   -0.431670
  H     -0.018580   -6.647330   -1.508280
  H      0.847240   -9.580930   -1.594100
  H      1.436790   -8.306210   -2.655880
  H     -0.246470   -8.794800   -2.740080
  H     -1.932430   -7.054800    1.596530
  H     -0.874220   -5.956970    0.708550
  H      1.105670   -7.167260    1.723010
  H     -0.031350   -8.146060    2.649920
  H     -0.934670   -6.088300    3.713040
  H      0.202130   -5.110910    2.785060
  H      0.977060   -7.266320    4.810650
  H      1.059770   -5.525250    5.079890
  H      2.111620   -6.283500    3.884300
  H     -9.980280   -9.776380    2.755920
  H    -10.008140  -11.437460    2.089060
  H    -10.545260   -8.842650    0.575190
  H    -11.356230  -10.957120   -1.064440
  H     -9.878430  -11.581380   -0.345720
  H    -10.157620   -8.938610   -1.851750
  H     -9.384550  -10.407100   -2.451680
  H     -8.664590   -9.513810   -1.116890
  H    -12.302510   -9.754700    2.200460
  H    -12.461970  -11.141370    1.124540
  H    -13.063170   -9.564260   -0.746090
  H    -12.920040   -8.216580    0.379080
  H    -14.728190   -9.201850    1.780880
  H    -14.868230  -10.547910    0.651160
  H    -15.363530   -7.610940   -0.034750
  H    -16.609710   -8.836720    0.202890
  H    -15.503160   -8.956660   -1.165690
  H     -1.347120  -10.523990   -0.605540
  H     -1.300030  -12.278320   -0.579320
  H     -1.398780  -10.420750    1.831560
  H     -0.964730  -12.844790    2.942410
  H     -2.018970  -13.355940    1.650850
  H     -2.646610  -11.237850    3.761300
  H     -3.289110  -12.878960    3.699510
  H     -3.758270  -11.704660    2.476480
  H      0.742180  -10.909720    0.443170
  H      0.616240  -12.562520    1.034060
  H      0.760600  -11.690300    3.388990
  H      0.920240  -10.057200    2.746770
  H      2.984950  -10.762730    1.526570
  H      2.820480  -12.378970    2.217920
  H      3.199550   -9.803790    3.823630
  H      4.442460  -11.019170    3.518910
  H      3.041160  -11.421710    4.509760
  H     -4.497400  -17.170290   -0.534270
  H     -2.341740  -18.446400   -1.385280
  H      3.388640  -16.013560   -0.391600
  H      5.199510  -17.200410   -1.554000
  H      4.765400  -19.269690   -2.796390
  H      2.456910  -20.196170   -2.921520

----------------------------
CARTESIAN COORDINATES (A.U.)
----------------------------
  NO LB      ZA    FRAG     MASS         X           Y           Z
   0 C     6.0000    0    12.011   -2.788801   -0.135493   -1.723128
   1 O     8.0000    0    15.999   -3.926171    1.579698   -0.727526
   2 C     6.0000    0    12.011   -0.097094   -0.211517   -2.472064
   3 C     6.0000    0    12.011    1.764229    1.579641   -2.101394
   4 C     6.0000    0    12.011    4.191866    1.036987   -2.935085
   5 C     6.0000    0    12.011    4.722633   -1.250318   -4.101840
   6 C     6.0000    0    12.011    2.854960   -3.051757   -4.496490
   7 C     6.0000    0    12.011    0.426133   -2.523332   -3.679165
   8 C     6.0000    0    12.011   -1.928106   -3.951550   -3.897220
   9 C     6.0000    0    12.011   -2.410875   -5.790291   -5.657575
  10 C     6.0000    0    12.011   -4.880104   -6.589607   -6.267636
  11 N     7.0000    0    14.007   -6.866622   -7.191787   -6.898578
  12 C     6.0000    0    12.011   -0.541671   -6.955477   -7.148683
  13 N     7.0000    0    14.007    0.916574   -8.030391   -8.343859
  14 C     6.0000    0    12.011   -3.782514   -2.691065   -2.340577
  15 C     6.0000    0    12.011   -5.940694   -3.512680   -1.196442
  16 C     6.0000    0    12.011   -6.807927   -5.987843   -0.740924
  17 S    16.0000    0    32.060   -4.934169   -8.693515   -1.206080
  18 C     6.0000    0    12.011   -7.266205  -10.614743    0.004063
  19 C     6.0000    0    12.011   -9.382660   -9.185940    0.745459
  20 C     6.0000    0    12.011   -9.105494   -6.606861    0.357536
  21 S    16.0000    0    32.060  -11.845333  -11.027572    1.946645
  22 C     6.0000    0    12.011  -10.037998  -13.695960    1.396111
  23 C     6.0000    0    12.011   -7.639086  -13.199945    0.395576
  24 N     7.0000    0    14.007   -6.404433  -15.426439   -0.089894
  25 C     6.0000    0    12.011   -4.114104  -15.336224   -1.573745
  26 C     6.0000    0    12.011   -1.621480  -15.080846   -0.072717
  27 C     6.0000    0    12.011    0.492104  -14.321856   -1.907830
  28 C     6.0000    0    12.011    1.109723  -16.313855   -3.896200
  29 C     6.0000    0    12.011   -1.813060  -13.167272    2.096727
  30 C     6.0000    0    12.011    0.213879  -13.552681    4.114350
  31 C     6.0000    0    12.011    0.104653  -11.504898    6.143386
  32 C     6.0000    0    12.011    2.109482  -11.912267    8.169570
  33 C     6.0000    0    12.011   -8.022492  -17.399975    0.527309
  34 C     6.0000    0    12.011  -10.318472  -16.319127    1.457130
  35 C     6.0000    0    12.011  -12.454127  -17.807891    2.010139
  36 N     7.0000    0    14.007  -14.760896  -17.249326    2.864239
  37 N     7.0000    0    14.007  -15.950082  -19.418618    2.829733
  38 C     6.0000    0    12.011  -18.552745  -19.627300    3.523130
  39 C     6.0000    0    12.011  -20.292314  -18.726487    1.373132
  40 C     6.0000    0    12.011  -19.700962  -20.153192   -1.090863
  41 C     6.0000    0    12.011  -18.155204  -18.575630   -2.942644
  42 C     6.0000    0    12.011  -23.049311  -19.052786    2.198488
  43 C     6.0000    0    12.011  -24.883989  -17.532104    0.570338
  44 C     6.0000    0    12.011  -27.623714  -17.929098    1.383903
  45 C     6.0000    0    12.011  -29.449492  -16.389311   -0.224159
  46 N     7.0000    0    14.007  -14.665635  -21.375448    2.028527
  47 C     6.0000    0    12.011  -12.393183  -20.428960    1.479221
  48 C     6.0000    0    12.011  -10.129707  -21.530803    0.620227
  49 C     6.0000    0    12.011   -7.870483  -20.076035    0.295459
  50 N     7.0000    0    14.007   -5.935573  -21.737954   -0.332932
  51 C     6.0000    0    12.011   -3.222720  -21.540780   -0.131997
  52 C     6.0000    0    12.011   -2.180366  -21.515193    2.594311
  53 C     6.0000    0    12.011   -3.286744  -23.614377    4.268022
  54 C     6.0000    0    12.011   -5.543247  -22.769102    5.847436
  55 C     6.0000    0    12.011    0.705851  -21.776637    2.399234
  56 C     6.0000    0    12.011    2.112411  -20.996350    4.793404
  57 C     6.0000    0    12.011    4.957224  -21.392569    4.524118
  58 C     6.0000    0    12.011    6.374764  -20.526867    6.875315
  59 C     6.0000    0    12.011   -6.949902  -24.112282   -0.479820
  60 C     6.0000    0    12.011   -9.533536  -24.047181    0.080351
  61 S    16.0000    0    32.060  -10.982767  -26.979242    0.011433
  62 C     6.0000    0    12.011   -8.073212  -28.345061   -0.749163
  63 C     6.0000    0    12.011   -6.112943  -26.567225   -0.959679
  64 S    16.0000    0    32.060   -3.274328  -28.008822   -1.644326
  65 C     6.0000    0    12.011   -4.709122  -31.010122   -1.538577
  66 C     6.0000    0    12.011   -7.284856  -30.823455   -1.122649
  67 C     6.0000    0    12.011   -3.330718  -33.254512   -1.955753
  68 C     6.0000    0    12.011   -0.787657  -33.635500   -1.804877
  69 C     6.0000    0    12.011    1.220404  -32.140840   -0.709649
  70 C     6.0000    0    12.011    1.037214  -30.651112    1.402838
  71 C     6.0000    0    12.011    3.052418  -29.258875    2.437010
  72 N     7.0000    0    14.007    4.595436  -28.012015    3.318076
  73 C     6.0000    0    12.011   -1.188260  -30.458700    2.858173
  74 N     7.0000    0    14.007   -2.926468  -30.337040    4.151256
  75 C     6.0000    0    12.011    3.581390  -32.959753   -1.883150
  76 C     6.0000    0    12.011    6.004813  -31.980100   -1.759789
  77 C     6.0000    0    12.011    7.928932  -33.252453   -3.011297
  78 C     6.0000    0    12.011    7.464664  -35.460919   -4.346616
  79 C     6.0000    0    12.011    5.039559  -36.451645   -4.489120
  80 C     6.0000    0    12.011    3.115025  -35.185699   -3.262555
  81 C     6.0000    0    12.011    0.391400  -35.802959   -3.150306
  82 O     8.0000    0    15.999   -0.679338  -37.619118   -4.033998
  83 H     1.0000    0     1.008    1.316856    3.346762   -1.187239
  84 H     1.0000    0     1.008    5.682955    2.404242   -2.671279
  85 H     1.0000    0     1.008    6.626438   -1.643060   -4.722067
  86 H     1.0000    0     1.008    3.308929   -4.821391   -5.399685
  87 H     1.0000    0     1.008   -7.062114   -2.036104   -0.315981
  88 H     1.0000    0     1.008  -10.516402   -5.218573    0.810428
  89 H     1.0000    0     1.008   -4.279266  -13.673095   -2.796719
  90 H     1.0000    0     1.008   -4.061135  -16.992417   -2.800139
  91 H     1.0000    0     1.008   -1.134025  -16.897818    0.769969
  92 H     1.0000    0     1.008    2.199717  -13.949505   -0.815738
  93 H     1.0000    0     1.008   -0.035111  -12.561633   -2.850236
  94 H     1.0000    0     1.008    1.601052  -18.105334   -3.012412
  95 H     1.0000    0     1.008    2.715140  -15.696462   -5.018886
  96 H     1.0000    0     1.008   -0.465761  -16.619763   -5.178001
  97 H     1.0000    0     1.008   -3.651763  -13.331640    3.017004
  98 H     1.0000    0     1.008   -1.652036  -11.257042    1.338965
  99 H     1.0000    0     1.008    2.089413  -13.544159    3.256017
 100 H     1.0000    0     1.008   -0.059243  -15.393822    5.007623
 101 H     1.0000    0     1.008   -1.766270  -11.505220    7.016629
 102 H     1.0000    0     1.008    0.381970   -9.658220    5.263001
 103 H     1.0000    0     1.008    1.846376  -13.731355    9.090811
 104 H     1.0000    0     1.008    2.002675  -10.441209    9.599601
 105 H     1.0000    0     1.008    3.990383  -11.874094    7.340263
 106 H     1.0000    0     1.008  -18.859996  -18.474681    5.207934
 107 H     1.0000    0     1.008  -18.912644  -21.613667    3.947751
 108 H     1.0000    0     1.008  -19.927653  -16.710187    1.086952
 109 H     1.0000    0     1.008  -21.460165  -20.705956   -2.011500
 110 H     1.0000    0     1.008  -18.667527  -21.885636   -0.653316
 111 H     1.0000    0     1.008  -19.195120  -16.891525   -3.499300
 112 H     1.0000    0     1.008  -17.734229  -19.666569   -4.633004
 113 H     1.0000    0     1.008  -16.373702  -17.978495   -2.110616
 114 H     1.0000    0     1.008  -23.248375  -18.433712    4.158267
 115 H     1.0000    0     1.008  -23.549710  -21.054138    2.125073
 116 H     1.0000    0     1.008  -24.685814  -18.073832   -1.409906
 117 H     1.0000    0     1.008  -24.415337  -15.527086    0.716357
 118 H     1.0000    0     1.008  -27.832246  -17.388976    3.365375
 119 H     1.0000    0     1.008  -28.096883  -19.932661    1.230514
 120 H     1.0000    0     1.008  -29.032864  -14.382592   -0.065668
 121 H     1.0000    0     1.008  -31.387803  -16.698981    0.383407
 122 H     1.0000    0     1.008  -29.296727  -16.925634   -2.202835
 123 H     1.0000    0     1.008   -2.545688  -19.887459   -1.144305
 124 H     1.0000    0     1.008   -2.456701  -23.202662   -1.094756
 125 H     1.0000    0     1.008   -2.643311  -19.692364    3.461147
 126 H     1.0000    0     1.008   -1.823075  -24.273135    5.560349
 127 H     1.0000    0     1.008   -3.815300  -25.239069    3.119654
 128 H     1.0000    0     1.008   -5.001368  -21.236459    7.107827
 129 H     1.0000    0     1.008   -6.215517  -24.337707    6.991061
 130 H     1.0000    0     1.008   -7.102101  -22.118602    4.679869
 131 H     1.0000    0     1.008    1.402517  -20.616383    0.837470
 132 H     1.0000    0     1.008    1.164525  -23.739722    1.954090
 133 H     1.0000    0     1.008    1.437326  -22.091465    6.404263
 134 H     1.0000    0     1.008    1.739002  -19.005354    5.190643
 135 H     1.0000    0     1.008    5.640738  -20.338612    2.884799
 136 H     1.0000    0     1.008    5.329935  -23.392863    4.191261
 137 H     1.0000    0     1.008    6.046273  -18.526478    7.225614
 138 H     1.0000    0     1.008    8.395033  -20.823214    6.649776
 139 H     1.0000    0     1.008    5.746960  -21.583904    8.522211
 140 H     1.0000    0     1.008   -8.498854  -32.447146   -1.009624
 141 H     1.0000    0     1.008   -4.425247  -34.858644   -2.617800
 142 H     1.0000    0     1.008    6.403602  -30.261243   -0.740017
 143 H     1.0000    0     1.008    9.825650  -32.504064   -2.936634
 144 H     1.0000    0     1.008    9.005301  -36.414437   -5.284411
 145 H     1.0000    0     1.008    4.642887  -38.165230   -5.520873

--------------------------------
INTERNAL COORDINATES (ANGSTROEM)
--------------------------------
 C      0   0   0     0.000000000000     0.00000000     0.00000000
 O      1   0   0     1.209805269041     0.00000000     0.00000000
 C      1   2   0     1.479045255359   128.03963517     0.00000000
 C      3   1   2     1.380956693383   129.06234195     3.68297751
 C      4   3   1     1.388314610238   118.22201135   178.47399234
 C      5   4   3     1.387493915446   120.60784816   359.82509182
 C      6   5   4     1.388939556964   121.43933786     0.65398518
 C      7   6   5     1.384630822783   118.35544520   359.58328870
 C      8   7   6     1.461697922486   131.45782760   177.27212240
 C      9   8   7     1.371057844476   125.40789642   337.95925618
 C     10   9   8     1.410847846119   122.73849669   198.77309115
 N     11  10   9     1.148078193504   176.17757840   117.13845628
 C     10   9   8     1.407549946290   124.11292519    14.56150908
 N     13  10   9     1.148493113998   176.23217877   138.63829436
 C      9   8   7     1.444448885942   107.17192121   170.66087660
 C     15   9   8     1.363783118571   132.44424440   203.96107330
 C     16  15   9     1.408647829977   130.18244432    14.46540610
 S     17  16  15     1.758907386249   123.31841238     9.79433570
 C     18  17  16     1.722384543852    91.40696937   175.16429022
 C     19  18  17     1.407107002825   110.90217467   359.54003613
 C     17  16  15     1.386869429939   125.23620608   182.83981070
 S     20  19  18     1.747023207688   113.29316596   179.03715616
 C     22  20  19     1.730161648922    88.94906997   359.07573397
 C     19  18  17     1.397628282377   137.22593019   177.83733161
 N     24  19  18     1.371511077826   138.23175740   356.16961799
 C     25  24  19     1.444911525354   118.22852361   354.40288372
 C     26  25  24     1.545657697325   116.06782657    91.97764581
 C     27  26  25     1.534699537760   108.64095570   194.68299887
 C     28  27  26     1.524831683597   114.32558034   294.92021804
 C     27  26  25     1.534153541599   112.69777723   317.38340988
 C     30  27  26     1.527098031234   112.86847049   159.66565956
 C     31  30  27     1.526594618096   111.73726059   175.66039615
 C     32  31  30     1.523691155418   111.60140738   179.33864348
 C     25  24  19     1.389420005686   107.94527759   187.84940125
 C     23  22  20     1.396405483697   138.47339679   188.27562805
 C     35  23  22     1.408373154246   130.25256668     1.63039672
 N     36  35  23     1.334814029519   132.86893024   352.59215361
 N     37  36  35     1.309238547897   103.92657583   175.87712365
 C     38  37  36     1.429582128701   121.81746732   182.52703951
 C     39  38  37     1.539174064425   111.25626162    77.98077478
 C     40  39  38     1.538846684176   110.65591329    54.74369017
 C     41  40  39     1.525202354739   112.63840448   257.43380181
 C     40  39  38     1.532670920354   108.89104311   178.65827858
 C     43  40  39     1.527241577944   112.64363419   163.15410474
 C     44  43  40     1.526892634339   111.84184802   178.70107221
 C     45  44  43     1.523651101959   111.77987106   179.39751565
 N     38  37  36     1.309210483650   116.64587576   359.81547561
 C     47  38  37     1.334703713526   103.97365429     0.18672507
 C     48  47  38     1.407576764123   132.96633771   177.49997046
 C     34  25  24     1.423689208290   133.83358994   175.51355382
 N     50  34  25     1.390107978360   133.74994040     9.76059156
 C     51  50  34     1.443288897241   132.01114173    25.39379550
 C     52  51  50     1.544609384181   115.12814022    68.16995644
 C     53  52  51     1.536615567603   113.32599917    47.94168129
 C     54  53  52     1.524622294931   113.72162214   264.83936915
 C     53  52  51     1.537043765740   106.93747985   170.10324333
 C     56  53  52     1.526317101424   113.85816833   162.41162564
 C     57  56  53     1.526606375920   111.48450888   177.78901763
 C     58  57  56     1.523349411330   111.59493663   177.94942154
 C     51  50  34     1.368500903946   107.79006871   185.47747979
 C     49  48  47     1.397974105125   130.73804346   359.29766062
 S     61  49  48     1.731145911615   139.29339985     2.70614034
 C     62  61  49     1.747845509935    89.15402406   183.45728566
 C     60  51  50     1.395815770401   137.76347033   181.46638228
 S     64  60  51     1.723255989834   136.62284404     0.13431541
 C     65  64  60     1.761263761508    90.95918114   175.44628423
 C     66  65  64     1.384205555111   111.41936783     3.06037778
 C     66  65  64     1.411159911704   122.08293239   180.36620962
 C     68  66  65     1.363088496980   128.72857001    19.60408195
 C     69  68  66     1.445907581037   131.92265302    14.78595589
 C     70  69  68     1.371319527645   126.10506979    33.58791276
 C     71  70  69     1.406942889815   124.36973824   178.78339283
 N     72  71  70     1.148673241005   175.91433580   144.27639919
 C     71  70  69     1.410806208591   123.05826095     2.24838763
 N     74  71  70     1.148233011936   176.42189630   125.30456704
 C     70  69  68     1.460948728395   107.20858639   200.52920715
 C     76  70  69     1.384778488748   131.36772812   171.35784526
 C     77  76  70     1.388764084681   118.35916571   177.12402007
 C     78  77  76     1.387609475213   121.42332024   359.61197726
 C     79  78  77     1.388319220172   120.62170879     0.65317096
 C     80  79  78     1.381032428801   118.22578525   359.79411116
 C     81  80  79     1.479023356137   129.07681406   178.88643505
 O     82  81  80     1.209702547695   128.05131089     3.46107741
 H      4   3   1     1.079124323005   120.13051713   358.40925532
 H      5   4   3     1.079615326355   119.77412062   179.93695885
 H      6   5   4     1.079754886768   119.47518757   180.53558127
 H      7   6   5     1.078464305343   120.27097427   180.27342578
 H     16  15   9     1.086176637661   114.74724404   186.78131084
 H     21  17  16     1.074518014042   122.76128677     5.75324001
 H     26  25  24     1.095913398495   106.29333708   332.47491681
 H     26  25  24     1.090904550224   108.56015215   217.42844301
 H     27  26  25     1.090813465905   109.56163891    76.32827457
 H     28  27  26     1.090574117885   108.41088945   174.09222203
 H     28  27  26     1.092782444497   109.01286526    57.44996476
 H     29  28  27     1.088598889628   110.90144358   303.72698969
 H     29  28  27     1.086935801508   109.68822073   184.45346215
 H     29  28  27     1.086907718484   111.66527054    65.20256277
 H     30  27  26     1.091537347277   109.88706548    39.47415990
 H     30  27  26     1.090812287564   109.35502989   281.20320033
 H     31  30  27     1.091495975393   110.31481487    54.34515742
 H     31  30  27     1.092508679599   109.18923323   296.17404114
 H     32  31  30     1.092582006716   109.37032939    58.06112268
 H     32  31  30     1.092491952053   109.26427691   300.53022445
 H     33  32  31     1.087969901836   110.57213889   300.16583502
 H     33  32  31     1.087122044897   110.62982852   180.11232442
 H     33  32  31     1.087970207037   110.51890082    60.08998521
 H     39  38  37     1.092401732560   108.04358646   317.18857740
 H     39  38  37     1.091630245138   107.17513592   198.56796210
 H     40  39  38     1.094814054943   107.37732089   295.92625109
 H     41  40  39     1.090659028936   109.66324381   136.47554155
 H     41  40  39     1.092311677773   109.50999273    19.01599433
 H     42  41  40     1.088035473227   110.54921068   298.35236984
 H     42  41  40     1.087672750831   110.34733427   178.44603190
 H     42  41  40     1.087402785126   111.33787707    58.48263882
 H     43  40  39     1.092672165153   109.17513218    42.63867251
 H     43  40  39     1.092363322068   109.25905087   285.30674943
 H     44  43  40     1.091453991609   110.00842029    57.40254446
 H     44  43  40     1.092344667676   109.12057752   299.65849394
 H     45  44  43     1.092395211176   109.30269158    58.14062477
 H     45  44  43     1.092425090613   109.28187976   300.64692916
 H     46  45  44     1.087793199970   110.51650768   300.01528100
 H     46  45  44     1.087337602173   110.63629604   179.95528011
 H     46  45  44     1.087859736639   110.54320251    59.88792409
 H     52  51  50     1.086632955050   110.47711883   303.35677523
 H     52  51  50     1.094199952203   106.02625803   187.54758692
 H     53  52  51     1.095848175844   108.59372338   287.86787116
 H     54  53  52     1.090464281167   108.78083727   144.65382373
 H     54  53  52     1.089352692474   110.29395826    28.48783579
 H     55  54  53     1.088512942045   110.37567797   299.75260894
 H     55  54  53     1.087114115353   109.72188419   180.47764257
 H     55  54  53     1.086604538689   112.07468502    60.42866145
 H     56  53  52     1.093572694657   109.58487294    41.19195523
 H     56  53  52     1.092496455097   108.71335094   284.30400059
 H     57  56  53     1.090912078309   110.19424221    56.82410139
 H     57  56  53     1.092376259445   109.41702382   298.68026168
 H     58  57  56     1.092899145850   109.29075096    56.83889175
 H     58  57  56     1.091040050869   109.06139180   299.11444423
 H     59  58  57     1.088635926010   110.66255671   300.13491593
 H     59  58  57     1.087091983827   110.56140806   179.99194646
 H     59  58  57     1.087550453083   110.45084095    60.12238723
 H     67  66  65     1.074495091147   122.71878858   179.55014141
 H     68  66  65     1.085721434117   115.64300327   204.52948251
 H     77  76  70     1.078462223214   121.36854518   356.42562837
 H     78  77  76     1.079728896992   119.09561131   179.74081778
 H     79  78  77     1.079601841838   119.60447911   180.58072524
 H     80  79  78     1.079085016391   121.64329137   179.91370402

---------------------------
INTERNAL COORDINATES (A.U.)
---------------------------
 C      0   0   0     0.000000000000     0.00000000     0.00000000
 O      1   0   0     2.286200633863     0.00000000     0.00000000
 C      1   2   0     2.794990472304   128.03963517     0.00000000
 C      3   1   2     2.609629953300   129.06234195     3.68297751
 C      4   3   1     2.623534401071   118.22201135   178.47399234
 C      5   4   3     2.621983512675   120.60784816   359.82509182
 C      6   5   4     2.624715379232   121.43933786     0.65398518
 C      7   6   5     2.616573051645   118.35544520   359.58328870
 C      8   7   6     2.762208764020   131.45782760   177.27212240
 C      9   8   7     2.590923839825   125.40789642   337.95925618
 C     10   9   8     2.666116045799   122.73849669   198.77309115
 N     11  10   9     2.169553366050   176.17757840   117.13845628
 C     10   9   8     2.659883918303   124.11292519    14.56150908
 N     13  10   9     2.170337452150   176.23217877   138.63829436
 C      9   8   7     2.729612808879   107.17192121   170.66087660
 C     15   9   8     2.577176600165   132.44424440   203.96107330
 C     16  15   9     2.661958617800   130.18244432    14.46540610
 S     17  16  15     3.323853254941   123.31841238     9.79433570
 C     18  17  16     3.254835085179    91.40696937   175.16429022
 C     19  18  17     2.659046876463   110.90217467   359.54003613
 C     17  16  15     2.620803406093   125.23620608   182.83981070
 S     20  19  18     3.301395412135   113.29316596   179.03715616
 C     22  20  19     3.269531683876    88.94906997   359.07573397
 C     19  18  17     2.641134690715   137.22593019   177.83733161
 N     24  19  18     2.591780326731   138.23175740   356.16961799
 C     25  24  19     2.730487070665   118.22852361   354.40288372
 C     26  25  24     2.920869744732   116.06782657    91.97764581
 C     27  26  25     2.900161824221   108.64095570   194.68299887
 C     28  27  26     2.881514282324   114.32558034   294.92021804
 C     27  26  25     2.899130041007   112.69777723   317.38340988
 C     30  27  26     2.885797058683   112.86847049   159.66565956
 C     31  30  27     2.884845745720   111.73726059   175.66039615
 C     32  31  30     2.879358996419   111.60140738   179.33864348
 C     25  24  19     2.625623295738   107.94527759   187.84940125
 C     23  22  20     2.638823936094   138.47339679   188.27562805
 C     35  23  22     2.661439555891   130.25256668     1.63039672
 N     36  35  23     2.522432955506   132.86893024   352.59215361
 N     37  36  35     2.474102299498   103.92657583   175.87712365
 C     38  37  36     2.701518709192   121.81746732   182.52703951
 C     39  38  37     2.908617454199   111.25626162    77.98077478
 C     40  39  38     2.907998795186   110.65591329    54.74369017
 C     41  40  39     2.882214749268   112.63840448   257.43380181
 C     40  39  38     2.896328292895   108.89104311   178.65827858
 C     43  40  39     2.886068322651   112.64363419   163.15410474
 C     44  43  40     2.885408914803   111.84184802   178.70107221
 C     45  44  43     2.879283306349   111.77987106   179.39751565
 N     38  37  36     2.474049265758   116.64587576   359.81547561
 C     47  38  37     2.522224488492   103.97365429     0.18672507
 C     48  47  38     2.659934596664   132.96633771   177.49997046
 C     34  25  24     2.690382703486   133.83358994   175.51355382
 N     50  34  25     2.626923375679   133.74994040     9.76059156
 C     51  50  34     2.727420747915   132.01114173    25.39379550
 C     52  51  50     2.918888719987   115.12814022    68.16995644
 C     53  52  51     2.903782595890   113.32599917    47.94168129
 C     54  53  52     2.881118595090   113.72162214   264.83936915
 C     53  52  51     2.904591773099   106.93747985   170.10324333
 C     56  53  52     2.884321315212   113.85816833   162.41162564
 C     57  56  53     2.884867964787   111.48450888   177.78901763
 C     58  57  56     2.878713193684   111.59493663   177.94942154
 C     51  50  34     2.586091922481   107.79006871   185.47747979
 C     49  48  47     2.641788201000   130.73804346   359.29766062
 S     61  49  48     3.271391670809   139.29339985     2.70614034
 C     62  61  49     3.302949338181    89.15402406   183.45728566
 C     60  51  50     2.637709539466   137.76347033   181.46638228
 S     64  60  51     3.256481879426   136.62284404     0.13431541
 C     65  64  60     3.328306158849    90.95918114   175.44628423
 C     66  65  64     2.615769412212   111.41936783     3.06037778
 C     66  65  64     2.666705764289   122.08293239   180.36620962
 C     68  66  65     2.575863955591   128.72857001    19.60408195
 C     69  68  66     2.732369343120   131.92265302    14.78595589
 C     70  69  68     2.591418349347   126.10506979    33.58791276
 C     71  70  69     2.658736747817   124.36973824   178.78339283
 N     72  71  70     2.170677842862   175.91433580   144.27639919
 C     71  70  69     2.666037362273   123.05826095     2.24838763
 N     74  71  70     2.169845930487   176.42189630   125.30456704
 C     70  69  68     2.760792992368   107.20858639   200.52920715
 C     76  70  69     2.616852099880   131.36772812   171.35784526
 C     77  76  70     2.624383784673   118.35916571   177.12402007
 C     78  77  76     2.622201888986   121.42332024   359.61197726
 C     79  78  77     2.623543112585   120.62170879     0.65317096
 C     80  79  78     2.609773072498   118.22578525   359.79411116
 C     81  80  79     2.794949088773   129.07681406   178.88643505
 O     82  81  80     2.286006518651   128.05131089     3.46107741
 H      4   3   1     2.039249434932   120.13051713   358.40925532
 H      5   4   3     2.040177296794   119.77412062   179.93695885
 H      6   5   4     2.040441027755   119.47518757   180.53558127
 H      7   6   5     2.038002182309   120.27097427   180.27342578
 H     16  15   9     2.052576378242   114.74724404   186.78131084
 H     21  17  16     2.030544772504   122.76128677     5.75324001
 H     26  25  24     2.070976189650   106.29333708   332.47491681
 H     26  25  24     2.061510838172   108.56015215   217.42844301
 H     27  26  25     2.061338713754   109.56163891    76.32827457
 H     28  27  26     2.060886411545   108.41088945   174.09222203
 H     28  27  26     2.065059544056   109.01286526    57.44996476
 H     29  28  27     2.057153771088   110.90144358   303.72698969
 H     29  28  27     2.054010990004   109.68822073   184.45346215
 H     29  28  27     2.053957920780   111.66527054    65.20256277
 H     30  27  26     2.062706651300   109.88706548    39.47415990
 H     30  27  26     2.061336487012   109.35502989   281.20320033
 H     31  30  27     2.062628469771   110.31481487    54.34515742
 H     31  30  27     2.064542203375   109.18923323   296.17404114
 H     32  31  30     2.064680771544   109.37032939    58.06112268
 H     32  31  30     2.064510592893   109.26427691   300.53022445
 H     33  32  31     2.055965156418   110.57213889   300.16583502
 H     33  32  31     2.054362939003   110.62982852   180.11232442
 H     33  32  31     2.055965733165   110.51890082    60.08998521
 H     39  38  37     2.064340102759   108.04358646   317.18857740
 H     39  38  37     2.062882202816   107.17513592   198.56796210
 H     40  39  38     2.068898731409   107.37732089   295.92625109
 H     41  40  39     2.061046870178   109.66324381   136.47554155
 H     41  40  39     2.064169923876   109.50999273    19.01599433
 H     42  41  40     2.056089068390   110.54921068   298.35236984
 H     42  41  40     2.055403622399   110.34733427   178.44603190
 H     42  41  40     2.054893461152   111.33787707    58.48263882
 H     43  40  39     2.064851146298   109.17513218    42.63867251
 H     43  40  39     2.064267517449   109.25905087   285.30674943
 H     44  43  40     2.062549131917   110.00842029    57.40254446
 H     44  43  40     2.064232265757   109.12057752   299.65849394
 H     45  44  43     2.064327779129   109.30269158    58.14062477
 H     45  44  43     2.064384243082   109.28187976   300.64692916
 H     46  45  44     2.055631238284   110.51650768   300.01528100
 H     46  45  44     2.054770283222   110.63629604   179.95528011
 H     46  45  44     2.055756974367   110.54320251    59.88792409
 H     52  51  50     2.053438693137   110.47711883   303.35677523
 H     52  51  50     2.067738245412   106.02625803   187.54758692
 H     53  52  51     2.070852936702   108.59372338   287.86787116
 H     54  53  52     2.060678850228   108.78083727   144.65382373
 H     54  53  52     2.058578252025   110.29395826    28.48783579
 H     55  54  53     2.056991353694   110.37567797   299.75260894
 H     55  54  53     2.054347954337   109.72188419   180.47764257
 H     55  54  53     2.053384993998   112.07468502    60.42866145
 H     56  53  52     2.066552900437   109.58487294    41.19195523
 H     56  53  52     2.064519102414   108.71335094   284.30400059
 H     57  56  53     2.061525064190   110.19424221    56.82410139
 H     57  56  53     2.064291965549   109.41702382   298.68026168
 H     58  57  56     2.065280077653   109.29075096    56.83889175
 H     58  57  56     2.061766897282   109.06139180   299.11444423
 H     59  58  57     2.057223759707   110.66255671   300.13491593
 H     59  58  57     2.054306131813   110.56140806   179.99194646
 H     59  58  57     2.055172513148   110.45084095    60.12238723
 H     67  66  65     2.030501454511   122.71878858   179.55014141
 H     68  66  65     2.051716168208   115.64300327   204.52948251
 H     77  76  70     2.037998247655   121.36854518   356.42562837
 H     78  77  76     2.040391914196   119.09561131   179.74081778
 H     79  78  77     2.040151814751   119.60447911   180.58072524
 H     80  79  78     2.039175156197   121.64329137   179.91370402

---------------------
BASIS SET INFORMATION
---------------------
There are 5 groups of distinct atoms

 Group   1 Type C   : 7s4p1d contracted to 3s2p1d pattern {511/31/1}
 Group   2 Type O   : 7s4p1d contracted to 3s2p1d pattern {511/31/1}
 Group   3 Type N   : 7s4p1d contracted to 3s2p1d pattern {511/31/1}
 Group   4 Type S   : 10s7p1d contracted to 4s3p1d pattern {5311/511/1}
 Group   5 Type H   : 4s1p contracted to 2s1p pattern {31/1}

Atom   0C    basis set group =>   1
Atom   1O    basis set group =>   2
Atom   2C    basis set group =>   1
Atom   3C    basis set group =>   1
Atom   4C    basis set group =>   1
Atom   5C    basis set group =>   1
Atom   6C    basis set group =>   1
Atom   7C    basis set group =>   1
Atom   8C    basis set group =>   1
Atom   9C    basis set group =>   1
Atom  10C    basis set group =>   1
Atom  11N    basis set group =>   3
Atom  12C    basis set group =>   1
Atom  13N    basis set group =>   3
Atom  14C    basis set group =>   1
Atom  15C    basis set group =>   1
Atom  16C    basis set group =>   1
Atom  17S    basis set group =>   4
Atom  18C    basis set group =>   1
Atom  19C    basis set group =>   1
Atom  20C    basis set group =>   1
Atom  21S    basis set group =>   4
Atom  22C    basis set group =>   1
Atom  23C    basis set group =>   1
Atom  24N    basis set group =>   3
Atom  25C    basis set group =>   1
Atom  26C    basis set group =>   1
Atom  27C    basis set group =>   1
Atom  28C    basis set group =>   1
Atom  29C    basis set group =>   1
Atom  30C    basis set group =>   1
Atom  31C    basis set group =>   1
Atom  32C    basis set group =>   1
Atom  33C    basis set group =>   1
Atom  34C    basis set group =>   1
Atom  35C    basis set group =>   1
Atom  36N    basis set group =>   3
Atom  37N    basis set group =>   3
Atom  38C    basis set group =>   1
Atom  39C    basis set group =>   1
Atom  40C    basis set group =>   1
Atom  41C    basis set group =>   1
Atom  42C    basis set group =>   1
Atom  43C    basis set group =>   1
Atom  44C    basis set group =>   1
Atom  45C    basis set group =>   1
Atom  46N    basis set group =>   3
Atom  47C    basis set group =>   1
Atom  48C    basis set group =>   1
Atom  49C    basis set group =>   1
Atom  50N    basis set group =>   3
Atom  51C    basis set group =>   1
Atom  52C    basis set group =>   1
Atom  53C    basis set group =>   1
Atom  54C    basis set group =>   1
Atom  55C    basis set group =>   1
Atom  56C    basis set group =>   1
Atom  57C    basis set group =>   1
Atom  58C    basis set group =>   1
Atom  59C    basis set group =>   1
Atom  60C    basis set group =>   1
Atom  61S    basis set group =>   4
Atom  62C    basis set group =>   1
Atom  63C    basis set group =>   1
Atom  64S    basis set group =>   4
Atom  65C    basis set group =>   1
Atom  66C    basis set group =>   1
Atom  67C    basis set group =>   1
Atom  68C    basis set group =>   1
Atom  69C    basis set group =>   1
Atom  70C    basis set group =>   1
Atom  71C    basis set group =>   1
Atom  72N    basis set group =>   3
Atom  73C    basis set group =>   1
Atom  74N    basis set group =>   3
Atom  75C    basis set group =>   1
Atom  76C    basis set group =>   1
Atom  77C    basis set group =>   1
Atom  78C    basis set group =>   1
Atom  79C    basis set group =>   1
Atom  80C    basis set group =>   1
Atom  81C    basis set group =>   1
Atom  82O    basis set group =>   2
Atom  83H    basis set group =>   5
Atom  84H    basis set group =>   5
Atom  85H    basis set group =>   5
Atom  86H    basis set group =>   5
Atom  87H    basis set group =>   5
Atom  88H    basis set group =>   5
Atom  89H    basis set group =>   5
Atom  90H    basis set group =>   5
Atom  91H    basis set group =>   5
Atom  92H    basis set group =>   5
Atom  93H    basis set group =>   5
Atom  94H    basis set group =>   5
Atom  95H    basis set group =>   5
Atom  96H    basis set group =>   5
Atom  97H    basis set group =>   5
Atom  98H    basis set group =>   5
Atom  99H    basis set group =>   5
Atom 100H    basis set group =>   5
Atom 101H    basis set group =>   5
Atom 102H    basis set group =>   5
Atom 103H    basis set group =>   5
Atom 104H    basis set group =>   5
Atom 105H    basis set group =>   5
Atom 106H    basis set group =>   5
Atom 107H    basis set group =>   5
Atom 108H    basis set group =>   5
Atom 109H    basis set group =>   5
Atom 110H    basis set group =>   5
Atom 111H    basis set group =>   5
Atom 112H    basis set group =>   5
Atom 113H    basis set group =>   5
Atom 114H    basis set group =>   5
Atom 115H    basis set group =>   5
Atom 116H    basis set group =>   5
Atom 117H    basis set group =>   5
Atom 118H    basis set group =>   5
Atom 119H    basis set group =>   5
Atom 120H    basis set group =>   5
Atom 121H    basis set group =>   5
Atom 122H    basis set group =>   5
Atom 123H    basis set group =>   5
Atom 124H    basis set group =>   5
Atom 125H    basis set group =>   5
Atom 126H    basis set group =>   5
Atom 127H    basis set group =>   5
Atom 128H    basis set group =>   5
Atom 129H    basis set group =>   5
Atom 130H    basis set group =>   5
Atom 131H    basis set group =>   5
Atom 132H    basis set group =>   5
Atom 133H    basis set group =>   5
Atom 134H    basis set group =>   5
Atom 135H    basis set group =>   5
Atom 136H    basis set group =>   5
Atom 137H    basis set group =>   5
Atom 138H    basis set group =>   5
Atom 139H    basis set group =>   5
Atom 140H    basis set group =>   5
Atom 141H    basis set group =>   5
Atom 142H    basis set group =>   5
Atom 143H    basis set group =>   5
Atom 144H    basis set group =>   5
Atom 145H    basis set group =>   5
------------------------------------------------------------------------------
                           ORCA GTO INTEGRAL CALCULATION
------------------------------------------------------------------------------

                         BASIS SET STATISTICS AND STARTUP INFO

 # of primitive gaussian shells          ... 1335
 # of primitive gaussian functions       ... 2481
 # of contracted shells                  ...  695
 # of contracted basis functions         ... 1493
 Highest angular momentum                ...    2
 Maximum contraction depth               ...    5
 Integral package used                   ... LIBINT
 Integral threshhold            Thresh   ...  2.500e-11
 Primitive cut-off              TCut     ...  2.500e-12


------------------------------ INTEGRAL EVALUATION ----------------------------


 * One electron integrals 
 Pre-screening matrix                    ... done
 Shell pair data                         ... done (   0.031 sec)

-------------------------------------------------------------------------------
                                 ORCA SCF
-------------------------------------------------------------------------------

------------
SCF SETTINGS
------------
Hamiltonian:
 Ab initio Hamiltonian  Method          .... Hartree-Fock(GTOs)


General Settings:
 Integral files         IntName         .... Y1
 Hartree-Fock type      HFTyp           .... RHF
 Total Charge           Charge          ....    0
 Multiplicity           Mult            ....    1
 Number of Electrons    NEL             ....  614
 Basis Dimension        Dim             .... 1493
 Nuclear Repulsion      ENuc            ....  15040.0252239271 Eh

Convergence Acceleration:
 DIIS                   CNVDIIS         .... on
   Start iteration      DIISMaxIt       ....    12
   Startup error        DIISStart       ....  0.200000
   # of expansion vecs  DIISMaxEq       ....     5
   Bias factor          DIISBfac        ....   1.050
   Max. coefficient     DIISMaxC        ....  10.000
 Newton-Raphson         CNVNR           .... off
 SOSCF                  CNVSOSCF        .... on
   Start iteration      SOSCFMaxIt      ....   150
   Startup grad/error   SOSCFStart      ....  0.003300
 Level Shifting         CNVShift        .... on
   Level shift para.    LevelShift      ....    0.2500
   Turn off err/grad.   ShiftErr        ....    0.0010
 Zerner damping         CNVZerner       .... off
 Static damping         CNVDamp         .... on
   Fraction old density DampFac         ....    0.7000
   Max. Damping (<1)    DampMax         ....    0.9800
   Min. Damping (>=0)   DampMin         ....    0.0000
   Turn off err/grad.   DampErr         ....    0.1000
 Fernandez-Rico         CNVRico         .... off

SCF Procedure:
 Maximum # iterations   MaxIter         ....   125
 SCF integral mode      SCFMode         .... Direct
   Integral package                     .... LIBINT
 Reset frequency        DirectResetFreq ....    20
 Integral Threshold     Thresh          ....  2.500e-11 Eh
 Primitive CutOff       TCut            ....  2.500e-12 Eh

Convergence Tolerance:
 Convergence Check Mode ConvCheckMode   .... Total+1el-Energy
 Convergence forced     ConvForced      .... 1
 Energy Change          TolE            ....  1.000e-08 Eh
 1-El. energy change                    ....  1.000e-05 Eh
 Orbital Gradient       TolG            ....  1.000e-05
 Orbital Rotation angle TolX            ....  1.000e-05
 DIIS Error             TolErr          ....  5.000e-07


Diagonalization of the overlap matrix:
Smallest eigenvalue                        ... 8.688e-05
Time for diagonalization                   ...    0.749 sec
Threshold for overlap eigenvalues          ... 1.000e-08
Number of eigenvalues below threshold      ... 0
Time for construction of square roots      ...    0.271 sec
Total time needed                          ...    1.027 sec

-------------------
DFT GRID GENERATION
-------------------

General Integration Accuracy     IntAcc      ...  4.340
Radial Grid Type                 RadialGrid  ... Gauss-Chebyshev
Angular Grid (max. acc.)         AngularGrid ... Lebedev-110
Angular grid pruning method      GridPruning ... 3 (G Style)
Weight generation scheme         WeightScheme... Becke
Basis function cutoff            BFCut       ...    1.0000e-11
Integration weight cutoff        WCut        ...    1.0000e-14
Grids for H and He will be reduced by one unit

# of grid points (after initial pruning)     ... 188604 (   0.4 sec)
# of grid points (after weights+screening)   ... 161853 (  13.7 sec)
nearest neighbour list constructed           ...    0.0 sec
Grid point re-assignment to atoms done       ...    0.0 sec
Grid point division into batches done        ...    0.1 sec
Reduced shell lists constructed in    3.6 sec

Total number of grid points                  ...   161853
Total number of batches                      ...     2604
Average number of points per batch           ...       62
Average number of grid points per atom       ...     1109
Average number of shells per batch           ...   137.40 (19.77%)
Average number of basis functions per batch  ...   267.46 (17.91%)
Average number of large shells per batch     ...    76.13 (55.41%)
Average number of large basis fcns per batch ...   151.78 (56.75%)
Maximum spatial batch extension              ...  23.60, 21.92, 24.36 au
Average spatial batch extension              ...   2.92,  2.96,  3.36 au

Time for grid setup =   17.697 sec

------------------------------
INITIAL GUESS: MODEL POTENTIAL
------------------------------
Loading Hartree-Fock densities                     ... done
Calculating cut-offs                               ... done
Setting up the integral package                    ... done
Initializing the effective Hamiltonian             ... done
Starting the Coulomb interaction                   ... done (  18.7 sec)
Reading the grid                                   ... done
Mapping shells                                     ... done
Starting the XC term evaluation                    ... done (   3.5 sec)
Transforming the Hamiltonian                       ... done (   0.3 sec)
Diagonalizing the Hamiltonian                      ... done (   0.7 sec)
Back transforming the eigenvectors                 ... done (   0.1 sec)
Now organizing SCF variables                       ... done
                      ------------------
                      INITIAL GUESS DONE (  41.3 sec)
                      ------------------
--------------
SCF ITERATIONS
--------------
ITER       Energy         Delta-E        Max-DP      RMS-DP      [F,P]     Damp
               ***  Starting incremental Fock matrix formation  ***
  0  -4835.6558246348   0.000000000000 0.11033448  0.00118311  0.2356737 0.7000
  1  -4836.6288500477  -0.973025412924 0.08144603  0.00090790  0.1435523 0.7000
                               ***Turning on DIIS***
  2  -4837.2179814172  -0.589131369521 0.19432540  0.00209782  0.0813937 0.0000
  3  -4833.9750384748   3.242942942437 0.05297977  0.00045207  0.0524766 0.0000
  4  -4838.7207101113  -4.745671636501 0.01437035  0.00017624  0.0188654 0.0000
  5  -4838.7371601265  -0.016450015231 0.00764917  0.00008920  0.0105766 0.0000
  6  -4838.4344459143   0.302714212190 0.00479739  0.00005299  0.0027883 0.0000
  7  -4838.4988174834  -0.064371569115 0.00326111  0.00003335  0.0017864 0.0000
  8  -4838.4551516114   0.043665872043 0.00239918  0.00002506  0.0012158 0.0000
                      *** Initiating the SOSCF procedure ***
                           *** Shutting down DIIS ***
                      *** Re-Reading the Fockian *** 
                      *** Removing any level shift *** 
ITER      Energy       Delta-E        Grad      Rot      Max-DP    RMS-DP
  9  -4838.45938229  -0.0042306751  0.003011  0.003011  0.002526  0.000026
               *** Restarting incremental Fock matrix formation ***
 10  -4838.48401474  -0.0246324567  0.000558  0.002366  0.000822  0.000008
 11  -4838.48403024  -0.0000154974  0.000425  0.004738  0.001059  0.000011
 12  -4838.48404255  -0.0000123046  0.000093  0.000491  0.000175  0.000002
 13  -4838.48404350  -0.0000009537  0.000054  0.000288  0.000139  0.000001
 14  -4838.48404389  -0.0000003902  0.000018  0.000093  0.000095  0.000001
 15  -4838.48404398  -0.0000000938  0.000014  0.000049  0.000031  0.000000
 16  -4838.48404402  -0.0000000362  0.000004  0.000030  0.000017  0.000000
                  ***Gradient check signals convergence***
              ***Rediagonalizing the Fockian in SOSCF/NRSCF***

               *****************************************************
               *                     SUCCESS                       *
               *           SCF CONVERGED AFTER  17 CYCLES          *
               *****************************************************


----------------
TOTAL SCF ENERGY
----------------

Total Energy       :        -4838.48404400 Eh         -131661.84440 eV

Components:
Nuclear Repulsion  :        15040.02522393 Eh          409259.89271 eV
Electronic Energy  :       -19878.50926793 Eh         -540921.73711 eV
One Electron Energy:       -36595.78576037 Eh         -995821.95715 eV
Two Electron Energy:        16717.27649244 Eh          454900.22004 eV

Virial components:
Potential Energy   :        -9663.43320668 Eh         -262955.38595 eV
Kinetic Energy     :         4824.94916268 Eh          131293.54155 eV
Virial Ratio       :            2.00280519


---------------
SCF CONVERGENCE
---------------

  Last Energy change         ...    1.5709e-08  Tolerance :   1.0000e-08
  Last MAX-Density change    ...    5.8283e-06  Tolerance :   1.0000e-07
  Last RMS-Density change    ...    4.8433e-08  Tolerance :   5.0000e-09
  Last Orbital Gradient      ...    1.1788e-06  Tolerance :   1.0000e-05
  Last Orbital Rotation      ...    5.0223e-06  Tolerance :   1.0000e-05

             **** THE GBW FILE WAS UPDATED (Y1.gbw) ****
             **** DENSITY FILE WAS UPDATED (Y1.scfp) ****
             **** ENERGY FILE WAS UPDATED (Y1.en.tmp) ****
             **** THE GBW FILE WAS UPDATED (Y1.gbw) ****
             **** DENSITY FILE WAS UPDATED (Y1.scfp) ****
----------------
ORBITAL ENERGIES
----------------

  NO   OCC          E(Eh)            E(eV) 
   0   2.0000     -91.978598     -2502.8649 
   1   2.0000     -91.976630     -2502.8113 
   2   2.0000     -91.968578     -2502.5922 
   3   2.0000     -91.967995     -2502.5764 
   4   2.0000     -20.558864      -559.4351 
   5   2.0000     -20.555188      -559.3351 
   6   2.0000     -15.697064      -427.1388 
   7   2.0000     -15.640891      -425.6103 
   8   2.0000     -15.638920      -425.5566 
   9   2.0000     -15.612735      -424.8441 
  10   2.0000     -15.610878      -424.7936 
  11   2.0000     -15.591331      -424.2617 
  12   2.0000     -15.586215      -424.1225 
  13   2.0000     -15.582697      -424.0267 
  14   2.0000     -15.578440      -423.9109 
  15   2.0000     -11.356777      -309.0336 
  16   2.0000     -11.353462      -308.9434 
  17   2.0000     -11.336824      -308.4907 
  18   2.0000     -11.332834      -308.3821 
  19   2.0000     -11.319626      -308.0227 
  20   2.0000     -11.317407      -307.9623 
  21   2.0000     -11.317340      -307.9605 
  22   2.0000     -11.315317      -307.9054 
  23   2.0000     -11.314264      -307.8768 
  24   2.0000     -11.311902      -307.8125 
  25   2.0000     -11.308721      -307.7259 
  26   2.0000     -11.307620      -307.6960 
  27   2.0000     -11.303129      -307.5738 
  28   2.0000     -11.298437      -307.4461 
  29   2.0000     -11.298299      -307.4423 
  30   2.0000     -11.297042      -307.4081 
  31   2.0000     -11.296874      -307.4036 
  32   2.0000     -11.296634      -307.3971 
  33   2.0000     -11.294903      -307.3499 
  34   2.0000     -11.294662      -307.3434 
  35   2.0000     -11.293756      -307.3187 
  36   2.0000     -11.293502      -307.3118 
  37   2.0000     -11.293277      -307.3057 
  38   2.0000     -11.289178      -307.1941 
  39   2.0000     -11.288880      -307.1861 
  40   2.0000     -11.288150      -307.1662 
  41   2.0000     -11.287726      -307.1546 
  42   2.0000     -11.285142      -307.0843 
  43   2.0000     -11.282218      -307.0048 
  44   2.0000     -11.281405      -306.9826 
  45   2.0000     -11.280539      -306.9591 
  46   2.0000     -11.276895      -306.8599 
  47   2.0000     -11.276089      -306.8380 
  48   2.0000     -11.275198      -306.8137 
  49   2.0000     -11.274312      -306.7896 
  50   2.0000     -11.273901      -306.7784 
  51   2.0000     -11.273898      -306.7784 
  52   2.0000     -11.273365      -306.7638 
  53   2.0000     -11.272777      -306.7478 
  54   2.0000     -11.272614      -306.7434 
  55   2.0000     -11.272431      -306.7384 
  56   2.0000     -11.271143      -306.7034 
  57   2.0000     -11.270122      -306.6756 
  58   2.0000     -11.269564      -306.6604 
  59   2.0000     -11.265954      -306.5622 
  60   2.0000     -11.265350      -306.5458 
  61   2.0000     -11.263757      -306.5024 
  62   2.0000     -11.244132      -305.9684 
  63   2.0000     -11.238049      -305.8029 
  64   2.0000     -11.235280      -305.7275 
  65   2.0000     -11.234072      -305.6946 
  66   2.0000     -11.229451      -305.5689 
  67   2.0000     -11.227008      -305.5024 
  68   2.0000     -11.226003      -305.4751 
  69   2.0000     -11.225867      -305.4714 
  70   2.0000     -11.224897      -305.4450 
  71   2.0000     -11.223169      -305.3979 
  72   2.0000     -11.222640      -305.3836 
  73   2.0000     -11.221930      -305.3642 
  74   2.0000     -11.219445      -305.2966 
  75   2.0000     -11.218345      -305.2667 
  76   2.0000     -11.217267      -305.2374 
  77   2.0000     -11.216939      -305.2284 
  78   2.0000     -11.216194      -305.2082 
  79   2.0000     -11.212809      -305.1161 
  80   2.0000     -11.209609      -305.0290 
  81   2.0000     -11.209076      -305.0145 
  82   2.0000     -11.208525      -304.9995 
  83   2.0000      -9.013478      -245.2692 
  84   2.0000      -9.011575      -245.2174 
  85   2.0000      -9.003131      -244.9877 
  86   2.0000      -9.002685      -244.9755 
  87   2.0000      -6.701090      -182.3459 
  88   2.0000      -6.700025      -182.3169 
  89   2.0000      -6.699128      -182.2925 
  90   2.0000      -6.698078      -182.2640 
  91   2.0000      -6.697999      -182.2618 
  92   2.0000      -6.696045      -182.2086 
  93   2.0000      -6.690708      -182.0634 
  94   2.0000      -6.690257      -182.0511 
  95   2.0000      -6.689887      -182.0411 
  96   2.0000      -6.689430      -182.0286 
  97   2.0000      -6.687530      -181.9769 
  98   2.0000      -6.687077      -181.9646 
  99   2.0000      -1.466458       -39.9044 
 100   2.0000      -1.390839       -37.8466 
 101   2.0000      -1.387453       -37.7545 
 102   2.0000      -1.343556       -36.5600 
 103   2.0000      -1.329669       -36.1821 
 104   2.0000      -1.249255       -33.9940 
 105   2.0000      -1.244428       -33.8626 
 106   2.0000      -1.228850       -33.4387 
 107   2.0000      -1.226037       -33.3622 
 108   2.0000      -1.221197       -33.2305 
 109   2.0000      -1.219545       -33.1855 
 110   2.0000      -1.218055       -33.1450 
 111   2.0000      -1.215572       -33.0774 
 112   2.0000      -1.200594       -32.6698 
 113   2.0000      -1.186338       -32.2819 
 114   2.0000      -1.164311       -31.6825 
 115   2.0000      -1.161844       -31.6154 
 116   2.0000      -1.148056       -31.2402 
 117   2.0000      -1.147222       -31.2175 
 118   2.0000      -1.130553       -30.7639 
 119   2.0000      -1.114777       -30.3346 
 120   2.0000      -1.106725       -30.1155 
 121   2.0000      -1.097545       -29.8657 
 122   2.0000      -1.094960       -29.7954 
 123   2.0000      -1.085526       -29.5387 
 124   2.0000      -1.083191       -29.4751 
 125   2.0000      -1.070829       -29.1387 
 126   2.0000      -1.063543       -28.9405 
 127   2.0000      -1.055821       -28.7304 
 128   2.0000      -1.052624       -28.6434 
 129   2.0000      -1.051619       -28.6160 
 130   2.0000      -1.048958       -28.5436 
 131   2.0000      -1.048404       -28.5285 
 132   2.0000      -1.045592       -28.4520 
 133   2.0000      -1.042851       -28.3774 
 134   2.0000      -1.010687       -27.5022 
 135   2.0000      -1.003654       -27.3108 
 136   2.0000      -0.998676       -27.1754 
 137   2.0000      -0.993037       -27.0219 
 138   2.0000      -0.984855       -26.7993 
 139   2.0000      -0.981694       -26.7132 
 140   2.0000      -0.978700       -26.6318 
 141   2.0000      -0.976536       -26.5729 
 142   2.0000      -0.951836       -25.9008 
 143   2.0000      -0.950965       -25.8771 
 144   2.0000      -0.942720       -25.6527 
 145   2.0000      -0.932572       -25.3766 
 146   2.0000      -0.926263       -25.2049 
 147   2.0000      -0.915070       -24.9003 
 148   2.0000      -0.911116       -24.7927 
 149   2.0000      -0.901983       -24.5442 
 150   2.0000      -0.885533       -24.0966 
 151   2.0000      -0.879944       -23.9445 
 152   2.0000      -0.860585       -23.4177 
 153   2.0000      -0.854512       -23.2524 
 154   2.0000      -0.846905       -23.0455 
 155   2.0000      -0.846451       -23.0331 
 156   2.0000      -0.842736       -22.9320 
 157   2.0000      -0.839047       -22.8316 
 158   2.0000      -0.838883       -22.8272 
 159   2.0000      -0.835206       -22.7271 
 160   2.0000      -0.819029       -22.2869 
 161   2.0000      -0.812839       -22.1185 
 162   2.0000      -0.808891       -22.0110 
 163   2.0000      -0.797951       -21.7133 
 164   2.0000      -0.796629       -21.6774 
 165   2.0000      -0.794801       -21.6276 
 166   2.0000      -0.792479       -21.5645 
 167   2.0000      -0.787541       -21.4301 
 168   2.0000      -0.783121       -21.3098 
 169   2.0000      -0.782308       -21.2877 
 170   2.0000      -0.775583       -21.1047 
 171   2.0000      -0.771017       -20.9804 
 172   2.0000      -0.765162       -20.8211 
 173   2.0000      -0.762867       -20.7587 
 174   2.0000      -0.759387       -20.6640 
 175   2.0000      -0.750975       -20.4351 
 176   2.0000      -0.748425       -20.3657 
 177   2.0000      -0.742777       -20.2120 
 178   2.0000      -0.734939       -19.9987 
 179   2.0000      -0.729463       -19.8497 
 180   2.0000      -0.720528       -19.6066 
 181   2.0000      -0.711250       -19.3541 
 182   2.0000      -0.707590       -19.2545 
 183   2.0000      -0.701599       -19.0915 
 184   2.0000      -0.690877       -18.7997 
 185   2.0000      -0.687907       -18.7189 
 186   2.0000      -0.684720       -18.6322 
 187   2.0000      -0.681695       -18.5499 
 188   2.0000      -0.680473       -18.5166 
 189   2.0000      -0.670526       -18.2459 
 190   2.0000      -0.666922       -18.1479 
 191   2.0000      -0.664128       -18.0718 
 192   2.0000      -0.661619       -18.0036 
 193   2.0000      -0.657440       -17.8898 
 194   2.0000      -0.653939       -17.7946 
 195   2.0000      -0.650399       -17.6983 
 196   2.0000      -0.644280       -17.5317 
 197   2.0000      -0.642884       -17.4938 
 198   2.0000      -0.641315       -17.4511 
 199   2.0000      -0.639380       -17.3984 
 200   2.0000      -0.636859       -17.3298 
 201   2.0000      -0.635381       -17.2896 
 202   2.0000      -0.631957       -17.1964 
 203   2.0000      -0.626390       -17.0449 
 204   2.0000      -0.623978       -16.9793 
 205   2.0000      -0.618272       -16.8240 
 206   2.0000      -0.617487       -16.8027 
 207   2.0000      -0.615415       -16.7463 
 208   2.0000      -0.613512       -16.6945 
 209   2.0000      -0.610896       -16.6233 
 210   2.0000      -0.610438       -16.6108 
 211   2.0000      -0.608756       -16.5651 
 212   2.0000      -0.604415       -16.4470 
 213   2.0000      -0.603452       -16.4208 
 214   2.0000      -0.601374       -16.3642 
 215   2.0000      -0.600567       -16.3422 
 216   2.0000      -0.595606       -16.2072 
 217   2.0000      -0.592860       -16.1325 
 218   2.0000      -0.589315       -16.0361 
 219   2.0000      -0.588511       -16.0142 
 220   2.0000      -0.585687       -15.9374 
 221   2.0000      -0.584292       -15.8994 
 222   2.0000      -0.583389       -15.8748 
 223   2.0000      -0.581195       -15.8151 
 224   2.0000      -0.577960       -15.7271 
 225   2.0000      -0.576474       -15.6867 
 226   2.0000      -0.573215       -15.5980 
 227   2.0000      -0.572131       -15.5685 
 228   2.0000      -0.571688       -15.5564 
 229   2.0000      -0.569752       -15.5037 
 230   2.0000      -0.568755       -15.4766 
 231   2.0000      -0.567726       -15.4486 
 232   2.0000      -0.563942       -15.3456 
 233   2.0000      -0.563164       -15.3245 
 234   2.0000      -0.561436       -15.2774 
 235   2.0000      -0.559880       -15.2351 
 236   2.0000      -0.557690       -15.1755 
 237   2.0000      -0.556918       -15.1545 
 238   2.0000      -0.552949       -15.0465 
 239   2.0000      -0.550386       -14.9768 
 240   2.0000      -0.547034       -14.8855 
 241   2.0000      -0.544268       -14.8103 
 242   2.0000      -0.542119       -14.7518 
 243   2.0000      -0.540905       -14.7188 
 244   2.0000      -0.538722       -14.6594 
 245   2.0000      -0.537671       -14.6308 
 246   2.0000      -0.536139       -14.5891 
 247   2.0000      -0.531033       -14.4501 
 248   2.0000      -0.529423       -14.4063 
 249   2.0000      -0.526800       -14.3350 
 250   2.0000      -0.523774       -14.2526 
 251   2.0000      -0.522921       -14.2294 
 252   2.0000      -0.521475       -14.1901 
 253   2.0000      -0.512541       -13.9469 
 254   2.0000      -0.509497       -13.8641 
 255   2.0000      -0.507858       -13.8195 
 256   2.0000      -0.504468       -13.7273 
 257   2.0000      -0.503217       -13.6932 
 258   2.0000      -0.501299       -13.6410 
 259   2.0000      -0.497545       -13.5389 
 260   2.0000      -0.496599       -13.5131 
 261   2.0000      -0.495791       -13.4912 
 262   2.0000      -0.492976       -13.4145 
 263   2.0000      -0.491459       -13.3733 
 264   2.0000      -0.490036       -13.3346 
 265   2.0000      -0.488723       -13.2988 
 266   2.0000      -0.485698       -13.2165 
 267   2.0000      -0.485456       -13.2099 
 268   2.0000      -0.483270       -13.1505 
 269   2.0000      -0.482038       -13.1169 
 270   2.0000      -0.480331       -13.0705 
 271   2.0000      -0.478800       -13.0288 
 272   2.0000      -0.478028       -13.0078 
 273   2.0000      -0.476547       -12.9675 
 274   2.0000      -0.475690       -12.9442 
 275   2.0000      -0.473704       -12.8901 
 276   2.0000      -0.471115       -12.8197 
 277   2.0000      -0.469248       -12.7689 
[...]

                       ****Iteration   14****
   Time for densities:     2.201
   Using LibInt in JK Direct
   Time for J+K (Direct):  2791.058
   Time for Sigma-Completion:    39.327
   Size of expansion space: 24
   Lowest Energy          :     0.094678900656
   Maximum Energy change  :     0.000001492594 (vector 2)
   Maximum residual norm  :     0.000000180116

      *** CONVERGENCE OF RESIDUAL NORM REACHED ***

Storing the converged CI vectors               ... Y1.cis1

                 *** DAVIDSON DONE ***

Total time for solving the CIS problem: 52346.470sec

-----------------------------
CIS-EXCITED STATES (SINGLETS)
-----------------------------

the weight of the individual excitations are printed if larger than 1.0e-02

STATE  1:  E=   0.094679 au      2.576 eV    20779.6 cm**-1
   302a -> 307a  :     0.021993 (c=  0.14829870)
   304a -> 308a  :     0.138478 (c=  0.37212655)
   305a -> 308a  :     0.030039 (c=  0.17331733)
   306a -> 307a  :     0.675030 (c= -0.82160226)
   306a -> 309a  :     0.020267 (c=  0.14236162)
   306a -> 311a  :     0.018697 (c=  0.13673851)

STATE  2:  E=   0.114608 au      3.119 eV    25153.5 cm**-1
   302a -> 308a  :     0.071568 (c= -0.26752200)
   304a -> 307a  :     0.253792 (c= -0.50377763)
   305a -> 307a  :     0.084936 (c= -0.29143836)
   306a -> 308a  :     0.447222 (c=  0.66874693)
   306a -> 310a  :     0.013333 (c= -0.11546672)
   306a -> 312a  :     0.013113 (c= -0.11451209)

STATE  3:  E=   0.152848 au      4.159 eV    33546.2 cm**-1
   295a -> 308a  :     0.011111 (c= -0.10541095)
   301a -> 308a  :     0.060795 (c=  0.24656588)
   302a -> 307a  :     0.156975 (c=  0.39620030)
   302a -> 309a  :     0.011335 (c=  0.10646648)
   303a -> 307a  :     0.133336 (c=  0.36515226)
   304a -> 308a  :     0.064499 (c=  0.25396669)
   304a -> 310a  :     0.011987 (c=  0.10948678)
   305a -> 308a  :     0.126867 (c=  0.35618444)
   306a -> 307a  :     0.033875 (c=  0.18405106)
   306a -> 309a  :     0.116229 (c= -0.34092393)
   306a -> 311a  :     0.106627 (c= -0.32653722)
   306a -> 313a  :     0.014154 (c= -0.11896900)


----------------------
CIS-EXCITATION SPECTRA
----------------------

Center of mass = ( -5.2173,-18.2727, -0.1832)
Calculating the Dipole integrals                  ... done
Transforming integrals                            ... done
Calculating the Linear Momentum integrals         ... done
Transforming integrals                            ... done
Calculating angular momentum integrals            ... done
Transforming integrals                            ... done

-----------------------------------------------------------------------------
         ABSORPTION SPECTRUM VIA TRANSITION ELECTRIC DIPOLE MOMENTS
-----------------------------------------------------------------------------
State   Energy    Wavelength  fosc         T2        TX        TY        TZ  
        (cm-1)      (nm)                 (au**2)    (au)      (au)      (au) 
-----------------------------------------------------------------------------
   1   20779.6    481.2   1.496563271  23.71009  -0.60770   4.77836  -0.71278
   2   25153.5    397.6   0.719412359   9.41576   2.86176   0.57214  -0.94802
   3   33546.2    298.1   0.732780638   7.19128   0.26371  -2.33082  -1.29963

-----------------------------------------------------------------------------
         ABSORPTION SPECTRUM VIA TRANSITION VELOCITY DIPOLE MOMENTS
-----------------------------------------------------------------------------
State   Energy    Wavelength   fosc        P2         PX        PY        PZ  
        (cm-1)      (nm)                 (au**2)     (au)      (au)      (au) 
-----------------------------------------------------------------------------
   1   20779.6    481.2   0.392157315   0.05569   0.02327  -0.23306   0.02889
   2   25153.5    397.6   0.120633372   0.02074  -0.11828  -0.05502   0.06100
   3   33546.2    298.1   0.031645810   0.00726  -0.01621   0.07927  -0.02661

-------------------------------------------------------------------
                             CD SPECTRUM
-------------------------------------------------------------------
State  Energy     Wavelength     R         MX        MY        MZ   
       (cm-1)       (nm)     (1e40*cgs)   (au)      (au)      (au)  
-------------------------------------------------------------------
   1   20779.6    481.2    1306.25293  -0.36139   0.12656  -2.73066
   2   25153.5    397.6    -1285.71216  -0.84315  -0.36074   0.11376
   3   33546.2    298.1    -164.82362  -0.26266   0.23148  -0.19943

Total run time:    52548.137 sec

           *** ORCA-CIS/TD-DFT FINISHED WITHOUT ERROR ***

-----------------------
CIS/TD-DFT TOTAL ENERGY
-----------------------

    E(SCF)  =  -4838.484044003 Eh
    DE(CIS) =      0.094678901 Eh (Root  1)
    ----------------------------- ---------
    E(tot)  =  -4838.389365103 Eh


-------------------------   --------------------
FINAL SINGLE POINT ENERGY     -4838.389365102636
-------------------------   --------------------

------------------------------------------------------------------------------
                         ORCA SCF GRADIENT CALCULATION
------------------------------------------------------------------------------


------------
CIS GRADIENT
------------

Reference wavefunction             ... RHF
State of interest                  ... 1
Basis dimension                    ... 1493
DFT-XC contribution needed         ... NO
RI-approximation                   ... OFF
CIS-vectors being read from        ... Y1.cis

 => Number of Vectors found: 3
 => Orbital Window: 99...306 -> 307...1492

Reading the CIS file                     ... done
Norm of the CI vector                    ... 1.000000000
Making the CIS (pseudo)densities         ... done
Making operators G(D) and Q(T)           ... done
Transforming the Fock operators          ... done
Making the frozen-core relaxed density   ... done
Constructing the G(H) operator           ... done
Transforming the G(H) operator           ... done
Calculating the CIS Lagrangian           ... done
Solving the Z-vector equations           ... done
Finalizing the relaxed density           ... done
Storing the relaxed density              ... done
Constructing the G(Z) operator           ... done
Transforming the G(Z) operator           ... done
Making the W-matrix                      ... done
Finalizing the W-matrix                  ... done
Transforming the W-matrix                ... done
Nuclear repulsion gradient               ... done
One-Electron gradient                    ... done
Prescreening matrices                    ... done
Two-Electron gradient (4-center)         ... done
                 ---------------------------
                 EXCITED STATE GRADIENT DONE
                 ---------------------------


------------------
CARTESIAN GRADIENT
------------------

   1   C   :    0.022614877   -0.025629161   -0.018510343
   2   O   :   -0.020840462    0.028667886    0.017112800
   3   C   :   -0.011425881    0.003124453    0.005132115
   4   C   :    0.005266350    0.000294958   -0.000114334
   5   C   :   -0.002062183   -0.000893451   -0.000030377
   6   C   :   -0.001736843   -0.000797978   -0.000167864
   7   C   :    0.000526888    0.003572097    0.000553384
   8   C   :   -0.010073823   -0.016653688   -0.007105838
   9   C   :    0.012969653    0.008140589    0.012760516
  10   C   :   -0.002083519   -0.013914057   -0.017252062
  11   C   :    0.054073349    0.010686871    0.022344940
  12   N   :   -0.031259885   -0.009745021   -0.007775588
  13   C   :   -0.041242003    0.028586454    0.030049012
  14   N   :    0.021455976   -0.017430493   -0.017655625
  15   C   :    0.000818328   -0.004014511   -0.003200860
  16   C   :    0.006192234   -0.002988384   -0.002962563
  17   C   :   -0.005327435    0.005986374    0.001348573
  18   S   :    0.001668343   -0.000320460   -0.008806606
  19   C   :    0.001197816   -0.002722905    0.000064276
  20   C   :   -0.002874417    0.000458198    0.000650387
  21   C   :    0.003861888    0.004233644   -0.001181107
  22   S   :    0.004910427   -0.001798172   -0.002169272
  23   C   :   -0.006985794    0.014279745    0.003196724
  24   C   :    0.012486661    0.003187222   -0.003803296
  25   N   :    0.005380447   -0.006885285   -0.003036505
  26   C   :   -0.011850455    0.003992138    0.005411572
  27   C   :    0.002345469   -0.004799762    0.000415217
  28   C   :   -0.000785172    0.006680973   -0.000121801
  29   C   :   -0.001376861   -0.004544694   -0.001418739
  30   C   :   -0.005094029    0.005686005   -0.002212848
  31   C   :    0.006736205   -0.006944721   -0.000312278
  32   C   :   -0.006174317    0.005713598   -0.000865750
  33   C   :    0.004701519   -0.003533583    0.001819047
  34   C   :    0.001595254    0.002811451   -0.000434801
  35   C   :   -0.010374780   -0.028534308    0.001715517
  36   C   :    0.032537030    0.029744414   -0.005463206
  37   N   :   -0.013771272    0.017894812    0.007561268
  38   N   :   -0.032718542    0.000688455    0.003864995
  39   C   :    0.019110774   -0.004882304    0.000633643
  40   C   :    0.001493968    0.006778037   -0.006697305
  41   C   :   -0.001493234   -0.004353470    0.003580866
  42   C   :    0.000698410    0.005321496   -0.000100060
  43   C   :   -0.004067662   -0.007254856    0.004636186
  44   C   :    0.003341042    0.007015123   -0.008214508
  45   C   :   -0.001132141   -0.005461511    0.006786984
  46   C   :   -0.000615001    0.003911228   -0.004618571
  47   N   :   -0.015523330   -0.020293777   -0.001769309
  48   C   :    0.033947126   -0.024311399   -0.015327255
  49   C   :   -0.014013647    0.027175646    0.008182988
  50   C   :    0.002253061   -0.002277346    0.002122203
  51   N   :    0.007361189    0.007374539    0.006211760
  52   C   :   -0.012134196   -0.006140361   -0.007325747
  53   C   :   -0.003723727    0.003332635    0.005829978
  54   C   :    0.003132575   -0.002778395   -0.003008565
  55   C   :   -0.001926218    0.004311861    0.001074055
  56   C   :    0.003726232   -0.005438606   -0.004831128
  57   C   :   -0.004896741    0.002962611    0.007799997
  58   C   :    0.001913896   -0.001438268   -0.007364238
  59   C   :   -0.000132659    0.001759952    0.005766513
  60   C   :    0.011996417    0.001264933    0.001982313
  61   C   :   -0.005892360   -0.016684875   -0.002153099
  62   S   :    0.006307579    0.003277243   -0.000753856
  63   C   :   -0.003163435    0.001453615    0.001704137
  64   C   :   -0.000681937   -0.000490438    0.001092993
  65   S   :    0.004576723   -0.003314604    0.009582957
  66   C   :   -0.007978959   -0.003499533    0.004281773
  67   C   :    0.008195251   -0.004919566   -0.001776302
  68   C   :    0.010307984    0.001696071   -0.000161920
  69   C   :   -0.002765826    0.001834684    0.004055181
  70   C   :    0.010335133   -0.000473672   -0.015882059
  71   C   :    0.001623679    0.009671040    0.016959671
  72   C   :   -0.042981017   -0.032869675   -0.020623435
  73   N   :    0.022428971    0.022489722    0.013539234
  74   C   :    0.043458288    0.003218965   -0.037816294
  75   N   :   -0.028013774    0.003046055    0.017716970
  76   C   :   -0.010232627    0.013258776    0.012613625
  77   C   :    0.001326190   -0.003252100   -0.001188888
  78   C   :   -0.001753182    0.000615878    0.001010648
  79   C   :   -0.002305551    0.000222550    0.000775514
  80   C   :    0.005245434    0.000766620   -0.001615718
  81   C   :   -0.012114458   -0.004824254   -0.001777464
  82   C   :    0.022197292    0.027691141    0.015613587
  83   O   :   -0.019619956   -0.030806476   -0.014945903
  84   H   :    0.000302896   -0.001446814   -0.000649418
  85   H   :   -0.001383474   -0.000936168   -0.000339818
  86   H   :   -0.001493264    0.000248368    0.000420757
  87   H   :   -0.001408068   -0.001379686    0.000089398
  88   H   :   -0.001216118    0.000307208    0.001296310
  89   H   :    0.002369778   -0.003697380   -0.001282434
  90   H   :    0.000977024    0.007386149    0.000495155
  91   H   :    0.001774585   -0.005744772   -0.000272423
  92   H   :    0.001914753   -0.002169668    0.001994982
  93   H   :    0.000300851   -0.002055042    0.001234334
  94   H   :   -0.001912617   -0.001238930   -0.000932409
  95   H   :   -0.000943139    0.002161792    0.000847167
  96   H   :   -0.001680710    0.000880315    0.002882814
  97   H   :    0.000696868    0.001891085    0.003075891
  98   H   :   -0.002822775   -0.002106606   -0.000285445
  99   H   :    0.000723753    0.002042317   -0.002895046
 100   H   :   -0.000986613    0.001781795   -0.000974034
 101   H   :   -0.001587986   -0.000590845    0.001000538
 102   H   :    0.001085402   -0.001865254    0.000485145
 103   H   :    0.001848976   -0.001305621   -0.000324728
 104   H   :   -0.000972373    0.002214613   -0.002421637
 105   H   :   -0.001609008   -0.001315486   -0.003336680
 106   H   :   -0.003445676    0.000159517   -0.000425488
 107   H   :   -0.001943865    0.003832314    0.001400762
 108   H   :   -0.001665542   -0.004044411   -0.001177094
 109   H   :    0.000532553    0.001261026   -0.001680154
 110   H   :   -0.000613109    0.001822949   -0.000053816
 111   H   :    0.003581094    0.000731041    0.002060531
 112   H   :    0.000461002   -0.002581106    0.001612535
 113   H   :   -0.001212897   -0.000112829    0.003294220
 114   H   :   -0.001388393   -0.001374111    0.000826525
 115   H   :    0.001398743    0.001267075   -0.001463637
 116   H   :    0.000447672    0.001410934   -0.001916296
 117   H   :   -0.000374045   -0.001693384    0.001249576
 118   H   :   -0.000767001   -0.001082825    0.001575430
 119   H   :    0.000548761    0.001704012   -0.001414275
 120   H   :    0.000452901    0.001002142   -0.001957709
 121   H   :    0.000791727   -0.003374223    0.000797228
 122   H   :    0.003600555   -0.000984509    0.000722498
 123   H   :    0.001086860   -0.000302513    0.003319721
 124   H   :    0.001453233    0.006911700   -0.000408792
 125   H   :    0.000849151   -0.008297655   -0.000238568
 126   H   :   -0.001192230    0.000847167    0.001880972
 127   H   :    0.001512909    0.001505941    0.001612335
 128   H   :   -0.003052846   -0.001080635   -0.004534798
 129   H   :    0.000517419   -0.002107529   -0.002372462
 130   H   :    0.002339219    0.000994004   -0.002475337
 131   H   :    0.000854086   -0.000280174   -0.001968516
 132   H   :   -0.001245280    0.001785838    0.000470136
 133   H   :   -0.000380162   -0.000908926    0.001916538
 134   H   :    0.000502815   -0.001300577   -0.001352832
 135   H   :    0.000933156    0.001527419   -0.001454309
 136   H   :   -0.000905754    0.000623482    0.001688282
 137   H   :   -0.001006433   -0.002149676    0.001657678
 138   H   :   -0.000821949   -0.002826659   -0.002094752
 139   H   :   -0.003563179   -0.000329821   -0.001802406
 140   H   :   -0.000250814    0.000868531   -0.003574480
 141   H   :    0.002173430    0.003891924    0.000099413
 142   H   :   -0.001045165    0.000178255   -0.001324762
 143   H   :   -0.001647798    0.001043522    0.000637372
 144   H   :   -0.001490956   -0.000536502    0.000038633
 145   H   :   -0.001323736    0.000536602    0.000943858
 146   H   :    0.000224186    0.001436660    0.000776985

Difference to translation invariance:
           :   -0.0000000002    0.0000000004    0.0000000001

Norm of the cartesian gradient     ...    0.2004252486
RMS gradient                       ...    0.0095766888
MAX gradient                       ...    0.0540733488

-------
TIMINGS
-------

Total CIS gradient time            ...    42614.027 sec

Fock matrix formation       ....    3187.470 sec  (  7.5%)
  Coulomb formation         ....    3187.470 sec  (100.0% of F)
Z-vector equation           ....   35830.429 sec  ( 84.1%)
One electron gradient       ....      28.125 sec  (  0.1%)
Prescreening matrices       ....       1.482 sec  (  0.0%)
Two electron gradient       ....    3561.512 sec  (  8.4%)

                            ***************************************
                            *     ORCA property calculations      *
                            ***************************************

                                    ---------------------
                                    Active property flags
                                    ---------------------
   (+) Dipole Moment


------------------------------------------------------------------------------
                       ORCA ELECTRIC PROPERTIES CALCULATION
------------------------------------------------------------------------------

Dipole Moment Calculation                       ... on
Quadrupole Moment Calculation                   ... off
Polarizability Calculation                      ... off
GBWName                                         ... Y1.gbw
Electron density file                           ... Y1.scfp
The origin for moment calculation is the CENTER OF MASS  = (-5.217312, -18.272700 -0.183212)

-------------
DIPOLE MOMENT
-------------
                                X             Y             Z
Electronic contribution:     22.17349     -10.52299     -43.14083
Nuclear contribution   :    -21.01890      10.38159      43.33807
                        -----------------------------------------
Total Dipole Moment    :      1.15459      -0.14141       0.19724
                        -----------------------------------------
Magnitude (a.u.)       :      1.17982
Magnitude (Debye)      :      2.99886



--------------------
Rotational spectrum 
--------------------
 
Rotational constants in cm-1:     0.000710     0.000439     0.000302 
Rotational constants in MHz :    21.278796    13.173103     9.054483 

 Dipole components along the rotational axes: 
x,y,z [a.u.] :     0.332248     1.094586     0.288895 
x,y,z [Debye]:     0.844507     2.782218     0.734313 

 

                        *** CIS RELAXED DENSITY ***

------------------------------------------------------------------------------
                       ORCA ELECTRIC PROPERTIES CALCULATION
------------------------------------------------------------------------------

Dipole Moment Calculation                       ... on
Quadrupole Moment Calculation                   ... off
Polarizability Calculation                      ... off
GBWName                                         ... Y1.gbw
Electron density file                           ... Y1.cisp
The origin for moment calculation is the CENTER OF MASS  = (-5.217312, -18.272700 -0.183212)

-------------
DIPOLE MOMENT
-------------
                                X             Y             Z
Electronic contribution:     20.81463     -10.33643     -42.72559
Nuclear contribution   :    -21.01890      10.38159      43.33807
                        -----------------------------------------
Total Dipole Moment    :     -0.20427       0.04516       0.61248
                        -----------------------------------------
Magnitude (a.u.)       :      0.64722
Magnitude (Debye)      :      1.64511



--------------------
Rotational spectrum 
--------------------
 
Rotational constants in cm-1:     0.000710     0.000439     0.000302 
Rotational constants in MHz :    21.278796    13.173103     9.054483 

 Dipole components along the rotational axes: 
x,y,z [a.u.] :    -0.052756    -0.251680     0.593945 
x,y,z [Debye]:    -0.134094    -0.639720     1.509689 

 

Timings for individual modules:

Sum of individual times         ...   109779.128 sec (=1829.652 min)
GTO integral calculation        ...        2.950 sec (=   0.049 min)   0.0 %
SCF iterations                  ...    14612.436 sec (= 243.541 min)  13.3 %
CIS module                      ...    52548.212 sec (= 875.804 min)  47.9 %
SCF Gradient evaluation         ...    42615.530 sec (= 710.259 min)  38.8 %
                             ****ORCA TERMINATED NORMALLY****
TOTAL RUN TIME: 1 days 6 hours 29 minutes 40 seconds 452 msec
