
                                 *****************
                                 * O   R   C   A *
                                 *****************

           --- An Ab Initio, DFT and Semiempirical electronic structure package ---

                  #######################################################
                  #                        -***-                        #
                  #          Department of theory and spectroscopy      #
                  #               Directorship: Frank Neese             #
                  #        Max Planck Institute fuer Kohlenforschung    #
                  #                Kaiser Wilhelm Platz 1               #
                  #                 D-45470 Muelheim/Ruhr               #
                  #                      Germany                        #
                  #                                                     #
                  #                  All rights reserved                #
                  #                        -***-                        #
                  #######################################################


                         Program Version 4.2.0 -  RELEASE  -


 With contributions from (in alphabetic order):
   Daniel Aravena         : Magnetic Suceptibility
   Michael Atanasov       : Ab Initio Ligand Field Theory (pilot matlab implementation)
   Alexander A. Auer      : GIAO ZORA, VPT2
   Ute Becker             : Parallelization
   Giovanni Bistoni       : ED, misc. LED, open-shell LED, HFLED
   Martin Brehm           : Molecular dynamics
   Dmytro Bykov           : SCF Hessian
   Vijay G. Chilkuri      : MRCI spin determinant printing, contributions to CSF-ICE
   Dipayan Datta          : RHF DLPNO-CCSD density
   Achintya Kumar Dutta   : EOM-CC, STEOM-CC
   Dmitry Ganyushin       : Spin-Orbit,Spin-Spin,Magnetic field MRCI
   Miquel Garcia          : C-PCM Hessian, Gaussian charge scheme
   Yang Guo               : DLPNO-NEVPT2, CIM, IAO-localization
   Andreas Hansen         : Spin unrestricted coupled pair/coupled cluster methods
   Benjamin Helmich-Paris : CASSCF linear response (MC-RPA)
   Lee Huntington         : MR-EOM, pCC
   Robert Izsak           : Overlap fitted RIJCOSX, COSX-SCS-MP3, EOM
   Christian Kollmar      : KDIIS, OOCD, Brueckner-CCSD(T), CCSD density
   Simone Kossmann        : Meta GGA functionals, TD-DFT gradient, OOMP2, MP2 Hessian
   Martin Krupicka        : AUTO-CI
   Lucas Lang             : DCDCAS
   Dagmar Lenk            : GEPOL surface, SMD
   Dimitrios Liakos       : Extrapolation schemes; Compound Job, initial MDCI parallelization
   Dimitrios Manganas     : Further ROCIS development; embedding schemes
   Dimitrios Pantazis     : SARC Basis sets
   Taras Petrenko         : DFT Hessian,TD-DFT gradient, ASA, ECA, R-Raman, ABS, FL, XAS/XES, NRVS
   Peter Pinski           : DLPNO-MP2, DLPNO-MP2 Gradient
   Christoph Reimann      : Effective Core Potentials
   Marius Retegan         : Local ZFS, SOC
   Christoph Riplinger    : Optimizer, TS searches, QM/MM, DLPNO-CCSD(T), (RO)-DLPNO pert. Triples
   Tobias Risthaus        : Range-separated hybrids, TD-DFT gradient, RPA, STAB
   Michael Roemelt        : Original ROCIS implementation
   Masaaki Saitow         : Open-shell DLPNO-CCSD energy and density
   Barbara Sandhoefer     : DKH picture change effects
   Avijit Sen             : IP-ROCIS
   Kantharuban Sivalingam : CASSCF convergence, NEVPT2, FIC-MRCI
   Bernardo de Souza      : ESD, SOC TD-DFT
   Georgi Stoychev        : AutoAux, RI-MP2 NMR
   Willem Van den Heuvel  : Paramagnetic NMR
   Boris Wezisla          : Elementary symmetry handling
   Frank Wennmohs         : Technical directorship


 We gratefully acknowledge several colleagues who have allowed us to
 interface, adapt or use parts of their codes:
   Stefan Grimme, W. Hujo, H. Kruse,             : VdW corrections, initial TS optimization,
                  C. Bannwarth                     DFT functionals, gCP, sTDA/sTD-DF
   Ed Valeev, F. Pavosevic, A. Kumar             : LibInt (2-el integral package), F12 methods
   Garnet Chan, S. Sharma, J. Yang, R. Olivares  : DMRG
   Ulf Ekstrom                                   : XCFun DFT Library
   Mihaly Kallay                                 : mrcc  (arbitrary order and MRCC methods)
   Andreas Klamt, Michael Diedenhofen            : otool_cosmo (COSMO solvation model)
   Jiri Pittner, Ondrej Demel                    : Mk-CCSD
   Frank Weinhold                                : gennbo (NPA and NBO analysis)
   Christopher J. Cramer and Donald G. Truhlar   : smd solvation model
   Lars Goerigk                                  : TD-DFT with DH, B97 family of functionals
   V. Asgeirsson, H. Jonsson                     : NEB implementation
   FAccTs GmbH                                   : IRC, NEB, NEB-TS, Multilevel, MM, QM/MM, CI optimization
   S Lehtola, MJT Oliveira, MAL Marques          : LibXC Library


 Your calculation uses the libint2 library for the computation of 2-el integrals
 For citations please refer to: http://libint.valeyev.net

 Your ORCA version has been built with support for libXC version: 4.2.3
 For citations please refer to: https://tddft.org/programs/libxc/

 This ORCA versions uses:
   CBLAS   interface :  Fast vector & matrix operations
   LAPACKE interface :  Fast linear algebra routines
   SCALAPACK package :  Parallel linear algebra routines


----- Orbital basis set information -----
Your calculation utilizes the basis: def2-SVP
   F. Weigend and R. Ahlrichs, Phys. Chem. Chem. Phys. 7, 3297 (2005).

================================================================================
                                        WARNINGS
                       Please study these warnings very carefully!
================================================================================

INFO   : Checking CIS options ...

WARNING: CIS/ROCIS methods need fully converged wavefunctions
  ===> : Setting SCFConvForced true
         You can overwrite this default with %scf ConvForced false 


INFO   : the flag for use of LIBINT has been found!

================================================================================
                                       INPUT FILE
================================================================================
NAME = Y15.inp
|  1> # ORCA input file
|  2> # Y15.out: Geometry 34
|  3> ! Engrad Keepdens
|  4> %maxcore 1000
|  5> %tddft
|  6>   nroots 3 
|  7>   # nroots is the number of states to be computed
|  8>   Iroot 1
|  9>   end
| 10> * xyz 0 1
| 11>    C        6.50516         4.64265        -0.80217
| 12>    O        7.24309         3.73449        -1.14794
| 13>    C        6.63929         6.06734        -1.19586
| 14>    C        7.61541         6.64225        -1.99343
| 15>    C        7.55750         8.02116        -2.22366
| 16>   Cl        8.77433         8.76595        -3.20340
| 17>    C        6.51537         8.78472        -1.65479
| 18>   Cl        6.42279        10.49065        -1.94003
| 19>    C        5.53438         8.19027        -0.84900
| 20>    C        5.59695         6.81504        -0.61412
| 21>    C        4.73801         5.90186         0.18353
| 22>    C        3.61689         6.30086         0.89679
| 23>    C        2.79674         5.41120         1.65901
| 24>    N        2.11018         4.71151         2.28555
| 25>    C        3.16779         7.65706         0.94724
| 26>    N        2.77823         8.75064         1.00938
| 27>    C        5.31171         4.56286         0.06860
| 28>    C        4.82398         3.41614         0.66993
| 29>    C        5.25717         2.07732         0.74575
| 30>    S        6.75274         1.38922         0.06283
| 31>    C        6.38285        -0.14574         0.77014
| 32>    C        5.14860        -0.13549         1.46126
| 33>    C        4.51125         1.10892         1.47592
| 34>    C        3.19512         1.36233         2.15824
| 35>    C        1.99664         1.33727         1.20061
| 36>    S        4.74135        -1.69201         2.19556
| 37>    C        6.24872        -2.33739         1.59265
| 38>    C        7.00805        -1.40502         0.86994
| 39>    N        8.19680        -1.97689         0.45221
| 40>    C        8.87030        -1.39514        -0.71056
| 41>    C        8.22181        -1.76728        -2.04010
| 42>    C        8.21652        -3.29927         0.92456
| 43>    C        6.98211        -3.54115         1.62251
| 44>    C        6.71145        -4.82554         2.17655
| 45>    N        5.65010        -5.29708         2.84993
| 46>    N        5.98138        -6.55872         3.09626
| 47>    C        5.05301        -7.48067         3.73506
| 48>    C        4.23099        -8.26355         2.71788
| 49>    N        7.15681        -6.97025         2.63679
| 50>    C        7.65613        -5.87559         2.04138
| 51>    C        8.91465        -5.63179         1.41922
| 52>    C        9.22016        -4.32693         0.89258
| 53>    N       10.55794        -4.33681         0.47808
| 54>    C       11.46563        -3.24645         0.13357
| 55>    C       11.78458        -3.17044        -1.35857
| 56>    C       11.06463        -5.60036         0.70854
| 57>    C       10.07523        -6.41727         1.27745
| 58>    S       10.63841        -8.02263         1.66909
| 59>    C       12.24628        -7.57516         1.08641
| 60>    C       12.30930        -6.25307         0.59386
| 61>    S       13.88603        -5.89507         0.00068
| 62>    C       14.48408        -7.51960         0.46673
| 63>    C       13.44536        -8.30952         1.02212
| 64>    C       13.46973        -9.76590         1.38397
| 65>    C       13.83824       -10.68529         0.21662
| 66>    C       15.84319        -7.71808         0.10496
| 67>    C       16.83113        -8.58202         0.54375
| 68>    C       18.15430        -8.75055        -0.07026
| 69>    C       18.62664        -8.19857        -1.24927
| 70>    C       19.95480        -8.41946        -1.73192
| 71>    N       21.03036        -8.57865        -2.14317
| 72>    C       17.85092        -7.35329        -2.10319
| 73>    N       17.24935        -6.66286        -2.81956
| 74>    C       18.93707        -9.66322         0.80112
| 75>    C       20.23852       -10.16612         0.70972
| 76>    C       20.69653       -11.03916         1.70640
| 77>   Cl       22.31133       -11.65489         1.59234
| 78>    C       19.86916       -11.41477         2.78696
| 79>   Cl       20.43442       -12.50915         4.00113
| 80>    C       18.57545       -10.89581         2.88850
| 81>    C       18.13660       -10.03423         1.89667
| 82>    C       16.82765        -9.34103         1.82210
| 83>    O       15.99066        -9.33762         2.70718
| 84>    H        8.41093         6.03636        -2.42923
| 85>    H        4.75793         8.82600        -0.43192
| 86>    H        3.90535         3.55182         1.23386
| 87>    H        3.21217         2.33001         2.68151
| 88>    H        3.05976         0.59699         2.93859
| 89>    H        2.08774         2.11975         0.43224
| 90>    H        1.06579         1.52110         1.75727
| 91>    H        1.91655         0.36710         0.68625
| 92>    H        9.91841        -1.68523        -0.70954
| 93>    H        8.85970        -0.30422        -0.56766
| 94>    H        8.22011        -2.85862        -2.18515
| 95>    H        8.78192        -1.30648        -2.86814
| 96>    H        7.18375        -1.40663        -2.09056
| 97>    H        4.41234        -6.86981         4.38514
| 98>    H        5.65666        -8.15248         4.36136
| 99>    H        3.63719        -7.58154         2.09001
|100>    H        3.54276        -8.94636         3.23977
|101>    H        4.88742        -8.85950         2.06580
|102>    H       12.39461        -3.41023         0.70157
|103>    H       11.04539        -2.31408         0.52737
|104>    H       12.27675        -4.09335        -1.69920
|105>    H       12.46812        -2.33236        -1.56316
|106>    H       10.87778        -3.03440        -1.96491
|107>    H       12.47095       -10.03960         1.75931
|108>    H       14.17270        -9.91376         2.21503
|109>    H       13.14993       -10.54752        -0.63134
|110>    H       13.78314       -11.73720         0.53734
|111>    H       14.85866       -10.49262        -0.14743
|112>    H       16.16218        -7.01283        -0.66559
|113>    H       20.91840        -9.90667        -0.09753
|114>    H       17.92738       -11.16479         3.72348
|115> *
|116> 
|117>                          ****END OF INPUT****
================================================================================

                     *******************************
                     * Energy+Gradient Calculation *
                     *******************************

---------------------------------
CARTESIAN COORDINATES (ANGSTROEM)
---------------------------------
  C      6.505160    4.642650   -0.802170
  O      7.243090    3.734490   -1.147940
  C      6.639290    6.067340   -1.195860
  C      7.615410    6.642250   -1.993430
  C      7.557500    8.021160   -2.223660
  Cl     8.774330    8.765950   -3.203400
  C      6.515370    8.784720   -1.654790
  Cl     6.422790   10.490650   -1.940030
  C      5.534380    8.190270   -0.849000
  C      5.596950    6.815040   -0.614120
  C      4.738010    5.901860    0.183530
  C      3.616890    6.300860    0.896790
  C      2.796740    5.411200    1.659010
  N      2.110180    4.711510    2.285550
  C      3.167790    7.657060    0.947240
  N      2.778230    8.750640    1.009380
  C      5.311710    4.562860    0.068600
  C      4.823980    3.416140    0.669930
  C      5.257170    2.077320    0.745750
  S      6.752740    1.389220    0.062830
  C      6.382850   -0.145740    0.770140
  C      5.148600   -0.135490    1.461260
  C      4.511250    1.108920    1.475920
  C      3.195120    1.362330    2.158240
  C      1.996640    1.337270    1.200610
  S      4.741350   -1.692010    2.195560
  C      6.248720   -2.337390    1.592650
  C      7.008050   -1.405020    0.869940
  N      8.196800   -1.976890    0.452210
  C      8.870300   -1.395140   -0.710560
  C      8.221810   -1.767280   -2.040100
  C      8.216520   -3.299270    0.924560
  C      6.982110   -3.541150    1.622510
  C      6.711450   -4.825540    2.176550
  N      5.650100   -5.297080    2.849930
  N      5.981380   -6.558720    3.096260
  C      5.053010   -7.480670    3.735060
  C      4.230990   -8.263550    2.717880
  N      7.156810   -6.970250    2.636790
  C      7.656130   -5.875590    2.041380
  C      8.914650   -5.631790    1.419220
  C      9.220160   -4.326930    0.892580
  N     10.557940   -4.336810    0.478080
  C     11.465630   -3.246450    0.133570
  C     11.784580   -3.170440   -1.358570
  C     11.064630   -5.600360    0.708540
  C     10.075230   -6.417270    1.277450
  S     10.638410   -8.022630    1.669090
  C     12.246280   -7.575160    1.086410
  C     12.309300   -6.253070    0.593860
  S     13.886030   -5.895070    0.000680
  C     14.484080   -7.519600    0.466730
  C     13.445360   -8.309520    1.022120
  C     13.469730   -9.765900    1.383970
  C     13.838240  -10.685290    0.216620
  C     15.843190   -7.718080    0.104960
  C     16.831130   -8.582020    0.543750
  C     18.154300   -8.750550   -0.070260
  C     18.626640   -8.198570   -1.249270
  C     19.954800   -8.419460   -1.731920
  N     21.030360   -8.578650   -2.143170
  C     17.850920   -7.353290   -2.103190
  N     17.249350   -6.662860   -2.819560
  C     18.937070   -9.663220    0.801120
  C     20.238520  -10.166120    0.709720
  C     20.696530  -11.039160    1.706400
  Cl    22.311330  -11.654890    1.592340
  C     19.869160  -11.414770    2.786960
  Cl    20.434420  -12.509150    4.001130
  C     18.575450  -10.895810    2.888500
  C     18.136600  -10.034230    1.896670
  C     16.827650   -9.341030    1.822100
  O     15.990660   -9.337620    2.707180
  H      8.410930    6.036360   -2.429230
  H      4.757930    8.826000   -0.431920
  H      3.905350    3.551820    1.233860
  H      3.212170    2.330010    2.681510
  H      3.059760    0.596990    2.938590
  H      2.087740    2.119750    0.432240
  H      1.065790    1.521100    1.757270
  H      1.916550    0.367100    0.686250
  H      9.918410   -1.685230   -0.709540
  H      8.859700   -0.304220   -0.567660
  H      8.220110   -2.858620   -2.185150
  H      8.781920   -1.306480   -2.868140
  H      7.183750   -1.406630   -2.090560
  H      4.412340   -6.869810    4.385140
  H      5.656660   -8.152480    4.361360
  H      3.637190   -7.581540    2.090010
  H      3.542760   -8.946360    3.239770
  H      4.887420   -8.859500    2.065800
  H     12.394610   -3.410230    0.701570
  H     11.045390   -2.314080    0.527370
  H     12.276750   -4.093350   -1.699200
  H     12.468120   -2.332360   -1.563160
  H     10.877780   -3.034400   -1.964910
  H     12.470950  -10.039600    1.759310
  H     14.172700   -9.913760    2.215030
  H     13.149930  -10.547520   -0.631340
  H     13.783140  -11.737200    0.537340
  H     14.858660  -10.492620   -0.147430
  H     16.162180   -7.012830   -0.665590
  H     20.918400   -9.906670   -0.097530
  H     17.927380  -11.164790    3.723480

----------------------------
CARTESIAN COORDINATES (A.U.)
----------------------------
  NO LB      ZA    FRAG     MASS         X           Y           Z
   0 C     6.0000    0    12.011   12.292971    8.773337   -1.515882
   1 O     8.0000    0    15.999   13.687456    7.057163   -2.169292
   2 C     6.0000    0    12.011   12.546440   11.465611   -2.259848
   3 C     6.0000    0    12.011   14.391039   12.552033   -3.767037
   4 C     6.0000    0    12.011   14.281605   15.157796   -4.202108
   5 Cl   17.0000    0    35.453   16.581081   16.565245   -6.053549
   6 C     6.0000    0    12.011   12.312265   16.600715   -3.127100
   7 Cl   17.0000    0    35.453   12.137314   19.824455   -3.666125
   8 C     6.0000    0    12.011   10.458463   15.477367   -1.604377
   9 C     6.0000    0    12.011   10.576703   12.878559   -1.160519
  10 C     6.0000    0    12.011    8.953541   11.152899    0.346821
  11 C     6.0000    0    12.011    6.834932   11.906900    1.694687
  12 C     6.0000    0    12.011    5.285073   10.225686    3.135075
  13 N     7.0000    0    14.007    3.987662    8.903464    4.319064
  14 C     6.0000    0    12.011    5.986256   14.469746    1.790024
  15 N     7.0000    0    14.007    5.250094   16.536313    1.907452
  16 C     6.0000    0    12.011   10.037677    8.622556    0.129635
  17 C     6.0000    0    12.011    9.116001    6.455569    1.265984
  18 C     6.0000    0    12.011    9.934612    3.925566    1.409263
  19 S    16.0000    0    32.060   12.760829    2.625245    0.118731
  20 C     6.0000    0    12.011   12.061838   -0.275409    1.455354
  21 C     6.0000    0    12.011    9.729444   -0.256039    2.761381
  22 C     6.0000    0    12.011    8.525027    2.095555    2.789085
  23 C     6.0000    0    12.011    6.037902    2.574431    4.078483
  24 C     6.0000    0    12.011    3.773103    2.527074    2.268824
  25 S    16.0000    0    32.060    8.959853   -3.197436    4.149007
  26 C     6.0000    0    12.011   11.808369   -4.417027    3.009672
  27 C     6.0000    0    12.011   13.243295   -2.655103    1.643948
  28 N     7.0000    0    14.007   15.489707   -3.735781    0.854553
  29 C     6.0000    0    12.011   16.762438   -2.636433   -1.342764
  30 C     6.0000    0    12.011   15.536969   -3.339675   -3.855230
  31 C     6.0000    0    12.011   15.526973   -6.234717    1.747165
  32 C     6.0000    0    12.011   13.194276   -6.691804    3.066100
  33 C     6.0000    0    12.011   12.682802   -9.118949    4.113083
  34 N     7.0000    0    14.007   10.677142  -10.010031    5.385587
  35 N     7.0000    0    14.007   11.303170  -12.394185    5.851083
  36 C     6.0000    0    12.011    9.548805  -14.136418    7.058240
  37 C     6.0000    0    12.011    7.995412  -15.615846    5.136049
  38 N     7.0000    0    14.007   13.524411  -13.171864    4.982811
  39 C     6.0000    0    12.011   14.467989  -11.103256    3.857649
  40 C     6.0000    0    12.011   16.846247  -10.642541    2.681937
  41 C     6.0000    0    12.011   17.423577   -8.176713    1.686732
  42 N     7.0000    0    14.007   19.951615   -8.195383    0.903440
  43 C     6.0000    0    12.011   21.666901   -6.134901    0.252411
  44 C     6.0000    0    12.011   22.269629   -5.991263   -2.567325
  45 C     6.0000    0    12.011   20.909120  -10.583147    1.338947
  46 C     6.0000    0    12.011   19.039425  -12.126883    2.414031
  47 S    16.0000    0    32.060   20.103681  -15.160574    3.154123
  48 C     6.0000    0    12.011   23.142115  -14.314978    2.053017
  49 C     6.0000    0    12.011   23.261206  -11.816590    1.122233
  50 S    16.0000    0    32.060   26.240794  -11.140068    0.001285
  51 C     6.0000    0    12.011   27.370945  -14.209985    0.881992
  52 C     6.0000    0    12.011   25.408048  -15.702717    1.931527
  53 C     6.0000    0    12.011   25.454101  -18.454876    2.615324
  54 C     6.0000    0    12.011   26.150484  -20.192272    0.409352
  55 C     6.0000    0    12.011   29.939290  -14.585057    0.198346
  56 C     6.0000    0    12.011   31.806226  -16.217667    1.027539
  57 C     6.0000    0    12.011   34.306655  -16.536143   -0.132772
  58 C     6.0000    0    12.011   35.199248  -15.493052   -2.360778
  59 C     6.0000    0    12.011   37.709107  -15.910474   -3.272854
  60 N     7.0000    0    14.007   39.741621  -16.211299   -4.050004
  61 C     6.0000    0    12.011   33.733350  -13.895704   -3.974453
  62 N     7.0000    0    14.007   32.596547  -12.590981   -5.328196
  63 C     6.0000    0    12.011   35.785876  -18.260839    1.513897
  64 C     6.0000    0    12.011   38.245260  -19.211183    1.341176
  65 C     6.0000    0    12.011   39.110774  -20.860989    3.224629
  66 Cl   17.0000    0    35.453   42.162303  -22.024550    3.009087
  67 C     6.0000    0    12.011   37.547271  -21.570789    5.266591
  68 Cl   17.0000    0    35.453   38.615458  -23.638868    7.561040
  69 C     6.0000    0    12.011   35.102513  -20.590097    5.458474
  70 C     6.0000    0    12.011   34.273207  -18.961947    3.584187
  71 C     6.0000    0    12.011   31.799650  -17.651989    3.443270
  72 O     8.0000    0    15.999   30.217968  -17.645545    5.115829
  73 H     1.0000    0     1.008   15.894354   11.407067   -4.590579
  74 H     1.0000    0     1.008    8.991185   16.678723   -0.816211
  75 H     1.0000    0     1.008    7.380042    6.711967    2.331657
  76 H     1.0000    0     1.008    6.070122    4.403081    5.067320
  77 H     1.0000    0     1.008    5.782108    1.128148    5.553130
  78 H     1.0000    0     1.008    3.945257    4.005747    0.816815
  79 H     1.0000    0     1.008    2.014051    2.874462    3.320759
  80 H     1.0000    0     1.008    3.621755    0.693718    1.296825
  81 H     1.0000    0     1.008   18.743079   -3.184623   -1.340836
  82 H     1.0000    0     1.008   16.742407   -0.574892   -1.072722
  83 H     1.0000    0     1.008   15.533757   -5.402009   -4.129335
  84 H     1.0000    0     1.008   16.595424   -2.468889   -5.419999
  85 H     1.0000    0     1.008   13.575320   -2.658145   -3.950586
  86 H     1.0000    0     1.008    8.338114  -12.982059    8.286714
  87 H     1.0000    0     1.008   10.689538  -15.405955    8.241776
  88 H     1.0000    0     1.008    6.873293  -14.327034    3.949547
  89 H     1.0000    0     1.008    6.694846  -16.906170    6.122278
  90 H     1.0000    0     1.008    9.235885  -16.742029    3.903796
  91 H     1.0000    0     1.008   23.422418   -6.444401    1.325775
  92 H     1.0000    0     1.008   20.872762   -4.372977    0.996585
  93 H     1.0000    0     1.008   23.199695   -7.735310   -3.211023
  94 H     1.0000    0     1.008   23.561332   -4.407522   -2.953944
  95 H     1.0000    0     1.008   20.556025   -5.734185   -3.713142
  96 H     1.0000    0     1.008   23.566680  -18.972094    3.324614
  97 H     1.0000    0     1.008   26.782522  -18.734291    4.185800
  98 H     1.0000    0     1.008   24.849766  -19.931924   -1.193060
  99 H     1.0000    0     1.008   26.046360  -22.180094    1.015425
 100 H     1.0000    0     1.008   28.078798  -19.828178   -0.278602
 101 H     1.0000    0     1.008   30.542094  -13.252328   -1.257783
 102 H     1.0000    0     1.008   39.530047  -18.720893   -0.184305
 103 H     1.0000    0     1.008   33.877838  -21.098395    7.036357

--------------------------------
INTERNAL COORDINATES (ANGSTROEM)
--------------------------------
 C      0   0   0     0.000000000000     0.00000000     0.00000000
 O      1   0   0     1.220185298797     0.00000000     0.00000000
 C      1   2   0     1.484157764222   125.77714799     0.00000000
 C      3   1   2     1.385442047651   127.93138757   358.76697283
 C      4   3   1     1.399196987239   118.32765032   180.78225289
 Cl     5   4   3     1.730687106498   119.21924401   179.38582132
 C      5   4   3     1.411620305677   119.82235726   359.54262399
 Cl     7   5   4     1.732088357706   120.38688974   180.46262887
 C      7   5   4     1.401788039149   121.25900997     0.50568105
 C      9   7   5     1.396546158278   118.87611552   359.82608453
 C     10   9   7     1.485907520171   132.03352317   179.47263582
 C     11  10   9     1.387389953113   124.49604055     0.18375491
 C     12  11  10     1.430077014185   123.95448185   179.88114333
 N     13  12  11     1.163392926444   178.44616945   183.44753875
 C     12  11  10     1.429515460742   123.01456075   359.56623104
 N     15  12  11     1.162555628604   178.34686941   182.88320798
 C     11  10   9     1.461253432810   107.09597350   180.71795964
 C     17  11  10     1.383634735109   125.93446127   179.43386546
 C     18  17  11     1.409198793961   134.62044102   184.13706936
 S     19  18  17     1.782299346715   127.16590820     2.44672265
 C     20  19  18     1.730089087244    90.37113294   176.36103269
 C     21  20  19     1.414611246739   112.32422124     1.75816137
 C     22  21  20     1.398208205597   114.16001773   357.71152641
 C     23  22  21     1.503986498410   123.61520304   180.47763962
 C     24  23  22     1.534287303897   113.43131560   261.35593525
 S     22  21  20     1.768559742531   113.41470055   179.96914571
 C     26  22  21     1.747048977390    89.03481895     0.98345981
 C     27  26  22     1.402927514129   113.53212692   359.85437304
 N     28  27  26     1.383712474577   110.23293751   178.63079661
 C     29  28  27     1.464264110535   118.07867856   156.51556411
 C     30  29  28     1.525353752839   113.55832050   283.54334744
 C     29  28  27     1.404347629791   107.43883738   359.34631906
 C     27  26  22     1.409890296903   139.19214803   178.45241885
 C     33  27  26     1.424736757896   132.77405845     2.87030319
 N     34  33  27     1.342480695764   131.44421014     0.34225010
 N     35  34  33     1.327463896647   103.27400089   179.76450727
 C     36  35  34     1.455997286879   121.60775139   184.59785980
 C     37  36  35     1.524228699113   112.10546287    92.36111125
 N     36  35  34     1.327443146316   116.83321938   359.32097590
 C     39  36  35     1.342428413771   103.30182631     0.60911290
 C     40  39  36     1.424918978749   131.42919881   176.04836072
 C     32  29  28     1.436802368317   132.51761904   185.55642520
 N     42  32  29     1.400558171873   132.75351289     5.98746815
 C     43  42  32     1.459956576683   131.17982517    11.47822523
 C     44  43  42     1.527739638224   113.41766773   250.86062603
 C     43  42  32     1.380726319804   107.91356201   178.26933023
 C     46  43  42     1.403535854975   109.97477105   359.64732158
 S     47  46  43     1.745776140174   113.49983683   182.39240721
 C     48  47  46     1.767764497946    89.23821108     1.11447836
 C     46  43  42     1.410101150769   137.21814864   184.00632242
 S     50  46  43     1.722238080319   137.72272102   354.47266411
 C     51  50  46     1.792753225042    91.57625087   179.26141978
 C     49  48  47     1.407554851542   131.13433509   179.54574768
 C     53  49  48     1.500857096395   120.60301791     5.55767279
 C     54  53  49     1.530942067715   113.75422149   116.22569692
 C     52  51  50     1.420370316291   112.31003096   178.05793227
 C     56  52  51     1.383818785571   133.59925328   158.77758576
 C     57  56  52     1.468396911567   125.61802879   172.13462531
 C     58  57  56     1.384865183366   128.14021229   353.27570204
 C     59  58  57     1.430298010975   122.85046590   178.73034836
 N     60  59  58     1.162453152690   178.61552829   191.43282781
 C     59  58  57     1.430181514074   123.97948568   358.93739345
 N     62  59  58     1.162654732369   178.19169383   178.85313434
 C     58  57  56     1.484923737503   107.46798246   174.09713549
 C     64  58  57     1.398225472697   132.32708851   180.01539964
 C     65  64  58     1.401906924193   118.79024430   180.67211145
 Cl    66  65  64     1.731967712315   118.63168653   180.22946636
 C     66  65  64     1.411819359054   121.22206599     0.13258423
 Cl    68  66  65     1.729565043848   120.93780593   179.16653863
 C     68  66  65     1.397610610041   119.95251625   358.89673821
 C     70  68  66     1.385148428075   118.17816095     1.05974835
 C     71  70  68     1.483049907252   127.32779374   181.87860762
 O     72  71  70     1.218166858275   124.83434405     7.44171738
 H      4   3   1     1.090814559171   120.88573998     0.62574702
 H      9   7   5     1.086730399777   118.19962721   179.66152742
 H     18  17  11     1.086419432908   114.84371217     2.92116268
 H     24  23  22     1.100230329431   110.51176140   138.78339188
 H     24  23  22     1.101369042465   108.17413557    23.11922502
 H     25  24  23     1.100439283786   111.07121894   298.79276845
 H     25  24  23     1.100066155738   110.02371503   179.59737618
 H     25  24  23     1.101004290001   111.27235854    58.94864387
 H     30  29  28     1.087514515122   109.66800971   159.75800433
 H     30  29  28     1.100290514546   106.63958879    45.54613535
 H     31  30  29     1.100938412492   110.93674603   300.36207021
 H     31  30  29     1.100777040867   109.70712010   180.54964728
 H     31  30  29     1.100083268530   111.17202087    61.20685576
 H     37  36  35     1.098276829811   106.22747017   330.37329201
 H     37  36  35     1.099078563434   106.66990687   214.37210110
 H     38  37  36     1.100889102953   110.68930961   299.85986924
 H     38  37  36     1.101026430700   109.83504247   180.06650330
 H     38  37  36     1.100574883322   110.60063224    60.29280520
 H     44  43  42     1.101113858236   106.96104144   129.93930095
 H     44  43  42     1.095898678939   108.19165015    16.88982829
 H     45  44  43     1.100010442632   110.73900151   299.00324611
 H     45  44  43     1.100664383952   110.43128903   179.84144382
 H     45  44  43     1.099291279507   111.87990737    59.01468638
 H     54  53  49     1.101523169979   107.97128368   354.86129738
 H     54  53  49     1.098494480687   108.86891104   239.26974750
 H     55  54  53     1.100812150460   111.20416101   302.86080621
 H     55  54  53     1.101095807139   109.85068828   183.08602039
 H     55  54  53     1.100414061978   111.73545673    63.16711687
 H     56  52  51     1.092190223862   111.64963745   340.61975805
 H     65  64  58     1.086831946255   123.02166830     1.08035244
 H     70  68  66     1.090658776016   120.93546082   180.81348978

---------------------------
INTERNAL COORDINATES (A.U.)
---------------------------
 C      0   0   0     0.000000000000     0.00000000     0.00000000
 O      1   0   0     2.305816047363     0.00000000     0.00000000
 C      1   2   0     2.804651713912   125.77714799     0.00000000
 C      3   1   2     2.618106044480   127.93138757   358.76697283
 C      4   3   1     2.644099113290   118.32765032   180.78225289
 Cl     5   4   3     3.270524654791   119.21924401   179.38582132
 C      5   4   3     2.667575782812   119.82235726   359.54262399
 Cl     7   5   4     3.273172635817   120.38688974   180.46262887
 C      7   5   4     2.648995491797   121.25900997     0.50568105
 C      9   7   5     2.639089772525   118.87611552   359.82608453
 C     10   9   7     2.807958273457   132.03352317   179.47263582
 C     11  10   9     2.621787052338   124.49604055     0.18375491
 C     12  11  10     2.702453907225   123.95448185   179.88114333
 N     13  12  11     2.198494017120   178.44616945   183.44753875
 C     12  11  10     2.701392725008   123.01456075   359.56623104
 N     15  12  11     2.196911753511   178.34686941   182.88320798
 C     11  10   9     2.761368800264   107.09597350   180.71795964
 C     17  11  10     2.614690718737   125.93446127   179.43386546
 C     18  17  11     2.662999788838   134.62044102   184.13706936
 S     19  18  17     3.368057653958   127.16590820     2.44672265
 C     20  19  18     3.269394562177    90.37113294   176.36103269
 C     21  20  19     2.673227842301   112.32422124     1.75816137
 C     22  21  20     2.642230586781   114.16001773   357.71152641
 C     23  22  21     2.842122591110   123.61520304   180.47763962
 C     24  23  22     2.899382815118   113.43131560   261.35593525
 S     22  21  20     3.342093564861   113.41470055   179.96914571
 C     26  22  21     3.301444109815    89.03481895     0.98345981
 C     27  26  22     2.651148787447   113.53212692   359.85437304
 N     28  27  26     2.614837625041   110.23293751   178.63079661
 C     29  28  27     2.767058156640   118.07867856   156.51556411
 C     30  29  28     2.882500850215   113.55832050   283.54334744
 C     29  28  27     2.653832417127   107.43883738   359.34631906
 C     27  26  22     2.664306540019   139.19214803   178.45241885
 C     33  27  26     2.692362285354   132.77405845     2.87030319
 N     34  33  27     2.536920855071   131.44421014     0.34225010
 N     35  34  33     2.508543217330   103.27400089   179.76450727
 C     36  35  34     2.751436123934   121.60775139   184.59785980
 C     37  36  35     2.880374806787   112.10546287    92.36111125
 N     36  35  34     2.508504004887   116.83321938   359.32097590
 C     39  36  35     2.536822056422   103.30182631     0.60911290
 C     40  39  36     2.692706632863   131.42919881   176.04836072
 C     32  29  28     2.715162984688   132.51761904   185.55642520
 N     42  32  29     2.646671379465   132.75351289     5.98746815
 C     43  42  32     2.758918097348   131.17982517    11.47822523
 C     44  43  42     2.887009520179   113.41766773   250.86062603
 C     43  42  32     2.609194610327   107.91356201   178.26933023
 C     46  43  42     2.652298385041   109.97477105   359.64732158
 S     47  46  43     3.299038796063   113.49983683   182.39240721
 C     48  47  46     3.340590770388    89.23821108     1.11447836
 C     46  43  42     2.664704996081   137.21814864   184.00632242
 S     50  46  43     3.254558309213   137.72272102   354.47266411
 C     51  50  46     3.387812621034    91.57625087   179.26141978
 C     49  48  47     2.659893187887   131.13433509   179.54574768
 C     53  49  48     2.836208878339   120.60301791     5.55767279
 C     54  53  49     2.893061234881   113.75422149   116.22569692
 C     52  51  50     2.684110906541   112.31003096   178.05793227
 C     56  52  51     2.615038523705   133.59925328   158.77758576
 C     57  56  52     2.774868018758   125.61802879   172.13462531
 C     58  57  56     2.617015928965   128.14021229   353.27570204
 C     59  58  57     2.702871530636   122.85046590   178.73034836
 N     60  59  58     2.196718102098   178.61552829   191.43282781
 C     59  58  57     2.702651383397   123.97948568   358.93739345
 N     62  59  58     2.197099032485   178.19169383   178.85313434
 C     58  57  56     2.806099193640   107.46798246   174.09713549
 C     64  58  57     2.642263216871   132.32708851   180.01539964
 C     65  64  58     2.649220151972   118.79024430   180.67211145
 Cl    66  65  64     3.272944649069   118.63168653   180.22946636
 C     66  65  64     2.667951939181   121.22206599     0.13258423
 Cl    68  66  65     3.268404263676   120.93780593   179.16653863
 C     68  66  65     2.641101294841   119.95251625   358.89673821
 C     70  68  66     2.617551183894   118.17816095     1.05974835
 C     71  70  68     2.802558167643   127.32779374   181.87860762
 O     72  71  70     2.302001747559   124.83434405     7.44171738
 H      4   3   1     2.061340779728   120.88573998     0.62574702
 H      9   7   5     2.053622836986   118.19962721   179.66152742
 H     18  17  11     2.053035194766   114.84371217     2.92116268
 H     24  23  22     2.079134006859   110.51176140   138.78339188
 H     24  23  22     2.081285862638   108.17413557    23.11922502
 H     25  24  23     2.079528873364   111.07121894   298.79276845
 H     25  24  23     2.078823763540   110.02371503   179.59737618
 H     25  24  23     2.080596580374   111.27235854    58.94864387
 H     30  29  28     2.055104600244   109.66800971   159.75800433
 H     30  29  28     2.079247740243   106.63958879    45.54613535
 H     31  30  29     2.080472089924   110.93674603   300.36207021
 H     31  30  29     2.080167141747   109.70712010   180.54964728
 H     31  30  29     2.078856102031   111.17202087    61.20685576
 H     37  36  35     2.075442427574   106.22747017   330.37329201
 H     37  36  35     2.076957484554   106.66990687   214.37210110
 H     38  37  36     2.080378908399   110.68930961   299.85986924
 H     38  37  36     2.080638420232   109.83504247   180.06650330
 H     38  37  36     2.079785119352   110.60063224    60.29280520
 H     44  43  42     2.080803634332   106.96104144   129.93930095
 H     44  43  42     2.070948373721   108.19165015    16.88982829
 H     45  44  43     2.078718481028   110.73900151   299.00324611
 H     45  44  43     2.079954251030   110.43128903   179.84144382
 H     45  44  43     2.077359459676   111.87990737    59.01468638
 H     54  53  49     2.081577121429   107.97128368   354.86129738
 H     54  53  49     2.075853728123   108.86891104   239.26974750
 H     55  54  53     2.080233489262   111.20416101   302.86080621
 H     55  54  53     2.080769522702   109.85068828   183.08602039
 H     55  54  53     2.079481211055   111.73545673    63.16711687
 H     56  52  51     2.063940409246   111.64963745   340.61975805
 H     65  64  58     2.053814732018   123.02166830     1.08035244
 H     70  68  66     2.061046392227   120.93546082   180.81348978

---------------------
BASIS SET INFORMATION
---------------------
There are 6 groups of distinct atoms

 Group   1 Type C   : 7s4p1d contracted to 3s2p1d pattern {511/31/1}
 Group   2 Type O   : 7s4p1d contracted to 3s2p1d pattern {511/31/1}
 Group   3 Type Cl  : 10s7p1d contracted to 4s3p1d pattern {5311/511/1}
 Group   4 Type N   : 7s4p1d contracted to 3s2p1d pattern {511/31/1}
 Group   5 Type S   : 10s7p1d contracted to 4s3p1d pattern {5311/511/1}
 Group   6 Type H   : 4s1p contracted to 2s1p pattern {31/1}

Atom   0C    basis set group =>   1
Atom   1O    basis set group =>   2
Atom   2C    basis set group =>   1
Atom   3C    basis set group =>   1
Atom   4C    basis set group =>   1
Atom   5Cl   basis set group =>   3
Atom   6C    basis set group =>   1
Atom   7Cl   basis set group =>   3
Atom   8C    basis set group =>   1
Atom   9C    basis set group =>   1
Atom  10C    basis set group =>   1
Atom  11C    basis set group =>   1
Atom  12C    basis set group =>   1
Atom  13N    basis set group =>   4
Atom  14C    basis set group =>   1
Atom  15N    basis set group =>   4
Atom  16C    basis set group =>   1
Atom  17C    basis set group =>   1
Atom  18C    basis set group =>   1
Atom  19S    basis set group =>   5
Atom  20C    basis set group =>   1
Atom  21C    basis set group =>   1
Atom  22C    basis set group =>   1
Atom  23C    basis set group =>   1
Atom  24C    basis set group =>   1
Atom  25S    basis set group =>   5
Atom  26C    basis set group =>   1
Atom  27C    basis set group =>   1
Atom  28N    basis set group =>   4
Atom  29C    basis set group =>   1
Atom  30C    basis set group =>   1
Atom  31C    basis set group =>   1
Atom  32C    basis set group =>   1
Atom  33C    basis set group =>   1
Atom  34N    basis set group =>   4
Atom  35N    basis set group =>   4
Atom  36C    basis set group =>   1
Atom  37C    basis set group =>   1
Atom  38N    basis set group =>   4
Atom  39C    basis set group =>   1
Atom  40C    basis set group =>   1
Atom  41C    basis set group =>   1
Atom  42N    basis set group =>   4
Atom  43C    basis set group =>   1
Atom  44C    basis set group =>   1
Atom  45C    basis set group =>   1
Atom  46C    basis set group =>   1
Atom  47S    basis set group =>   5
Atom  48C    basis set group =>   1
Atom  49C    basis set group =>   1
Atom  50S    basis set group =>   5
Atom  51C    basis set group =>   1
Atom  52C    basis set group =>   1
Atom  53C    basis set group =>   1
Atom  54C    basis set group =>   1
Atom  55C    basis set group =>   1
Atom  56C    basis set group =>   1
Atom  57C    basis set group =>   1
Atom  58C    basis set group =>   1
Atom  59C    basis set group =>   1
Atom  60N    basis set group =>   4
Atom  61C    basis set group =>   1
Atom  62N    basis set group =>   4
Atom  63C    basis set group =>   1
Atom  64C    basis set group =>   1
Atom  65C    basis set group =>   1
Atom  66Cl   basis set group =>   3
Atom  67C    basis set group =>   1
Atom  68Cl   basis set group =>   3
Atom  69C    basis set group =>   1
Atom  70C    basis set group =>   1
Atom  71C    basis set group =>   1
Atom  72O    basis set group =>   2
Atom  73H    basis set group =>   6
Atom  74H    basis set group =>   6
Atom  75H    basis set group =>   6
Atom  76H    basis set group =>   6
Atom  77H    basis set group =>   6
Atom  78H    basis set group =>   6
Atom  79H    basis set group =>   6
Atom  80H    basis set group =>   6
Atom  81H    basis set group =>   6
Atom  82H    basis set group =>   6
Atom  83H    basis set group =>   6
Atom  84H    basis set group =>   6
Atom  85H    basis set group =>   6
Atom  86H    basis set group =>   6
Atom  87H    basis set group =>   6
Atom  88H    basis set group =>   6
Atom  89H    basis set group =>   6
Atom  90H    basis set group =>   6
Atom  91H    basis set group =>   6
Atom  92H    basis set group =>   6
Atom  93H    basis set group =>   6
Atom  94H    basis set group =>   6
Atom  95H    basis set group =>   6
Atom  96H    basis set group =>   6
Atom  97H    basis set group =>   6
Atom  98H    basis set group =>   6
Atom  99H    basis set group =>   6
Atom 100H    basis set group =>   6
Atom 101H    basis set group =>   6
Atom 102H    basis set group =>   6
Atom 103H    basis set group =>   6
------------------------------------------------------------------------------
                           ORCA GTO INTEGRAL CALCULATION
------------------------------------------------------------------------------

                         BASIS SET STATISTICS AND STARTUP INFO

 # of primitive gaussian shells          ... 1079
 # of primitive gaussian functions       ... 2065
 # of contracted shells                  ...  547
 # of contracted basis functions         ... 1209
 Highest angular momentum                ...    2
 Maximum contraction depth               ...    5
 Integral package used                   ... LIBINT
 Integral threshhold            Thresh   ...  2.500e-11
 Primitive cut-off              TCut     ...  2.500e-12


------------------------------ INTEGRAL EVALUATION ----------------------------


 * One electron integrals 
 Pre-screening matrix                    ... done
 Shell pair data                         ... done (   0.017 sec)

-------------------------------------------------------------------------------
                                 ORCA SCF
-------------------------------------------------------------------------------

------------
SCF SETTINGS
------------
Hamiltonian:
 Ab initio Hamiltonian  Method          .... Hartree-Fock(GTOs)


General Settings:
 Integral files         IntName         .... Y15
 Hartree-Fock type      HFTyp           .... RHF
 Total Charge           Charge          ....    0
 Multiplicity           Mult            ....    1
 Number of Electrons    NEL             ....  566
 Basis Dimension        Dim             .... 1209
 Nuclear Repulsion      ENuc            ....  11842.9370028803 Eh

Convergence Acceleration:
 DIIS                   CNVDIIS         .... on
   Start iteration      DIISMaxIt       ....    12
   Startup error        DIISStart       ....  0.200000
   # of expansion vecs  DIISMaxEq       ....     5
   Bias factor          DIISBfac        ....   1.050
   Max. coefficient     DIISMaxC        ....  10.000
 Newton-Raphson         CNVNR           .... off
 SOSCF                  CNVSOSCF        .... on
   Start iteration      SOSCFMaxIt      ....   150
   Startup grad/error   SOSCFStart      ....  0.003300
 Level Shifting         CNVShift        .... on
   Level shift para.    LevelShift      ....    0.2500
   Turn off err/grad.   ShiftErr        ....    0.0010
 Zerner damping         CNVZerner       .... off
 Static damping         CNVDamp         .... on
   Fraction old density DampFac         ....    0.7000
   Max. Damping (<1)    DampMax         ....    0.9800
   Min. Damping (>=0)   DampMin         ....    0.0000
   Turn off err/grad.   DampErr         ....    0.1000
 Fernandez-Rico         CNVRico         .... off

SCF Procedure:
 Maximum # iterations   MaxIter         ....   125
 SCF integral mode      SCFMode         .... Direct
   Integral package                     .... LIBINT
 Reset frequency        DirectResetFreq ....    20
 Integral Threshold     Thresh          ....  2.500e-11 Eh
 Primitive CutOff       TCut            ....  2.500e-12 Eh

Convergence Tolerance:
 Convergence Check Mode ConvCheckMode   .... Total+1el-Energy
 Convergence forced     ConvForced      .... 1
 Energy Change          TolE            ....  1.000e-08 Eh
 1-El. energy change                    ....  1.000e-05 Eh
 Orbital Gradient       TolG            ....  1.000e-05
 Orbital Rotation angle TolX            ....  1.000e-05
 DIIS Error             TolErr          ....  5.000e-07


Diagonalization of the overlap matrix:
Smallest eigenvalue                        ... 1.009e-04
Time for diagonalization                   ...    0.441 sec
Threshold for overlap eigenvalues          ... 1.000e-08
Number of eigenvalues below threshold      ... 0
Time for construction of square roots      ...    0.153 sec
Total time needed                          ...    0.599 sec

-------------------
DFT GRID GENERATION
-------------------

General Integration Accuracy     IntAcc      ...  4.340
Radial Grid Type                 RadialGrid  ... Gauss-Chebyshev
Angular Grid (max. acc.)         AngularGrid ... Lebedev-110
Angular grid pruning method      GridPruning ... 3 (G Style)
Weight generation scheme         WeightScheme... Becke
Basis function cutoff            BFCut       ...    1.0000e-11
Integration weight cutoff        WCut        ...    1.0000e-14
Grids for H and He will be reduced by one unit

# of grid points (after initial pruning)     ... 147388 (   0.2 sec)
# of grid points (after weights+screening)   ... 129399 (   6.3 sec)
nearest neighbour list constructed           ...    0.0 sec
Grid point re-assignment to atoms done       ...    0.0 sec
Grid point division into batches done        ...    0.1 sec
Reduced shell lists constructed in    2.0 sec

Total number of grid points                  ...   129399
Total number of batches                      ...     2076
Average number of points per batch           ...       62
Average number of grid points per atom       ...     1244
Average number of shells per batch           ...   105.62 (19.31%)
Average number of basis functions per batch  ...   219.94 (18.19%)
Average number of large shells per batch     ...    63.72 (60.33%)
Average number of large basis fcns per batch ...   134.86 (61.32%)
Maximum spatial batch extension              ...  21.46, 20.69, 26.06 au
Average spatial batch extension              ...   3.35,  3.22,  3.66 au

Time for grid setup =    8.572 sec

------------------------------
INITIAL GUESS: MODEL POTENTIAL
------------------------------
Loading Hartree-Fock densities                     ... done
Calculating cut-offs                               ... done
Setting up the integral package                    ... done
Initializing the effective Hamiltonian             ... done
Starting the Coulomb interaction                   ... done (   8.8 sec)
Reading the grid                                   ... done
Mapping shells                                     ... done
Starting the XC term evaluation                    ... done (   1.9 sec)
Transforming the Hamiltonian                       ... done (   0.1 sec)
Diagonalizing the Hamiltonian                      ... done (   0.3 sec)
Back transforming the eigenvectors                 ... done (   0.0 sec)
Now organizing SCF variables                       ... done
                      ------------------
                      INITIAL GUESS DONE (  20.0 sec)
                      ------------------
--------------
SCF ITERATIONS
--------------
ITER       Energy         Delta-E        Max-DP      RMS-DP      [F,P]     Damp
               ***  Starting incremental Fock matrix formation  ***
  0  -6125.3786609274   0.000000000000 0.08952162  0.00133433  0.2327951 0.7000
  1  -6126.0937279813  -0.715067053872 0.06772957  0.00102538  0.1398954 0.7000
                               ***Turning on DIIS***
  2  -6126.5299404848  -0.436212503540 0.16531718  0.00239730  0.0777674 0.0000
  3  -6124.1826996439   2.347240840940 0.05496204  0.00049817  0.0485004 0.0000
  4  -6127.8334065085  -3.650706864679 0.01799933  0.00021091  0.0163740 0.0000
  5  -6127.6684896081   0.164916900394 0.00823467  0.00010229  0.0080563 0.0000
  6  -6127.4206200432   0.247869564952 0.00494705  0.00006271  0.0024959 0.0000
  7  -6127.5069375225  -0.086317479261 0.00319643  0.00003720  0.0019566 0.0000
                      *** Initiating the SOSCF procedure ***
                           *** Shutting down DIIS ***
                      *** Re-Reading the Fockian *** 
                      *** Removing any level shift *** 
ITER      Energy       Delta-E        Grad      Rot      Max-DP    RMS-DP
  8  -6127.47994776   0.0269897656  0.002630  0.002630  0.002526  0.000026
               *** Restarting incremental Fock matrix formation ***
  9  -6127.49063806  -0.0106903062  0.001297  0.005434  0.001315  0.000014
 10  -6127.49070956  -0.0000714925  0.000510  0.005505  0.001770  0.000019
 11  -6127.49073765  -0.0000280974  0.000185  0.000569  0.000365  0.000004
 12  -6127.49074168  -0.0000040281  0.000090  0.000496  0.000143  0.000002
 13  -6127.49074242  -0.0000007419  0.000022  0.000072  0.000094  0.000001
 14  -6127.49074254  -0.0000001149  0.000009  0.000037  0.000038  0.000000
 15  -6127.49074257  -0.0000000281  0.000005  0.000020  0.000017  0.000000
                  ***Gradient check signals convergence***
              ***Rediagonalizing the Fockian in SOSCF/NRSCF***

               *****************************************************
               *                     SUCCESS                       *
               *           SCF CONVERGED AFTER  16 CYCLES          *
               *****************************************************


----------------
TOTAL SCF ENERGY
----------------

Total Energy       :        -6127.49074258 Eh         -166737.49988 eV

Components:
Nuclear Repulsion  :        11842.93700288 Eh          322262.69937 eV
Electronic Energy  :       -17970.42774546 Eh         -489000.19924 eV
One Electron Energy:       -32010.01744299 Eh         -871036.85728 eV
Two Electron Energy:        14039.58969753 Eh          382036.65804 eV

Virial components:
Potential Energy   :       -12241.33819395 Eh         -333103.74692 eV
Kinetic Energy     :         6113.84745137 Eh          166366.24705 eV
Virial Ratio       :            2.00223154


---------------
SCF CONVERGENCE
---------------

  Last Energy change         ...   -1.0747e-08  Tolerance :   1.0000e-08
  Last MAX-Density change    ...    9.4528e-06  Tolerance :   1.0000e-07
  Last RMS-Density change    ...    1.0348e-07  Tolerance :   5.0000e-09
  Last Orbital Gradient      ...    2.2918e-06  Tolerance :   1.0000e-05
  Last Orbital Rotation      ...    1.3769e-05  Tolerance :   1.0000e-05

             **** THE GBW FILE WAS UPDATED (Y15.gbw) ****
             **** DENSITY FILE WAS UPDATED (Y15.scfp) ****
             **** ENERGY FILE WAS UPDATED (Y15.en.tmp) ****
             **** THE GBW FILE WAS UPDATED (Y15.gbw) ****
             **** DENSITY FILE WAS UPDATED (Y15.scfp) ****
----------------
ORBITAL ENERGIES
----------------

  NO   OCC          E(Eh)            E(eV) 
   0   2.0000    -104.824904     -2852.4307 
   1   2.0000    -104.823733     -2852.3988 
   2   2.0000    -104.822003     -2852.3517 
   3   2.0000    -104.820438     -2852.3091 
   4   2.0000     -91.987085     -2503.0958 
   5   2.0000     -91.981613     -2502.9469 
   6   2.0000     -91.978166     -2502.8531 
   7   2.0000     -91.978134     -2502.8523 
   8   2.0000     -20.571640      -559.7828 
   9   2.0000     -20.569048      -559.7123 
  10   2.0000     -15.705640      -427.3722 
  11   2.0000     -15.654302      -425.9752 
  12   2.0000     -15.649541      -425.8457 
  13   2.0000     -15.626326      -425.2139 
  14   2.0000     -15.625216      -425.1838 
  15   2.0000     -15.600279      -424.5052 
  16   2.0000     -15.599873      -424.4941 
  17   2.0000     -15.595869      -424.3852 
  18   2.0000     -15.592020      -424.2804 
  19   2.0000     -11.370939      -309.4190 
  20   2.0000     -11.367775      -309.3329 
  21   2.0000     -11.352136      -308.9073 
  22   2.0000     -11.349973      -308.8485 
  23   2.0000     -11.349837      -308.8448 
  24   2.0000     -11.348446      -308.8069 
  25   2.0000     -11.348419      -308.8062 
  26   2.0000     -11.346726      -308.7601 
  27   2.0000     -11.334182      -308.4188 
  28   2.0000     -11.332896      -308.3838 
  29   2.0000     -11.330240      -308.3115 
  30   2.0000     -11.330190      -308.3102 
  31   2.0000     -11.325287      -308.1767 
  32   2.0000     -11.323351      -308.1240 
  33   2.0000     -11.323137      -308.1182 
  34   2.0000     -11.318618      -307.9953 
  35   2.0000     -11.318527      -307.9928 
  36   2.0000     -11.314363      -307.8795 
  37   2.0000     -11.313294      -307.8504 
  38   2.0000     -11.311908      -307.8127 
  39   2.0000     -11.311484      -307.8011 
  40   2.0000     -11.311480      -307.8010 
  41   2.0000     -11.310502      -307.7744 
  42   2.0000     -11.310225      -307.7669 
  43   2.0000     -11.308260      -307.7134 
  44   2.0000     -11.307170      -307.6837 
  45   2.0000     -11.306839      -307.6747 
  46   2.0000     -11.305158      -307.6290 
  47   2.0000     -11.304646      -307.6151 
  48   2.0000     -11.301506      -307.5296 
  49   2.0000     -11.301470      -307.5286 
  50   2.0000     -11.299445      -307.4735 
  51   2.0000     -11.299236      -307.4678 
  52   2.0000     -11.298921      -307.4593 
  53   2.0000     -11.298161      -307.4386 
  54   2.0000     -11.297232      -307.4133 
  55   2.0000     -11.297079      -307.4092 
  56   2.0000     -11.297007      -307.4072 
  57   2.0000     -11.295714      -307.3720 
  58   2.0000     -11.289882      -307.2133 
  59   2.0000     -11.289307      -307.1977 
  60   2.0000     -11.288710      -307.1814 
  61   2.0000     -11.287606      -307.1514 
  62   2.0000     -11.284347      -307.0627 
  63   2.0000     -11.283084      -307.0283 
  64   2.0000     -11.281559      -306.9868 
  65   2.0000     -11.276285      -306.8433 
  66   2.0000     -11.265491      -306.5496 
  67   2.0000     -11.264401      -306.5199 
  68   2.0000     -11.258090      -306.3482 
  69   2.0000     -11.253354      -306.2193 
  70   2.0000     -11.250226      -306.1342 
  71   2.0000     -11.246067      -306.0210 
  72   2.0000     -11.246025      -306.0199 
  73   2.0000     -10.588291      -288.1221 
  74   2.0000     -10.587080      -288.0891 
  75   2.0000     -10.585350      -288.0420 
  76   2.0000     -10.583788      -287.9995 
  77   2.0000      -9.021665      -245.4920 
  78   2.0000      -9.014716      -245.3029 
  79   2.0000      -9.011970      -245.2282 
  80   2.0000      -9.011955      -245.2278 
  81   2.0000      -8.063377      -219.4156 
  82   2.0000      -8.062167      -219.3827 
  83   2.0000      -8.060432      -219.3355 
  84   2.0000      -8.059607      -219.3131 
  85   2.0000      -8.059606      -219.3130 
  86   2.0000      -8.058870      -219.2930 
  87   2.0000      -8.058402      -219.2803 
  88   2.0000      -8.058399      -219.2802 
  89   2.0000      -8.056665      -219.2330 
  90   2.0000      -8.056644      -219.2324 
  91   2.0000      -8.055105      -219.1906 
  92   2.0000      -8.055085      -219.1900 
  93   2.0000      -6.709255      -182.5681 
  94   2.0000      -6.708089      -182.5364 
  95   2.0000      -6.706098      -182.4822 
  96   2.0000      -6.701972      -182.3699 
  97   2.0000      -6.700799      -182.3380 
  98   2.0000      -6.699516      -182.3031 
  99   2.0000      -6.699482      -182.3022 
 100   2.0000      -6.698808      -182.2838 
 101   2.0000      -6.698690      -182.2806 
 102   2.0000      -6.698653      -182.2796 
 103   2.0000      -6.696346      -182.2169 
 104   2.0000      -6.696319      -182.2161 
 105   2.0000      -1.459798       -39.7231 
 106   2.0000      -1.400786       -38.1173 
 107   2.0000      -1.397099       -38.0170 
 108   2.0000      -1.345182       -36.6043 
 109   2.0000      -1.330380       -36.2015 
 110   2.0000      -1.250986       -34.0411 
 111   2.0000      -1.249118       -33.9902 
 112   2.0000      -1.238355       -33.6974 
 113   2.0000      -1.237626       -33.6775 
 114   2.0000      -1.228043       -33.4168 
 115   2.0000      -1.225105       -33.3368 
 116   2.0000      -1.223333       -33.2886 
 117   2.0000      -1.221646       -33.2427 
 118   2.0000      -1.203832       -32.7579 
 119   2.0000      -1.203163       -32.7397 
 120   2.0000      -1.201101       -32.6836 
 121   2.0000      -1.186398       -32.2835 
 122   2.0000      -1.158141       -31.5146 
 123   2.0000      -1.156670       -31.4746 
 124   2.0000      -1.156396       -31.4671 
 125   2.0000      -1.154731       -31.4218 
 126   2.0000      -1.132807       -30.8253 
 127   2.0000      -1.130399       -30.7597 
 128   2.0000      -1.123124       -30.5618 
 129   2.0000      -1.106337       -30.1050 
 130   2.0000      -1.093905       -29.7667 
 131   2.0000      -1.088282       -29.6137 
 132   2.0000      -1.084328       -29.5061 
 133   2.0000      -1.078620       -29.3507 
 134   2.0000      -1.061501       -28.8849 
 135   2.0000      -1.055008       -28.7082 
 136   2.0000      -1.050229       -28.5782 
 137   2.0000      -1.048335       -28.5267 
 138   2.0000      -1.046418       -28.4745 
 139   2.0000      -1.030089       -28.0301 
 140   2.0000      -1.028722       -27.9929 
 141   2.0000      -1.010443       -27.4955 
 142   2.0000      -1.004521       -27.3344 
 143   2.0000      -0.995903       -27.0999 
 144   2.0000      -0.979274       -26.6474 
 145   2.0000      -0.967589       -26.3294 
 146   2.0000      -0.960762       -26.1437 
 147   2.0000      -0.945460       -25.7273 
 148   2.0000      -0.928602       -25.2685 
 149   2.0000      -0.927411       -25.2361 
 150   2.0000      -0.925603       -25.1869 
 151   2.0000      -0.918991       -25.0070 
 152   2.0000      -0.907053       -24.6822 
 153   2.0000      -0.887080       -24.1387 
 154   2.0000      -0.881722       -23.9929 
 155   2.0000      -0.876981       -23.8639 
 156   2.0000      -0.870551       -23.6889 
 157   2.0000      -0.862407       -23.4673 
 158   2.0000      -0.849992       -23.1295 
 159   2.0000      -0.844076       -22.9685 
 160   2.0000      -0.835428       -22.7332 
 161   2.0000      -0.833058       -22.6687 
 162   2.0000      -0.831365       -22.6226 
 163   2.0000      -0.822026       -22.3685 
 164   2.0000      -0.807114       -21.9627 
 165   2.0000      -0.794645       -21.6234 
 166   2.0000      -0.781192       -21.2573 
 167   2.0000      -0.778177       -21.1753 
 168   2.0000      -0.777218       -21.1492 
 169   2.0000      -0.775301       -21.0970 
 170   2.0000      -0.752606       -20.4794 
 171   2.0000      -0.749242       -20.3879 
 172   2.0000      -0.748516       -20.3682 
 173   2.0000      -0.742674       -20.2092 
 174   2.0000      -0.737503       -20.0685 
 175   2.0000      -0.725575       -19.7439 
 176   2.0000      -0.716721       -19.5030 
 177   2.0000      -0.711696       -19.3662 
 178   2.0000      -0.703176       -19.1344 
 179   2.0000      -0.698332       -19.0026 
 180   2.0000      -0.696855       -18.9624 
 181   2.0000      -0.693078       -18.8596 
 182   2.0000      -0.687972       -18.7207 
 183   2.0000      -0.682449       -18.5704 
 184   2.0000      -0.678180       -18.4542 
 185   2.0000      -0.670011       -18.2319 
 186   2.0000      -0.667813       -18.1721 
 187   2.0000      -0.666604       -18.1392 
 188   2.0000      -0.659203       -17.9378 
 189   2.0000      -0.655766       -17.8443 
 190   2.0000      -0.653880       -17.7930 
 191   2.0000      -0.651594       -17.7308 
 192   2.0000      -0.651402       -17.7255 
 193   2.0000      -0.648368       -17.6430 
 194   2.0000      -0.644076       -17.5262 
 195   2.0000      -0.642534       -17.4842 
 196   2.0000      -0.636689       -17.3252 
 197   2.0000      -0.634456       -17.2644 
 198   2.0000      -0.629695       -17.1349 
 199   2.0000      -0.627275       -17.0690 
 200   2.0000      -0.625294       -17.0151 
 201   2.0000      -0.624803       -17.0018 
 202   2.0000      -0.620620       -16.8879 
 203   2.0000      -0.619245       -16.8505 
 204   2.0000      -0.617106       -16.7923 
 205   2.0000      -0.611019       -16.6267 
 206   2.0000      -0.608381       -16.5549 
 207   2.0000      -0.602405       -16.3923 
 208   2.0000      -0.594250       -16.1704 
 209   2.0000      -0.591375       -16.0921 
 210   2.0000      -0.586116       -15.9490 
 211   2.0000      -0.583482       -15.8773 
 212   2.0000      -0.583229       -15.8705 
 213   2.0000      -0.581874       -15.8336 
 214   2.0000      -0.581582       -15.8257 
 215   2.0000      -0.578046       -15.7294 
 216   2.0000      -0.576733       -15.6937 
 217   2.0000      -0.576075       -15.6758 
 218   2.0000      -0.573787       -15.6135 
 219   2.0000      -0.572317       -15.5735 
 220   2.0000      -0.571689       -15.5564 
 221   2.0000      -0.570182       -15.5155 
 222   2.0000      -0.569328       -15.4922 
 223   2.0000      -0.568223       -15.4621 
 224   2.0000      -0.563696       -15.3389 
 225   2.0000      -0.563535       -15.3346 
 226   2.0000      -0.561248       -15.2723 
 227   2.0000      -0.559472       -15.2240 
 228   2.0000      -0.558210       -15.1897 
 229   2.0000      -0.555930       -15.1276 
 230   2.0000      -0.548655       -14.9297 
 231   2.0000      -0.547225       -14.8908 
 232   2.0000      -0.545750       -14.8506 
 233   2.0000      -0.544054       -14.8045 
 234   2.0000      -0.538736       -14.6598 
 235   2.0000      -0.535352       -14.5677 
 236   2.0000      -0.528913       -14.3925 
 237   2.0000      -0.525805       -14.3079 
 238   2.0000      -0.523092       -14.2340 
 239   2.0000      -0.515225       -14.0200 
 240   2.0000      -0.513456       -13.9719 
 241   2.0000      -0.509457       -13.8630 
 242   2.0000      -0.509123       -13.8539 
 243   2.0000      -0.508301       -13.8316 
 244   2.0000      -0.505399       -13.7526 
 245   2.0000      -0.503848       -13.7104 
 246   2.0000      -0.500546       -13.6205 
 247   2.0000      -0.500185       -13.6107 
 248   2.0000      -0.498702       -13.5704 
 249   2.0000      -0.497873       -13.5478 
 250   2.0000      -0.495799       -13.4914 
 251   2.0000      -0.494822       -13.4648 
 252   2.0000      -0.492948       -13.4138 
 253   2.0000      -0.492786       -13.4094 
 254   2.0000      -0.492155       -13.3922 
 255   2.0000      -0.488935       -13.3046 
 256   2.0000      -0.488510       -13.2930 
 257   2.0000      -0.482324       -13.1247 
 258   2.0000      -0.480089       -13.0639 
 259   2.0000      -0.478671       -13.0253 
 260   2.0000      -0.475293       -12.9334 
 261   2.0000      -0.466644       -12.6980 
 262   2.0000      -0.465831       -12.6759 
 263   2.0000      -0.464331       -12.6351 
 264   2.0000      -0.463677       -12.6173 
 265   2.0000      -0.452899       -12.3240 
 266   2.0000      -0.447796       -12.1851 
 267   2.0000      -0.443862       -12.0781 
 268   2.0000      -0.441154       -12.0044 
 269   2.0000      -0.413206       -11.2439 
 270   2.0000      -0.411504       -11.1976 
 271   2.0000      -0.389520       -10.5994 
 272   2.0000      -0.383466       -10.4346 
 273   2.0000      -0.379222       -10.3192 
 274   2.0000      -0.375885       -10.2283 
 275   2.0000      -0.356757        -9.7078 
 276   2.0000      -0.354317        -9.6415 
 277   2.0000      -0.351538        -9.5658 
 278   2.0000      -0.341206        -9.2847 
 279   2.0000      -0.332590        -9.0502 
 280   2.0000      -0.310842        -8.4584 
 281   2.0000      -0.306989        -8.3536 
 282   2.0000      -0.259338        -7.0569 
 283   0.0000      -0.035848        -0.9755 
 284   0.0000      -0.019700        -0.5361 
 285   0.0000       0.007902         0.2150 
 286   0.0000       0.013581         0.3695 
 287   0.0000       0.045074         1.2265 
 288   0.0000       0.067536         1.8377 
 289   0.0000       0.082330         2.2403 
 290   0.0000       0.108873         2.9626 
 291   0.0000       0.116807         3.1785 
 292   0.0000       0.124978         3.4008 
 293   0.0000       0.135489         3.6868 
 294   0.0000       0.138090         3.7576 
 295   0.0000       0.140472         3.8224 
 296   0.0000       0.141525         3.8511 
 297   0.0000       0.147391         4.0107 
 298   0.0000       0.151128         4.1124 
 299   0.0000       0.155696         4.2367 
 300   0.0000       0.159852         4.3498 
 301   0.0000       0.165624         4.5069 
 302   0.0000       0.169227         4.6049 
 303   0.0000       0.169818         4.6210 
 304   0.0000       0.171965         4.6794 
 305   0.0000       0.173547         4.7224 
 306   0.0000       0.175367         4.7720 
 307   0.0000       0.183758         5.0003 
 308   0.0000       0.184137         5.0106 
 309   0.0000       0.190234         5.1765 
 310   0.0000       0.196655         5.3513 
 311   0.0000       0.197900         5.3851 
 312   0.0000       0.200427         5.4539 
 313   0.0000       0.201059         5.4711 
 314   0.0000       0.206428         5.6172 
 315   0.0000       0.208774         5.6810 
 316   0.0000       0.212522         5.7830 
 317   0.0000       0.215350         5.8600 
 318   0.0000       0.216417         5.8890 
 319   0.0000       0.216753         5.8982 
 320   0.0000       0.219856         5.9826 
 321   0.0000       0.223304         6.0764 
 322   0.0000       0.225771         6.1435 
 323   0.0000       0.226133         6.1534 
 324   0.0000       0.227070         6.1789 
 325   0.0000       0.230041         6.2597 
 326   0.0000       0.230968         6.2850 
 327   0.0000       0.234813         6.3896 
 328   0.0000       0.237549         6.4640 
 329   0.0000       0.241057         6.5595 
 330   0.0000       0.245605         6.6833 
 331   0.0000       0.249920         6.8007 
 332   0.0000       0.251530         6.8445 
 333   0.0000       0.252318         6.8659 
 334   0.0000       0.254001         6.9117 
 335   0.0000       0.256811         6.9882 
 336   0.0000       0.260443         7.0870 
 337   0.0000       0.261576         7.1179 
 338   0.0000       0.264638         7.2012 
 339   0.0000       0.265309         7.2194 
 340   0.0000       0.266276         7.2457 
 341   0.0000       0.268329         7.3016 
 342   0.0000       0.268886         7.3168 
 343   0.0000       0.276283         7.5180 
 344   0.0000       0.279370         7.6021 
 345   0.0000       0.284574         7.7437 
 346   0.0000       0.287575         7.8253 
 347   0.0000       0.288830         7.8595 
 348   0.0000       0.295222         8.0334 
 349   0.0000       0.295544         8.0422 
 350   0.0000       0.297606         8.0983 
 351   0.0000       0.305968         8.3258 
 352   0.0000       0.308306         8.3894 
 353   0.0000       0.314245         8.5510 
 354   0.0000       0.315535         8.5861 
 355   0.0000       0.318466         8.6659 
 356   0.0000       0.322706         8.7813 
 357   0.0000       0.330725         8.9995 
 358   0.0000       0.331110         9.0100 
 359   0.0000       0.332703         9.0533 
 360   0.0000       0.335574         9.1314 
 361   0.0000       0.338343         9.2068 
 362   0.0000       0.338942         9.2231 
 363   0.0000       0.342123         9.3096 
 364   0.0000       0.348057         9.4711 
 365   0.0000       0.353094         9.6082 
 366   0.0000       0.354384         9.6433 
 367   0.0000       0.358047         9.7430 
 368   0.0000       0.358777         9.7628 
 369   0.0000       0.361487         9.8366 
 370   0.0000       0.363244         9.8844 
 371   0.0000       0.363567         9.8932 
 372   0.0000       0.367792        10.0081 
 373   0.0000       0.368590        10.0298 
 374   0.0000       0.370925        10.0934 
 375   0.0000       0.374056        10.1786 
 376   0.0000       0.375893        10.2286 
 377   0.0000       0.382273        10.4022 
 378   0.0000       0.386395        10.5143 
 379   0.0000       0.388040        10.5591 
 380   0.0000       0.394883        10.7453 
 381   0.0000       0.396518        10.7898 
 382   0.0000       0.397898        10.8274 
 383   0.0000       0.400643        10.9021 
 384   0.0000       0.407210        11.0808 
 385   0.0000       0.409639        11.1468 
 386   0.0000       0.411827        11.2064 
 387   0.0000       0.419817        11.4238 
 388   0.0000       0.421703        11.4751 
 389   0.0000       0.422425        11.4948 
 390   0.0000       0.425471        11.5777 
 391   0.0000       0.427980        11.6459 
 392   0.0000       0.429856        11.6970 
 393   0.0000       0.431394        11.7388 
 394   0.0000       0.437210        11.8971 
 395   0.0000       0.442043        12.0286 
 396   0.0000       0.446398        12.1471 
 397   0.0000       0.451574        12.2880 
 398   0.0000       0.452596        12.3158 
 399   0.0000       0.453969        12.3531 
 400   0.0000       0.455138        12.3849 
 401   0.0000       0.459451        12.5023 
 402   0.0000       0.461522        12.5587 
 403   0.0000       0.464699        12.6451 
 404   0.0000       0.468630        12.7521 
 405   0.0000       0.473880        12.8949 
 406   0.0000       0.477234        12.9862 
 407   0.0000       0.481814        13.1108 
 408   0.0000       0.484624        13.1873 
 409   0.0000       0.486212        13.2305 
 410   0.0000       0.495233        13.4760 
 411   0.0000       0.496906        13.5215 
 412   0.0000       0.500283        13.6134 
 413   0.0000       0.502389        13.6707 
 414   0.0000       0.504871        13.7382 
 415   0.0000       0.511762        13.9258 
 416   0.0000       0.515247        14.0206 
 417   0.0000       0.516630        14.0582 
 418   0.0000       0.521824        14.1995 
 419   0.0000       0.529886        14.4189 
 420   0.0000       0.534618        14.5477 
 421   0.0000       0.536596        14.6015 
 422   0.0000       0.542579        14.7643 
 423   0.0000       0.546568        14.8729 
 424   0.0000       0.552787        15.0421 
 425   0.0000       0.556829        15.1521 
 426   0.0000       0.563747        15.3403 
 427   0.0000       0.567340        15.4381 
 428   0.0000       0.574027        15.6201 
 429   0.0000       0.577005        15.7011 
 430   0.0000       0.583416        15.8755 
 431   0.0000       0.585699        15.9377 
 432   0.0000       0.587378        15.9834 
 433   0.0000       0.591399        16.0928 
 434   0.0000       0.593042        16.1375 
 435   0.0000       0.594825        16.1860 
 436   0.0000       0.595696        16.2097 
 437   0.0000       0.597407        16.2563 
 438   0.0000       0.598291        16.2803 
 439   0.0000       0.602545        16.3961 
 440   0.0000       0.603549        16.4234 
 441   0.0000       0.608508        16.5584 
 442   0.0000       0.609903        16.5963 
 443   0.0000       0.611622        16.6431 
 444   0.0000       0.615261        16.7421 
 445   0.0000       0.616648        16.7798 
 446   0.0000       0.618764        16.8374 
 447   0.0000       0.621484        16.9115 
 448   0.0000       0.624108        16.9828 
 449   0.0000       0.626418        17.0457 
 450   0.0000       0.627666        17.0797 
 451   0.0000       0.630208        17.1488 
 452   0.0000       0.634663        17.2701 
 453   0.0000       0.635865        17.3028 
 454   0.0000       0.638157        17.3651 
 455   0.0000       0.641346        17.4519 
 456   0.0000       0.645301        17.5595 
 457   0.0000       0.645587        17.5673 
 458   0.0000       0.646680        17.5971 
 459   0.0000       0.649419        17.6716 
 460   0.0000       0.650390        17.6980 
 461   0.0000       0.652869        17.7655 
 462   0.0000       0.659420        17.9437 
 463   0.0000       0.660623        17.9765 
 464   0.0000       0.663224        18.0472 
 465   0.0000       0.664952        18.0943 
 466   0.0000       0.667126        18.1534 
 467   0.0000       0.668834        18.1999 
 468   0.0000       0.672090        18.2885 
 469   0.0000       0.674649        18.3581 
 470   0.0000       0.678108        18.4523 
 471   0.0000       0.681574        18.5466 
 472   0.0000       0.691993        18.8301 
 473   0.0000       0.697865        18.9899 
 474   0.0000       0.698308        19.0019 
 475   0.0000       0.699733        19.0407 
 476   0.0000       0.701549        19.0901 
 477   0.0000       0.705867        19.2076 
 478   0.0000       0.706160        19.2156 
 479   0.0000       0.706704        19.2304 
 480   0.0000       0.710531        19.3345 
 481   0.0000       0.713017        19.4022 
 482   0.0000       0.715941        19.4817 
 483   0.0000       0.717243        19.5172 
 484   0.0000       0.719587        19.5810 
 485   0.0000       0.722457        19.6591 
 486   0.0000       0.726616        19.7722 
 487   0.0000       0.728370        19.8200 
 488   0.0000       0.737296        20.0628 
 489   0.0000       0.739291        20.1171 
 490   0.0000       0.740474        20.1493 
 491   0.0000       0.741674        20.1820 
 492   0.0000       0.742856        20.2141 
 493   0.0000       0.744357        20.2550 
 494   0.0000       0.747650        20.3446 
 495   0.0000       0.749638        20.3987 
 496   0.0000       0.753697        20.5091 
 497   0.0000       0.760870        20.7043 
 498   0.0000       0.767312        20.8796 
 499   0.0000       0.767980        20.8978 
 500   0.0000       0.770620        20.9696 
 501   0.0000       0.772850        21.0303 
 502   0.0000       0.774123        21.0650 
 503   0.0000       0.775365        21.0987 
 504   0.0000       0.779751        21.2181 
 505   0.0000       0.786934        21.4136 
 506   0.0000       0.790153        21.5012 
 507   0.0000       0.792877        21.5753 
 508   0.0000       0.797032        21.6883 
 509   0.0000       0.799603        21.7583 
 510   0.0000       0.800201        21.7746 
 511   0.0000       0.802169        21.8281 
 512   0.0000       0.805361        21.9150 
 513   0.0000       0.807905        21.9842 
 514   0.0000       0.811070        22.0703 
 515   0.0000       0.811452        22.0807 
 516   0.0000       0.819878        22.3100 
 517   0.0000       0.822359        22.3775 
 518   0.0000       0.824079        22.4243 
 519   0.0000       0.826236        22.4830 
 520   0.0000       0.828176        22.5358 
 521   0.0000       0.831410        22.6238 
 522   0.0000       0.832384        22.6503 
 523   0.0000       0.833861        22.6905 
 524   0.0000       0.838402        22.8141 
 525   0.0000       0.840610        22.8742 
 526   0.0000       0.841603        22.9012 
 527   0.0000       0.842406        22.9230 
 528   0.0000       0.844431        22.9781 
 529   0.0000       0.846605        23.0373 
 530   0.0000       0.848636        23.0926 
 531   0.0000       0.850558        23.1448 
 532   0.0000       0.852683        23.2027 
 533   0.0000       0.854107        23.2414 
 534   0.0000       0.855533        23.2802 
 535   0.0000       0.858502        23.3610 
 536   0.0000       0.858733        23.3673 
 537   0.0000       0.860366        23.4117 
 538   0.0000       0.861271        23.4364 
 539   0.0000       0.863893        23.5077 
 540   0.0000       0.865567        23.5533 
 541   0.0000       0.868294        23.6275 
 542   0.0000       0.869344        23.6560 
 543   0.0000       0.871601        23.7175 
 544   0.0000       0.872224        23.7344 
 545   0.0000       0.873760        23.7762 
 546   0.0000       0.876902        23.8617 
 547   0.0000       0.878090        23.8940 
 548   0.0000       0.879410        23.9300 
 549   0.0000       0.879844        23.9418 
 550   0.0000       0.882298        24.0086 
 551   0.0000       0.884930        24.0802 
 552   0.0000       0.885793        24.1036 
 553   0.0000       0.886736        24.1293 
 554   0.0000       0.887176        24.1413 
 555   0.0000       0.888538        24.1784 
 556   0.0000       0.892162        24.2770 
 557   0.0000       0.894222        24.3330 
 558   0.0000       0.895799        24.3759 
 559   0.0000       0.897509        24.4224 
 560   0.0000       0.899371        24.4731 
 561   0.0000       0.900768        24.5111 
 562   0.0000       0.901048        24.5187 
 563   0.0000       0.903061        24.5736 
 564   0.0000       0.904762        24.6198 
 565   0.0000       0.906399        24.6644 
 566   0.0000       0.907306        24.6890 
 567   0.0000       0.908965        24.7342 
 568   0.0000       0.911361        24.7994 
 569   0.0000       0.915673        24.9167 
 570   0.0000       0.917682        24.9714 
 571   0.0000       0.918687        24.9988 
 572   0.0000       0.919054        25.0087 
 573   0.0000       0.920321        25.0432 
 574   0.0000       0.921726        25.0814 
 575   0.0000       0.922939        25.1144 
 576   0.0000       0.923780        25.1373 
 577   0.0000       0.926480        25.2108 
 578   0.0000       0.928018        25.2527 
 579   0.0000       0.930035        25.3075 
 580   0.0000       0.931931        25.3591 
 581   0.0000       0.932968        25.3873 
 582   0.0000       0.934334        25.4245 
 583   0.0000       0.935595        25.4588 
 584   0.0000       0.940228        25.5849 
 585   0.0000       0.942315        25.6417 
 586   0.0000       0.943104        25.6632 
 587   0.0000       0.943594        25.6765 
 588   0.0000       0.945696        25.7337 
 589   0.0000       0.947113        25.7722 
 590   0.0000       0.947947        25.7949 
 591   0.0000       0.949892        25.8479 
 592   0.0000       0.953398        25.9433 
 593   0.0000       0.955727        26.0067 
[...]
   Using LibInt in JK Direct
   Time for J+K (Direct):  1046.694
   Time for Sigma-Completion:    21.130
   Size of expansion space: 21
   Lowest Energy          :     0.097153117894
   Maximum Energy change  :     0.000116934442 (vector 2)
   Maximum residual norm  :     0.000028331012

                       ****Iteration   14****
   Time for densities:     1.227
   Using LibInt in JK Direct
   Time for J+K (Direct):  1384.260
   Time for Sigma-Completion:    23.587
   Size of expansion space: 24
   Lowest Energy          :     0.097153117882
   Maximum Energy change  :     0.000095861584 (vector 2)
   Maximum residual norm  :     0.000009982654

                       ****Iteration   15****
   Time for densities:     1.232
   Using LibInt in JK Direct
   Time for J+K (Direct):  1382.501
   Time for Sigma-Completion:    23.589
   Size of expansion space: 27
   Lowest Energy          :     0.097153117880
   Maximum Energy change  :     0.000025784234 (vector 2)
   Maximum residual norm  :     0.000003756362

                       ****Iteration   16****
   Time for densities:     1.231
   Using LibInt in JK Direct
   Time for J+K (Direct):  1387.843
   Time for Sigma-Completion:    22.529
   Size of expansion space: 30
   Lowest Energy          :     0.097153117879
   Maximum Energy change  :     0.000009272590 (vector 2)
   Maximum residual norm  :     0.000001205495
   Rebuilding the expansion space

                       ****Iteration   17****
   Time for densities:     2.451
   Using LibInt in JK Direct
   Time for J+K (Direct):  2630.937
   Time for Sigma-Completion:    47.545
   Size of expansion space: 6
   Lowest Energy          :     0.097153117878
   Maximum Energy change  :     0.000003550305 (vector 2)
   Maximum residual norm  :     0.000000864200

                       ****Iteration   18****
   Time for densities:     1.233
   Using LibInt in JK Direct
   Time for J+K (Direct):  1426.526
   Time for Sigma-Completion:    22.599
   Size of expansion space: 9
   Lowest Energy          :     0.097153117878
   Maximum Energy change  :     0.000003670635 (vector 2)
   Maximum residual norm  :     0.000000677500

                       ****Iteration   19****
   Time for densities:     0.831
   Using LibInt in JK Direct
   Time for J+K (Direct):  1009.455
   Time for Sigma-Completion:    14.778
   Size of expansion space: 11
   Lowest Energy          :     0.097153117878
   Maximum Energy change  :     0.000002802722 (vector 2)
   Maximum residual norm  :     0.000000372935

                       ****Iteration   20****
   Time for densities:     0.830
   Using LibInt in JK Direct
   Time for J+K (Direct):  1020.665
   Time for Sigma-Completion:    14.444
   Size of expansion space: 13
   Lowest Energy          :     0.097153117878
   Maximum Energy change  :     0.000000910407 (vector 2)
   Maximum residual norm  :     0.000000125216

      *** CONVERGENCE OF RESIDUAL NORM REACHED ***

Storing the converged CI vectors               ... Y15.cis1

                 *** DAVIDSON DONE ***

Total time for solving the CIS problem: 28965.242sec

-----------------------------
CIS-EXCITED STATES (SINGLETS)
-----------------------------

the weight of the individual excitations are printed if larger than 1.0e-02

STATE  1:  E=   0.097153 au      2.644 eV    21322.6 cm**-1
   278a -> 283a  :     0.012875 (c= -0.11346848)
   278a -> 287a  :     0.012861 (c= -0.11340689)
   281a -> 284a  :     0.153256 (c=  0.39147963)
   281a -> 286a  :     0.013554 (c=  0.11642180)
   282a -> 283a  :     0.676844 (c= -0.82270557)
   282a -> 285a  :     0.027275 (c=  0.16515117)
   282a -> 287a  :     0.018057 (c=  0.13437547)

STATE  2:  E=   0.120664 au      3.283 eV    26482.7 cm**-1
   278a -> 284a  :     0.070179 (c=  0.26491383)
   281a -> 283a  :     0.344946 (c= -0.58732142)
   282a -> 284a  :     0.411873 (c=  0.64177318)
   282a -> 286a  :     0.030556 (c=  0.17480251)
   282a -> 288a  :     0.014047 (c= -0.11852150)

STATE  3:  E=   0.156339 au      4.254 eV    34312.4 cm**-1
   271a -> 284a  :     0.017191 (c= -0.13111282)
   274a -> 284a  :     0.012575 (c=  0.11213900)
   278a -> 283a  :     0.170945 (c= -0.41345504)
   278a -> 285a  :     0.026086 (c= -0.16151150)
   281a -> 284a  :     0.186485 (c=  0.43183902)
   281a -> 286a  :     0.050873 (c= -0.22555119)
   282a -> 285a  :     0.234263 (c= -0.48400728)
   282a -> 286a  :     0.028863 (c=  0.16989019)
   282a -> 287a  :     0.073408 (c= -0.27093933)
   282a -> 289a  :     0.014070 (c=  0.11861787)


----------------------
CIS-EXCITATION SPECTRA
----------------------

Center of mass = ( 19.7562, -5.1933,  1.1528)
Calculating the Dipole integrals                  ... done
Transforming integrals                            ... done
Calculating the Linear Momentum integrals         ... done
Transforming integrals                            ... done
Calculating angular momentum integrals            ... done
Transforming integrals                            ... done

-----------------------------------------------------------------------------
         ABSORPTION SPECTRUM VIA TRANSITION ELECTRIC DIPOLE MOMENTS
-----------------------------------------------------------------------------
State   Energy    Wavelength  fosc         T2        TX        TY        TZ  
        (cm-1)      (nm)                 (au**2)    (au)      (au)      (au) 
-----------------------------------------------------------------------------
   1   21322.6    469.0   2.959909778  45.69966   4.44953  -5.08926   0.02877
   2   26482.7    377.6   0.834158297  10.36959   2.26343   2.10987  -0.89159
   3   34312.4    291.4   0.070935424   0.68059   0.16729   0.39615  -0.70404

-----------------------------------------------------------------------------
         ABSORPTION SPECTRUM VIA TRANSITION VELOCITY DIPOLE MOMENTS
-----------------------------------------------------------------------------
State   Energy    Wavelength   fosc        P2         PX        PY        PZ  
        (cm-1)      (nm)                 (au**2)     (au)      (au)      (au) 
-----------------------------------------------------------------------------
   1   21322.6    469.0   1.836640134   0.26765  -0.32376   0.40250  -0.02878
   2   26482.7    377.6   0.244707878   0.04429  -0.16911  -0.12163   0.03000
   3   34312.4    291.4   0.026244724   0.00615  -0.06016   0.01249   0.04878

-------------------------------------------------------------------
                             CD SPECTRUM
-------------------------------------------------------------------
State  Energy     Wavelength     R         MX        MY        MZ   
       (cm-1)       (nm)     (1e40*cgs)   (au)      (au)      (au)  
-------------------------------------------------------------------
   1   21322.6    469.0    133.48304   0.36485   0.27401   1.88533
   2   26482.7    377.6    -137.24011  -0.15156  -0.12475  -0.35346
   3   34312.4    291.4    -130.84886   0.12124   0.07512   0.46529

Total run time:    29078.788 sec

           *** ORCA-CIS/TD-DFT FINISHED WITHOUT ERROR ***

-----------------------
CIS/TD-DFT TOTAL ENERGY
-----------------------

    E(SCF)  =  -6127.490742577 Eh
    DE(CIS) =      0.097153118 Eh (Root  1)
    ----------------------------- ---------
    E(tot)  =  -6127.393589459 Eh


-------------------------   --------------------
FINAL SINGLE POINT ENERGY     -6127.393589458694
-------------------------   --------------------

------------------------------------------------------------------------------
                         ORCA SCF GRADIENT CALCULATION
------------------------------------------------------------------------------


------------
CIS GRADIENT
------------

Reference wavefunction             ... RHF
State of interest                  ... 1
Basis dimension                    ... 1209
DFT-XC contribution needed         ... NO
RI-approximation                   ... OFF
CIS-vectors being read from        ... Y15.cis

 => Number of Vectors found: 3
 => Orbital Window: 105...282 -> 283...1208

Reading the CIS file                     ... done
Norm of the CI vector                    ... 1.000000000
Making the CIS (pseudo)densities         ... done
Making operators G(D) and Q(T)           ... done
Transforming the Fock operators          ... done
Making the frozen-core relaxed density   ... done
Constructing the G(H) operator           ... done
Transforming the G(H) operator           ... done
Calculating the CIS Lagrangian           ... done
Solving the Z-vector equations           ... done
Finalizing the relaxed density           ... done
Storing the relaxed density              ... done
Constructing the G(Z) operator           ... done
Transforming the G(Z) operator           ... done
Making the W-matrix                      ... done
Finalizing the W-matrix                  ... done
Transforming the W-matrix                ... done
Nuclear repulsion gradient               ... done
One-Electron gradient                    ... done
Prescreening matrices                    ... done
Two-Electron gradient (4-center)         ... done
                 ---------------------------
                 EXCITED STATE GRADIENT DONE
                 ---------------------------


------------------
CARTESIAN GRADIENT
------------------

   1   C   :   -0.025333888    0.032843163    0.011760386
   2   O   :    0.030374558   -0.040863800   -0.013496128
   3   C   :    0.003132065   -0.011141243   -0.000272727
   4   C   :    0.001142390   -0.000277394   -0.000804422
   5   C   :    0.010092222   -0.000957085   -0.006548078
   6   Cl  :    0.001821891    0.002483457   -0.001379698
   7   C   :   -0.006055017    0.009983102    0.002061398
   8   Cl  :    0.000697636    0.003217682   -0.001333910
   9   C   :   -0.001289058    0.000271904    0.000935572
  10   C   :   -0.014202488   -0.004083024    0.010532303
  11   C   :    0.012629398    0.003166290   -0.009488245
  12   C   :   -0.014482924    0.005283553    0.009083508
  13   C   :    0.044864794    0.042941664   -0.040438099
  14   N   :   -0.041189655   -0.044324785    0.037880649
  15   C   :    0.025902619   -0.070558083   -0.004267414
  16   N   :   -0.023160578    0.066906368    0.003363867
  17   C   :   -0.002388153   -0.001344005    0.001930396
  18   C   :    0.007805819    0.000828893   -0.005472089
  19   C   :   -0.004079231    0.003758106    0.000852512
  20   S   :    0.006879025    0.003866900   -0.005241571
  21   C   :    0.004271114    0.008997398   -0.006708008
  22   C   :   -0.005567333   -0.007094382    0.003710333
  23   C   :   -0.009703975    0.007475519    0.004751891
  24   C   :    0.005328422   -0.002107594   -0.008615346
  25   C   :    0.004327930    0.000244908    0.004367363
  26   S   :   -0.003818166   -0.001390283    0.002098733
  27   C   :   -0.011451349    0.009154986    0.002124929
  28   C   :   -0.000020258    0.001790109   -0.001398994
  29   N   :    0.006368043   -0.000717534   -0.002713497
  30   C   :   -0.006027215   -0.004065182    0.000476280
  31   C   :    0.002840776    0.000920541    0.003675328
  32   C   :   -0.001951424    0.002524186    0.000159611
  33   C   :    0.003378814   -0.023827687    0.006939978
  34   C   :    0.012909462    0.029463123   -0.015741865
  35   N   :   -0.038446233    0.024732843    0.010737094
  36   N   :   -0.016765197   -0.017809719    0.016051153
  37   C   :    0.000511012    0.000632307   -0.007266357
  38   C   :    0.002297924    0.002200414    0.003452704
  39   N   :    0.020624024   -0.041654243    0.002879635
  40   C   :    0.028601008    0.012056373   -0.017991626
  41   C   :   -0.023916793    0.003671525    0.006863078
  42   C   :    0.000864517   -0.002989404   -0.002068082
  43   N   :    0.001003228    0.008886238   -0.000773303
  44   C   :   -0.003558017   -0.005248460   -0.006688506
  45   C   :   -0.000840732    0.000635862    0.005460042
  46   C   :    0.002976849   -0.000433278   -0.001526735
  47   C   :    0.008252218   -0.011956158   -0.000077858
  48   S   :   -0.001462751   -0.004578171    0.001645806
  49   C   :   -0.007445794   -0.005495177    0.003635351
  50   C   :    0.010453925    0.005193134   -0.004352627
  51   S   :   -0.000584958    0.007088048   -0.003888077
  52   C   :    0.003533556   -0.006217062    0.001245376
  53   C   :    0.007436555   -0.010091106    0.003386845
  54   C   :   -0.000620022    0.008126575   -0.010057403
  55   C   :   -0.001151436    0.003806104    0.004972793
  56   C   :   -0.001142565   -0.002847136    0.002773866
  57   C   :   -0.001177245    0.002008982   -0.003508434
  58   C   :    0.001217081   -0.010469795    0.014286958
  59   C   :    0.006722321    0.007523634   -0.016496582
  60   C   :   -0.069961775    0.009962103    0.027271804
  61   N   :    0.066264769   -0.010254682   -0.024354661
  62   C   :    0.037847435   -0.043965118    0.047665803
  63   N   :   -0.036884469    0.041768909   -0.043063504
  64   C   :   -0.002180081    0.010836985   -0.014739183
  65   C   :    0.000318943    0.001057706   -0.001789898
  66   C   :    0.010364442   -0.000385735   -0.005779538
  67   Cl  :    0.002912889   -0.001979517    0.001532880
  68   C   :   -0.002020180   -0.005885483    0.009346519
  69   Cl  :    0.001718844   -0.001759441    0.001028004
  70   C   :   -0.000664928   -0.000302754    0.001577343
  71   C   :   -0.010812685    0.002180519    0.003255573
  72   C   :    0.027785379   -0.004692832   -0.029370760
  73   O   :   -0.036678692   -0.000422639    0.035094854
  74   H   :    0.005953441   -0.004636615   -0.003444358
  75   H   :   -0.006848167    0.004736884    0.004011227
  76   H   :   -0.009626182    0.001316874    0.005963451
  77   H   :   -0.000483716    0.008339509    0.002833448
  78   H   :   -0.000775803   -0.005048404    0.005048165
  79   H   :    0.001506705    0.005526881   -0.005105720
  80   H   :   -0.006061805    0.001514168    0.003854162
  81   H   :   -0.000175802   -0.005779730   -0.003686405
  82   H   :    0.011062136   -0.004122038    0.000615741
  83   H   :   -0.000469508    0.008824043    0.001331480
  84   H   :    0.000282887   -0.006883213   -0.000325014
  85   H   :    0.003587631    0.002947072   -0.005014312
  86   H   :   -0.006525630    0.002782869    0.000075257
  87   H   :   -0.004917867    0.004902686    0.004812286
  88   H   :    0.004838954   -0.005180277    0.004639195
  89   H   :   -0.003789331    0.004724387   -0.004355515
  90   H   :   -0.004527519   -0.004498624    0.003394176
  91   H   :    0.004689081   -0.003758946   -0.004461526
  92   H   :    0.006893179   -0.001535134    0.003972895
  93   H   :   -0.004900597    0.007643120    0.002430908
  94   H   :    0.003453697   -0.006585661   -0.002007798
  95   H   :    0.004091315    0.004820599   -0.002039271
  96   H   :   -0.006859763    0.001786736   -0.003763286
  97   H   :   -0.006833255   -0.001600236    0.003684870
  98   H   :    0.009760939   -0.000561102    0.008299230
  99   H   :   -0.003992157    0.001545111   -0.004984547
 100   H   :   -0.000604375   -0.006749838    0.002491327
 101   H   :    0.007428358    0.002309748   -0.002432017
 102   H   :    0.004103472    0.006252069   -0.008037208
 103   H   :    0.005421912    0.002950844   -0.007028290
 104   H   :   -0.005120869   -0.002283905    0.006072156

Difference to translation invariance:
           :    0.0000000000    0.0000000003    0.0000000001

Norm of the cartesian gradient     ...    0.2610675350
RMS gradient                       ...    0.0147800387
MAX gradient                       ...    0.0705580835

-------
TIMINGS
-------

Total CIS gradient time            ...    19984.035 sec

Fock matrix formation       ....    1574.148 sec  (  7.9%)
  Coulomb formation         ....    1574.148 sec  (100.0% of F)
Z-vector equation           ....   16538.226 sec  ( 82.8%)
One electron gradient       ....      13.120 sec  (  0.1%)
Prescreening matrices       ....       1.139 sec  (  0.0%)
Two electron gradient       ....    1854.164 sec  (  9.3%)

                            ***************************************
                            *     ORCA property calculations      *
                            ***************************************

                                    ---------------------
                                    Active property flags
                                    ---------------------
   (+) Dipole Moment


------------------------------------------------------------------------------
                       ORCA ELECTRIC PROPERTIES CALCULATION
------------------------------------------------------------------------------

Dipole Moment Calculation                       ... on
Quadrupole Moment Calculation                   ... off
Polarizability Calculation                      ... off
GBWName                                         ... Y15.gbw
Electron density file                           ... Y15.scfp
The origin for moment calculation is the CENTER OF MASS  = (19.756195, -5.193284  1.152788)

-------------
DIPOLE MOMENT
-------------
                                X             Y             Z
Electronic contribution:     65.53111      37.07988      -0.55281
Nuclear contribution   :    -66.61034     -39.44914       1.12018
                        -----------------------------------------
Total Dipole Moment    :     -1.07923      -2.36926       0.56737
                        -----------------------------------------
Magnitude (a.u.)       :      2.66459
Magnitude (Debye)      :      6.77285



--------------------
Rotational spectrum 
--------------------
 
Rotational constants in cm-1:     0.001235     0.000215     0.000188 
Rotational constants in MHz :    37.030059     6.437481     5.639241 

 Dipole components along the rotational axes: 
x,y,z [a.u.] :    -1.193804    -2.338263    -0.455414 
x,y,z [Debye]:    -3.034410    -5.943392    -1.157571 

 

                        *** CIS RELAXED DENSITY ***

------------------------------------------------------------------------------
                       ORCA ELECTRIC PROPERTIES CALCULATION
------------------------------------------------------------------------------

Dipole Moment Calculation                       ... on
Quadrupole Moment Calculation                   ... off
Polarizability Calculation                      ... off
GBWName                                         ... Y15.gbw
Electron density file                           ... Y15.cisp
The origin for moment calculation is the CENTER OF MASS  = (19.756195, -5.193284  1.152788)

-------------
DIPOLE MOMENT
-------------
                                X             Y             Z
Electronic contribution:     64.77043      36.57540      -0.28869
Nuclear contribution   :    -66.61034     -39.44914       1.12018
                        -----------------------------------------
Total Dipole Moment    :     -1.83991      -2.87374       0.83149
                        -----------------------------------------
Magnitude (a.u.)       :      3.51212
Magnitude (Debye)      :      8.92711



--------------------
Rotational spectrum 
--------------------
 
Rotational constants in cm-1:     0.001235     0.000215     0.000188 
Rotational constants in MHz :    37.030059     6.437481     5.639241 

 Dipole components along the rotational axes: 
x,y,z [a.u.] :    -1.124239    -3.280602    -0.555654 
x,y,z [Debye]:    -2.857589    -8.338627    -1.412360 

 

Timings for individual modules:

Sum of individual times         ...    53983.620 sec (= 899.727 min)
GTO integral calculation        ...        4.202 sec (=   0.070 min)   0.0 %
SCF iterations                  ...     4915.100 sec (=  81.918 min)   9.1 %
CIS module                      ...    29078.850 sec (= 484.647 min)  53.9 %
SCF Gradient evaluation         ...    19985.469 sec (= 333.091 min)  37.0 %
                             ****ORCA TERMINATED NORMALLY****
TOTAL RUN TIME: 0 days 14 hours 59 minutes 44 seconds 451 msec
