
                                 *****************
                                 * O   R   C   A *
                                 *****************

           --- An Ab Initio, DFT and Semiempirical electronic structure package ---

                  #######################################################
                  #                        -***-                        #
                  #          Department of theory and spectroscopy      #
                  #               Directorship: Frank Neese             #
                  #        Max Planck Institute fuer Kohlenforschung    #
                  #                Kaiser Wilhelm Platz 1               #
                  #                 D-45470 Muelheim/Ruhr               #
                  #                      Germany                        #
                  #                                                     #
                  #                  All rights reserved                #
                  #                        -***-                        #
                  #######################################################


                         Program Version 4.2.0 -  RELEASE  -


 With contributions from (in alphabetic order):
   Daniel Aravena         : Magnetic Suceptibility
   Michael Atanasov       : Ab Initio Ligand Field Theory (pilot matlab implementation)
   Alexander A. Auer      : GIAO ZORA, VPT2
   Ute Becker             : Parallelization
   Giovanni Bistoni       : ED, misc. LED, open-shell LED, HFLED
   Martin Brehm           : Molecular dynamics
   Dmytro Bykov           : SCF Hessian
   Vijay G. Chilkuri      : MRCI spin determinant printing, contributions to CSF-ICE
   Dipayan Datta          : RHF DLPNO-CCSD density
   Achintya Kumar Dutta   : EOM-CC, STEOM-CC
   Dmitry Ganyushin       : Spin-Orbit,Spin-Spin,Magnetic field MRCI
   Miquel Garcia          : C-PCM Hessian, Gaussian charge scheme
   Yang Guo               : DLPNO-NEVPT2, CIM, IAO-localization
   Andreas Hansen         : Spin unrestricted coupled pair/coupled cluster methods
   Benjamin Helmich-Paris : CASSCF linear response (MC-RPA)
   Lee Huntington         : MR-EOM, pCC
   Robert Izsak           : Overlap fitted RIJCOSX, COSX-SCS-MP3, EOM
   Christian Kollmar      : KDIIS, OOCD, Brueckner-CCSD(T), CCSD density
   Simone Kossmann        : Meta GGA functionals, TD-DFT gradient, OOMP2, MP2 Hessian
   Martin Krupicka        : AUTO-CI
   Lucas Lang             : DCDCAS
   Dagmar Lenk            : GEPOL surface, SMD
   Dimitrios Liakos       : Extrapolation schemes; Compound Job, initial MDCI parallelization
   Dimitrios Manganas     : Further ROCIS development; embedding schemes
   Dimitrios Pantazis     : SARC Basis sets
   Taras Petrenko         : DFT Hessian,TD-DFT gradient, ASA, ECA, R-Raman, ABS, FL, XAS/XES, NRVS
   Peter Pinski           : DLPNO-MP2, DLPNO-MP2 Gradient
   Christoph Reimann      : Effective Core Potentials
   Marius Retegan         : Local ZFS, SOC
   Christoph Riplinger    : Optimizer, TS searches, QM/MM, DLPNO-CCSD(T), (RO)-DLPNO pert. Triples
   Tobias Risthaus        : Range-separated hybrids, TD-DFT gradient, RPA, STAB
   Michael Roemelt        : Original ROCIS implementation
   Masaaki Saitow         : Open-shell DLPNO-CCSD energy and density
   Barbara Sandhoefer     : DKH picture change effects
   Avijit Sen             : IP-ROCIS
   Kantharuban Sivalingam : CASSCF convergence, NEVPT2, FIC-MRCI
   Bernardo de Souza      : ESD, SOC TD-DFT
   Georgi Stoychev        : AutoAux, RI-MP2 NMR
   Willem Van den Heuvel  : Paramagnetic NMR
   Boris Wezisla          : Elementary symmetry handling
   Frank Wennmohs         : Technical directorship


 We gratefully acknowledge several colleagues who have allowed us to
 interface, adapt or use parts of their codes:
   Stefan Grimme, W. Hujo, H. Kruse,             : VdW corrections, initial TS optimization,
                  C. Bannwarth                     DFT functionals, gCP, sTDA/sTD-DF
   Ed Valeev, F. Pavosevic, A. Kumar             : LibInt (2-el integral package), F12 methods
   Garnet Chan, S. Sharma, J. Yang, R. Olivares  : DMRG
   Ulf Ekstrom                                   : XCFun DFT Library
   Mihaly Kallay                                 : mrcc  (arbitrary order and MRCC methods)
   Andreas Klamt, Michael Diedenhofen            : otool_cosmo (COSMO solvation model)
   Jiri Pittner, Ondrej Demel                    : Mk-CCSD
   Frank Weinhold                                : gennbo (NPA and NBO analysis)
   Christopher J. Cramer and Donald G. Truhlar   : smd solvation model
   Lars Goerigk                                  : TD-DFT with DH, B97 family of functionals
   V. Asgeirsson, H. Jonsson                     : NEB implementation
   FAccTs GmbH                                   : IRC, NEB, NEB-TS, Multilevel, MM, QM/MM, CI optimization
   S Lehtola, MJT Oliveira, MAL Marques          : LibXC Library


 Your calculation uses the libint2 library for the computation of 2-el integrals
 For citations please refer to: http://libint.valeyev.net

 Your ORCA version has been built with support for libXC version: 4.2.3
 For citations please refer to: https://tddft.org/programs/libxc/

 This ORCA versions uses:
   CBLAS   interface :  Fast vector & matrix operations
   LAPACKE interface :  Fast linear algebra routines
   SCALAPACK package :  Parallel linear algebra routines


----- Orbital basis set information -----
Your calculation utilizes the basis: def2-SVP
   F. Weigend and R. Ahlrichs, Phys. Chem. Chem. Phys. 7, 3297 (2005).

================================================================================
                                        WARNINGS
                       Please study these warnings very carefully!
================================================================================

INFO   : Checking CIS options ...

WARNING: CIS/ROCIS methods need fully converged wavefunctions
  ===> : Setting SCFConvForced true
         You can overwrite this default with %scf ConvForced false 


INFO   : the flag for use of LIBINT has been found!

================================================================================
                                       INPUT FILE
================================================================================
NAME = Y15.inp
|  1> # ORCA input file
|  2> # Y15.out
|  3> ! Engrad Keepdens
|  4> %maxcore 1000
|  5> %tddft
|  6>   nroots 3 
|  7>   # nroots is the number of states to be computed
|  8>   Iroot 1
|  9>   end
| 10> * xyz 0 1
| 11>    C        4.80123         3.56747         0.79132
| 12>    O        6.00162         3.68995         0.61660
| 13>    C        3.85957         4.64994         1.13971
| 14>    C        4.12006         5.99036         1.33294
| 15>    C        3.05910         6.82546         1.66139
| 16>   Cl        3.34002         8.50131         1.91118
| 17>    C        1.76723         6.30556         1.78877
| 18>   Cl        0.46413         7.34795         2.19539
| 19>    C        1.51062         4.95205         1.59252
| 20>    C        2.56523         4.11666         1.26549
| 21>    C        2.62142         2.67784         1.00425
| 22>    C        1.54517         1.82764         1.05133
| 23>    C        1.57771         0.43856         0.81068
| 24>    N        1.51848        -0.69508         0.63207
| 25>    C        0.22962         2.23448         1.35868
| 26>    N       -0.86236         2.49418         1.59907
| 27>    C        3.99995         2.34666         0.70822
| 28>    C        4.46588         1.08669         0.40603
| 29>    C        5.75357         0.62728         0.12545
| 30>    S        7.20304         1.63366         0.09494
| 31>    C        8.16619         0.25257        -0.27180
| 32>    C        7.39315        -0.92019        -0.37189
| 33>    C        6.03910        -0.72518        -0.15054
| 34>    C        5.03366        -1.82429        -0.25731
| 35>    C        4.38810        -1.83632        -1.64603
| 36>    S        8.33309        -2.35516        -0.73693
| 37>    C        9.76362        -1.37871        -0.75188
| 38>    C        9.51681        -0.01309        -0.49024
| 39>    N       10.68799         0.68073        -0.53725
| 40>    C       10.77719         2.09846        -0.29499
| 41>    C       10.56125         2.42912         1.18003
| 42>    C       11.69391        -0.20698        -0.84760
| 43>    C       11.12727        -1.51868        -0.98185
| 44>    C       11.96068        -2.64338        -1.22637
| 45>    N       11.69649        -3.94870        -1.20287
| 46>    N       12.83628        -4.51966        -1.49010
| 47>    C       13.01474        -5.94710        -1.48103
| 48>    C       11.67815        -6.66602        -1.50197
| 49>    N       13.84640        -3.70681        -1.71478
| 50>    C       13.33593        -2.49514        -1.53677
| 51>    C       13.87884        -1.16284        -1.67335
| 52>    C       13.04642        -0.04549        -1.13751
| 53>    N       14.15011         0.70298        -0.84935
| 54>    C       14.44276         2.05984        -0.48294
| 55>    C       14.39412         2.26461         1.02938
| 56>    C       15.05897        -0.33107        -1.15198
| 57>    C       14.67089        -0.79547        -2.92755
| 58>    S       14.33384         0.75598        -3.72639
| 59>    C       16.01066         0.92178        -3.18828
| 60>    C       16.00416        -0.27673        -2.35737
| 61>    S       17.48758        -1.21990        -2.01176
| 62>    C       17.13388         0.30464        -5.02709
| 63>    C       17.00397         1.32766        -4.21002
| 64>    C       17.56241         2.70188        -4.29805
| 65>    C       18.42095         2.89140        -5.54093
| 66>    C       16.75325        -0.87702        -5.39497
| 67>    C       16.26827        -2.01011        -5.62267
| 68>    C       14.98629        -5.22562        -5.15606
| 69>    C       15.21723        -6.57281        -4.99651
| 70>    C       14.18935        -7.46953        -4.67027
| 71>    N       13.36756        -8.21825        -4.37895
| 72>    C       16.50626        -7.12165        -5.13656
| 73>    N       17.54967        -7.58348        -5.25471
| 74>    C       13.75673        -4.48208        -5.05060
| 75>    C       12.46410        -4.82603        -4.67575
| 76>    C       11.53894        -3.80847        -4.51943
| 77>   Cl        9.94437        -4.18256        -3.99483
| 78>    C       11.88842        -2.46872        -4.76322
| 79>   Cl       10.73430        -1.22836        -4.47224
| 80>    C       13.14818        -2.12450        -5.21165
| 81>    C       14.08758        -3.14067        -5.34406
| 82>    C       15.50348        -3.10616        -5.55256
| 83>    O       15.99821        -4.38029        -5.43553
| 84>    H        5.12152         6.37759         1.23182
| 85>    H        0.50146         4.59021         1.70005
| 86>    H        3.72002         0.30434         0.38300
| 87>    H        4.25691        -1.72304         0.50196
| 88>    H        5.54816        -2.77369        -0.09596
| 89>    H        3.87124        -0.89924        -1.83941
| 90>    H        3.66693        -2.64602        -1.70851
| 91>    H        5.14468        -1.98117        -2.41369
| 92>    H       10.00945         2.60058        -0.89274
| 93>    H       11.75658         2.43833        -0.62921
| 94>    H       11.22336         1.83827         1.80946
| 95>    H        9.53489         2.21992         1.46835
| 96>    H       10.75659         3.48339         1.35266
| 97>    H       13.58004        -6.21552        -0.58146
| 98>    H       13.62357        -6.21172        -2.34859
| 99>    H       11.12116        -6.45766        -0.59326
|100>    H       11.84680        -7.73525        -1.58626
|101>    H       11.08037        -6.33818        -2.34678
|102>    H       13.75068         2.73718        -0.99287
|103>    H       15.45252         2.27280        -0.84649
|104>    H       13.41200         2.01851         1.42169
|105>    H       14.61775         3.30029         1.26890
|106>    H       15.12949         1.62601         1.51245
|107>    H       18.15153         2.89368        -3.39474
|108>    H       16.73107         3.41447        -4.29500
|109>    H       19.25172         2.18913        -5.53875
|110>    H       18.82118         3.90131        -5.57336
|111>    H       17.83104         2.72256        -6.43903
|112>    H       17.96920        -1.21602        -3.25338
|113>    H       12.18422        -5.84991        -4.48914
|114>    H       13.39608        -1.10080        -5.43566
|115> *
|116> 
|117>                          ****END OF INPUT****
================================================================================

                     *******************************
                     * Energy+Gradient Calculation *
                     *******************************

---------------------------------
CARTESIAN COORDINATES (ANGSTROEM)
---------------------------------
  C      4.801230    3.567470    0.791320
  O      6.001620    3.689950    0.616600
  C      3.859570    4.649940    1.139710
  C      4.120060    5.990360    1.332940
  C      3.059100    6.825460    1.661390
  Cl     3.340020    8.501310    1.911180
  C      1.767230    6.305560    1.788770
  Cl     0.464130    7.347950    2.195390
  C      1.510620    4.952050    1.592520
  C      2.565230    4.116660    1.265490
  C      2.621420    2.677840    1.004250
  C      1.545170    1.827640    1.051330
  C      1.577710    0.438560    0.810680
  N      1.518480   -0.695080    0.632070
  C      0.229620    2.234480    1.358680
  N     -0.862360    2.494180    1.599070
  C      3.999950    2.346660    0.708220
  C      4.465880    1.086690    0.406030
  C      5.753570    0.627280    0.125450
  S      7.203040    1.633660    0.094940
  C      8.166190    0.252570   -0.271800
  C      7.393150   -0.920190   -0.371890
  C      6.039100   -0.725180   -0.150540
  C      5.033660   -1.824290   -0.257310
  C      4.388100   -1.836320   -1.646030
  S      8.333090   -2.355160   -0.736930
  C      9.763620   -1.378710   -0.751880
  C      9.516810   -0.013090   -0.490240
  N     10.687990    0.680730   -0.537250
  C     10.777190    2.098460   -0.294990
  C     10.561250    2.429120    1.180030
  C     11.693910   -0.206980   -0.847600
  C     11.127270   -1.518680   -0.981850
  C     11.960680   -2.643380   -1.226370
  N     11.696490   -3.948700   -1.202870
  N     12.836280   -4.519660   -1.490100
  C     13.014740   -5.947100   -1.481030
  C     11.678150   -6.666020   -1.501970
  N     13.846400   -3.706810   -1.714780
  C     13.335930   -2.495140   -1.536770
  C     13.878840   -1.162840   -1.673350
  C     13.046420   -0.045490   -1.137510
  N     14.150110    0.702980   -0.849350
  C     14.442760    2.059840   -0.482940
  C     14.394120    2.264610    1.029380
  C     15.058970   -0.331070   -1.151980
  C     14.670890   -0.795470   -2.927550
  S     14.333840    0.755980   -3.726390
  C     16.010660    0.921780   -3.188280
  C     16.004160   -0.276730   -2.357370
  S     17.487580   -1.219900   -2.011760
  C     17.133880    0.304640   -5.027090
  C     17.003970    1.327660   -4.210020
  C     17.562410    2.701880   -4.298050
  C     18.420950    2.891400   -5.540930
  C     16.753250   -0.877020   -5.394970
  C     16.268270   -2.010110   -5.622670
  C     14.986290   -5.225620   -5.156060
  C     15.217230   -6.572810   -4.996510
  C     14.189350   -7.469530   -4.670270
  N     13.367560   -8.218250   -4.378950
  C     16.506260   -7.121650   -5.136560
  N     17.549670   -7.583480   -5.254710
  C     13.756730   -4.482080   -5.050600
  C     12.464100   -4.826030   -4.675750
  C     11.538940   -3.808470   -4.519430
  Cl     9.944370   -4.182560   -3.994830
  C     11.888420   -2.468720   -4.763220
  Cl    10.734300   -1.228360   -4.472240
  C     13.148180   -2.124500   -5.211650
  C     14.087580   -3.140670   -5.344060
  C     15.503480   -3.106160   -5.552560
  O     15.998210   -4.380290   -5.435530
  H      5.121520    6.377590    1.231820
  H      0.501460    4.590210    1.700050
  H      3.720020    0.304340    0.383000
  H      4.256910   -1.723040    0.501960
  H      5.548160   -2.773690   -0.095960
  H      3.871240   -0.899240   -1.839410
  H      3.666930   -2.646020   -1.708510
  H      5.144680   -1.981170   -2.413690
  H     10.009450    2.600580   -0.892740
  H     11.756580    2.438330   -0.629210
  H     11.223360    1.838270    1.809460
  H      9.534890    2.219920    1.468350
  H     10.756590    3.483390    1.352660
  H     13.580040   -6.215520   -0.581460
  H     13.623570   -6.211720   -2.348590
  H     11.121160   -6.457660   -0.593260
  H     11.846800   -7.735250   -1.586260
  H     11.080370   -6.338180   -2.346780
  H     13.750680    2.737180   -0.992870
  H     15.452520    2.272800   -0.846490
  H     13.412000    2.018510    1.421690
  H     14.617750    3.300290    1.268900
  H     15.129490    1.626010    1.512450
  H     18.151530    2.893680   -3.394740
  H     16.731070    3.414470   -4.295000
  H     19.251720    2.189130   -5.538750
  H     18.821180    3.901310   -5.573360
  H     17.831040    2.722560   -6.439030
  H     17.969200   -1.216020   -3.253380
  H     12.184220   -5.849910   -4.489140
  H     13.396080   -1.100800   -5.435660

----------------------------
CARTESIAN COORDINATES (A.U.)
----------------------------
  NO LB      ZA    FRAG     MASS         X           Y           Z
   0 C     6.0000    0    12.011    9.073010    6.741541    1.495378
   1 O     8.0000    0    15.999   11.341418    6.972995    1.165205
   2 C     6.0000    0    12.011    7.293530    8.787113    2.153740
   3 C     6.0000    0    12.011    7.785785   11.320140    2.518892
   4 C     6.0000    0    12.011    5.780861   12.898250    3.139572
   5 Cl   17.0000    0    35.453    6.311723   16.065148    3.611607
   6 C     6.0000    0    12.011    3.339581   11.915782    3.380285
   7 Cl   17.0000    0    35.453    0.877079   13.885613    4.148686
   8 C     6.0000    0    12.011    2.854658    9.358018    3.009427
   9 C     6.0000    0    12.011    4.847582    7.779360    2.391430
  10 C     6.0000    0    12.011    4.953766    5.060384    1.897757
  11 C     6.0000    0    12.011    2.919948    3.453739    1.986726
  12 C     6.0000    0    12.011    2.981440    0.828758    1.531963
  13 N     7.0000    0    14.007    2.869511   -1.313511    1.194439
  14 C     6.0000    0    12.011    0.433919    4.222555    2.567533
  15 N     7.0000    0    14.007   -1.629624    4.713317    3.021804
  16 C     6.0000    0    12.011    7.558810    4.434545    1.338342
  17 C     6.0000    0    12.011    8.439290    2.053546    0.767286
  18 C     6.0000    0    12.011   10.872672    1.185387    0.237066
  19 S    16.0000    0    32.060   13.611773    3.087170    0.179411
  20 C     6.0000    0    12.011   15.431863    0.477288   -0.513628
  21 C     6.0000    0    12.011   13.971029   -1.738907   -0.702770
  22 C     6.0000    0    12.011   11.412245   -1.370392   -0.284479
  23 C     6.0000    0    12.011    9.512239   -3.447408   -0.486245
  24 C     6.0000    0    12.011    8.292307   -3.470142   -3.110546
  25 S    16.0000    0    32.060   15.747258   -4.450607   -1.392596
  26 C     6.0000    0    12.011   18.450568   -2.605384   -1.420847
  27 C     6.0000    0    12.011   17.984165   -0.024737   -0.926419
  28 N     7.0000    0    14.007   20.197374    1.286393   -1.015255
  29 C     6.0000    0    12.011   20.365938    3.965515   -0.557450
  30 C     6.0000    0    12.011   19.957870    4.590372    2.229934
  31 C     6.0000    0    12.011   22.098287   -0.391136   -1.601732
  32 C     6.0000    0    12.011   21.027493   -2.869889   -1.855428
  33 C     6.0000    0    12.011   22.602410   -4.995264   -2.317503
  34 N     7.0000    0    14.007   22.103163   -7.461962   -2.273095
  35 N     7.0000    0    14.007   24.257054   -8.540920   -2.815881
  36 C     6.0000    0    12.011   24.594294  -11.238390   -2.798741
  37 C     6.0000    0    12.011   22.068505  -12.596952   -2.838312
  38 N     7.0000    0    14.007   26.165904   -7.004856   -3.240465
  39 C     6.0000    0    12.011   25.201255   -4.715131   -2.904074
  40 C     6.0000    0    12.011   26.227207   -2.197449   -3.162173
  41 C     6.0000    0    12.011   24.654161   -0.085964   -2.149582
  42 N     7.0000    0    14.007   26.739833    1.328440   -1.605039
  43 C     6.0000    0    12.011   27.292861    3.892533   -0.912624
  44 C     6.0000    0    12.011   27.200945    4.279493    1.945246
  45 C     6.0000    0    12.011   28.457329   -0.625632   -2.176927
  46 C     6.0000    0    12.011   27.723964   -1.503220   -5.532268
  47 S    16.0000    0    32.060   27.087032    1.428595   -7.041857
  48 C     6.0000    0    12.011   30.255763    1.741912   -6.024976
  49 C     6.0000    0    12.011   30.243479   -0.522944   -4.454784
  50 S    16.0000    0    32.060   33.046737   -2.305277   -3.801675
  51 C     6.0000    0    12.011   32.378341    0.575686   -9.499823
  52 C     6.0000    0    12.011   32.132846    2.508914   -7.955785
  53 C     6.0000    0    12.011   33.188145    5.105813   -8.122137
  54 C     6.0000    0    12.011   34.810551    5.463954  -10.470840
  55 C     6.0000    0    12.011   31.659054   -1.657328  -10.195016
  56 C     6.0000    0    12.011   30.742575   -3.798557  -10.625306
  57 C     6.0000    0    12.011   28.319984   -9.874991   -9.743541
  58 C     6.0000    0    12.011   28.756397  -12.420811   -9.442036
  59 C     6.0000    0    12.011   26.813986  -14.115366   -8.825531
  60 N     7.0000    0    14.007   25.261027  -15.530242   -8.275016
  61 C     6.0000    0    12.011   31.192311  -13.457968   -9.706692
  62 N     7.0000    0    14.007   33.164070  -14.330700   -9.929963
  63 C     6.0000    0    12.011   25.996452   -8.469904   -9.544251
  64 C     6.0000    0    12.011   23.553736   -9.119875   -8.835887
  65 C     6.0000    0    12.011   21.805436   -7.196965   -8.540485
  66 Cl   17.0000    0    35.453   18.792136   -7.903893   -7.549135
  67 C     6.0000    0    12.011   22.465858   -4.665205   -9.001181
  68 Cl   17.0000    0    35.453   20.284887   -2.321264   -8.451309
  69 C     6.0000    0    12.011   24.846459   -4.014723   -9.848591
  70 C     6.0000    0    12.011   26.621668   -5.935006  -10.098810
  71 C     6.0000    0    12.011   29.297331   -5.869792  -10.492818
  72 O     8.0000    0    15.999   30.232236   -8.277548  -10.271663
  73 H     1.0000    0     1.008    9.678270   12.051898    2.327802
  74 H     1.0000    0     1.008    0.947622    8.674240    3.212629
  75 H     1.0000    0     1.008    7.029819    0.575119    0.723765
  76 H     1.0000    0     1.008    8.044394   -3.256074    0.948567
  77 H     1.0000    0     1.008   10.484503   -5.241514   -0.181338
  78 H     1.0000    0     1.008    7.315583   -1.699317   -3.475981
  79 H     1.0000    0     1.008    6.929493   -5.000253   -3.228616
  80 H     1.0000    0     1.008    9.722036   -3.743869   -4.561213
  81 H     1.0000    0     1.008   18.915119    4.914384   -1.687034
  82 H     1.0000    0     1.008   22.216716    4.607776   -1.189035
  83 H     1.0000    0     1.008   21.209077    3.473827    3.419384
  84 H     1.0000    0     1.008   18.018331    4.195041    2.774779
  85 H     1.0000    0     1.008   20.327009    6.582653    2.556157
  86 H     1.0000    0     1.008   25.662556  -11.745631   -1.098800
  87 H     1.0000    0     1.008   25.744816  -11.738450   -4.438192
  88 H     1.0000    0     1.008   21.015947  -12.203209   -1.121099
  89 H     1.0000    0     1.008   22.387208  -14.617504   -2.997597
  90 H     1.0000    0     1.008   20.938865  -11.977424   -4.434771
  91 H     1.0000    0     1.008   25.985019    5.172521   -1.876252
  92 H     1.0000    0     1.008   29.201031    4.294970   -1.599634
  93 H     1.0000    0     1.008   25.345007    3.814431    2.686605
  94 H     1.0000    0     1.008   27.623544    6.236644    2.397873
  95 H     1.0000    0     1.008   28.590593    3.072714    2.858116
  96 H     1.0000    0     1.008   34.301421    5.468263   -6.415129
  97 H     1.0000    0     1.008   31.617140    6.452413   -8.116374
  98 H     1.0000    0     1.008   36.380478    4.136856  -10.466721
  99 H     1.0000    0     1.008   35.566876    7.372407  -10.532124
 100 H     1.0000    0     1.008   33.695782    5.144893  -12.168003
 101 H     1.0000    0     1.008   33.956867   -2.297945   -6.147997
 102 H     1.0000    0     1.008   23.024839  -11.054728   -8.483245
 103 H     1.0000    0     1.008   25.314922   -2.080211  -10.271909

--------------------------------
INTERNAL COORDINATES (ANGSTROEM)
--------------------------------
 C      0   0   0     0.000000000000     0.00000000     0.00000000
 O      1   0   0     1.219206537425     0.00000000     0.00000000
 C      1   2   0     1.476428274113   126.02336708     0.00000000
 C      3   1   2     1.379100666884   128.69665513     0.22983178
 C      4   3   1     1.389570989227   118.23070981   180.17406270
 Cl     5   4   3     1.717493613671   119.72901266   179.97787437
 C      5   4   3     1.398373974050   120.22913088     0.00000000
 Cl     7   5   4     1.717552429040   119.79093025   179.99076689
 C      7   5   4     1.391528682672   121.27511407     0.00000000
 C      9   7   5     1.384567558879   118.66728327     0.00000000
 C     10   9   7     1.463422921134   131.65353508   179.83601239
 C     11  10   9     1.372359511535   124.95032483   359.45146558
 C     12  11  10     1.410146985424   125.89562394   180.37049985
 N     13  12  11     1.149151589043   175.63474304   178.36152467
 C     12  11  10     1.410905599464   124.06023794     0.11892673
 N     15  12  11     1.147890135205   176.24864599   179.07204587
 C     11  10   9     1.448329698031   107.32863340   179.93598325
 C     17  11  10     1.376929178244   125.18185941   180.07100281
 C     18  17  11     1.395681991214   131.11148873   181.18315920
 S     19  18  17     1.764849808171   124.99635775     0.22379250
 C     20  19  18     1.723242797229    90.32677055   178.79023961
 C     21  20  19     1.408181404259   112.07147086     0.37993624
 C     22  21  20     1.385812442252   114.06890620   359.65645665
 C     23  22  21     1.493436379160   122.87622594   177.69221842
 C     24  23  22     1.531481528749   110.75653279   264.62634220
 S     22  21  20     1.753818778010   113.70285399   180.27654698
 C     26  22  21     1.732077996483    89.03601752     0.09484627
 C     21  20  19     1.393723664720   136.69830306   180.78433950
 N     28  21  20     1.362078824775   137.86532073   358.70059904
 C     29  28  21     1.441042990511   123.26858322     1.65589130
 C     30  29  28     1.526974171229   111.51121755    71.58083443
 C     29  28  21     1.377033482890   107.90979964   181.77283090
 C     27  26  22     1.389970907717   139.01866939   182.00150134
 C     33  27  26     1.421025104810   133.12165350   354.34342264
 N     34  33  27     1.331994335010   131.01531443   353.69684067
 N     35  34  33     1.306758446921   104.55455474   180.69170951
 C     36  35  34     1.438580964041   122.70822530   175.66209591
 C     37  36  35     1.517813321229   111.14065656    16.37079983
 N     36  35  34     1.315883216437   115.92429645   359.54587847
 C     39  36  35     1.326804947948   104.23343250     1.20034834
 C     40  39  36     1.445139666088   133.21200400   182.70877088
 C     32  29  28     1.392627060020   132.97018162   173.46013252
 N     42  32  29     1.364322228288   143.64015936    34.09626117
 C     43  42  32     1.435607665834   137.50407075   327.91624959
 C     44  43  42     1.526895014367   111.90398354    88.34850257
 C     43  42  32     1.409564052819    94.23268499   152.91455844
 C     41  40  39     1.528175892821   119.59769359    47.49730267
 S     47  41  40     1.777285894447   118.71470108   134.94484652
 C     48  47  41     1.768835019017    76.42656335   116.24152059
 C     49  48  47     1.458382630931    95.28273506   349.26917565
 S     50  49  48     1.791521927692   122.60696715   152.59510393
 C     49  48  47     2.241362791718   101.51798695    94.83106831
 C     52  49  48     1.315693700449    39.37090275   121.26238214
 C     53  52  49     1.485962692297   130.17946940   186.98040431
 C     54  53  52     1.522418949041   112.05025110   359.31847590
 C     52  49  48     1.294810892331   109.69752328   304.15611461
 C     56  52  49     1.253373782437   172.05168594     4.61780987
 C     57  56  52     3.492950353584   161.79993171   315.46061253
 C     58  57  56     1.376121499796   148.77217097   274.71348632
 C     59  58  57     1.402525076567   121.99850255   172.11048583
 N     60  59  58     1.149255317543   178.28091391   226.49088397
 C     59  58  57     1.407990656574   121.58187789   352.92235015
 N     62  59  58     1.147148987490   179.16728854   205.59108518
 C     58  57  56     1.440760679919    81.25209068    89.04433097
 C     64  58  57     1.389138741055   133.32160276   189.17702559
 C     65  64  58     1.384118969453   118.06170391   171.74924232
 Cl    66  65  64     1.719826146155   119.62153568   182.45948995
 C     66  65  64     1.405880470381   120.98716226     1.46389595
 Cl    68  66  65     1.719056504132   119.42945176   183.39997149
 C     68  66  65     1.380786779666   121.37778511     2.33488879
 C     70  68  66     1.390182087714   117.72440623   356.48147778
 C     57  56  52     1.338336564060   162.16996994     1.57041823
 O     58  57  56     1.347838408786    28.28449913   263.50961078
 H      4   3   1     1.078468571123   120.74672674     0.13810004
 H      9   7   5     1.077448278155   119.03219347   179.98950391
 H     18  17  11     1.081160969976   115.68282660     0.79368106
 H     24  23  22     1.090909280325   111.17975745   142.80432547
 H     24  23  22     1.091835350454   108.18815190    24.05013037
 H     25  24  23     1.087501269149   110.78216474   299.25339344
 H     25  24  23     1.086095764332   109.74990903   179.51529871
 H     25  24  23     1.087518595013   110.35734606    59.63567282
 H     30  29  28     1.094922035809   108.42054551   311.32424086
 H     30  29  28     1.089228808561   108.12272415   193.69519385
 H     31  30  29     1.087968519535   110.80502522    52.48566559
 H     31  30  29     1.086419767861   110.38074882   292.30573957
 H     31  30  29     1.086022129333   109.77493645   172.94619783
 H     37  36  35     1.095828258123   108.19309249   254.93062360
 H     37  36  35     1.092409294587   107.72749595   138.68493242
 H     38  37  36     1.086004426234   110.43988228   295.38509395
 H     38  37  36     1.085725757040   109.31384095   174.86570767
 H     38  37  36     1.085598420273   110.64622981    55.04654660
 H     44  43  42     1.094437210122   109.70142291   324.69221648
 H     44  43  42     1.094137021447   106.69553856   207.99322030
 H     45  44  43     1.085832418240   110.87115494   300.44523521
 H     45  44  43     1.086284156977   109.85819629   180.12566204
 H     45  44  43     1.087168626203   109.86309310    60.42902044
 H     54  53  52     1.095362301022   108.37305083   237.29075852
 H     54  53  52     1.094952056576   108.44283839   121.49212254
 H     55  54  53     1.087826593810   110.40611713   300.51100870
 H     55  54  53     1.086809075183   110.34748350   180.46812248
 H     55  54  53     1.087696816075   110.42066102    60.36925665
 H     51  50  49     1.331763155820    96.77995015   315.71300133
 H     65  64  58     1.077722766253   121.57452134   353.03079670
 H     70  68  66     1.076845662154   120.96935324   177.41441492

---------------------------
INTERNAL COORDINATES (A.U.)
---------------------------
 C      0   0   0     0.000000000000     0.00000000     0.00000000
 O      1   0   0     2.303966456420     0.00000000     0.00000000
 C      1   2   0     2.790045094451   126.02336708     0.00000000
 C      3   1   2     2.606122571519   128.69665513     0.22983178
 C      4   3   1     2.625908613280   118.23070981   180.17406270
 Cl     5   4   3     3.245592566597   119.72901266   179.97787437
 C      5   4   3     2.642543843757   120.22913088     0.00000000
 Cl     7   5   4     3.245703711536   119.79093025   179.99076689
 C      7   5   4     2.629608117747   121.27511407     0.00000000
 C      9   7   5     2.616453500193   118.66728327     0.00000000
 C     10   9   7     2.765468539046   131.65353508   179.83601239
 C     11  10   9     2.593383634083   124.95032483   359.45146558
 C     12  11  10     2.664791611026   125.89562394   180.37049985
 N     13  12  11     2.171581789652   175.63474304   178.36152467
 C     12  11  10     2.666225183804   124.06023794     0.11892673
 N     15  12  11     2.169197987367   176.24864599   179.07204587
 C     11  10   9     2.736946480904   107.32863340   179.93598325
 C     17  11  10     2.602019052687   125.18185941   180.07100281
 C     18  17  11     2.637456733441   131.11148873   181.18315920
 S     19  18  17     3.335082804946   124.99635775     0.22379250
 C     20  19  18     3.256456949014    90.32677055   178.79023961
 C     21  20  19     2.661077200930   112.07147086     0.37993624
 C     22  21  20     2.618805988837   114.06890620   359.65645665
 C     23  22  21     2.822185755048   122.87622594   177.69221842
 C     24  23  22     2.894080668495   110.75653279   264.62634220
 S     22  21  20     3.314237178967   113.70285399   180.27654698
 C     26  22  21     3.273153055944    89.03601752     0.09484627
 C     21  20  19     2.633756032686   136.69830306   180.78433950
 N     28  21  20     2.573955951638   137.86532073   358.70059904
 C     29  28  21     2.723176599272   123.26858322     1.65589130
 C     30  29  28     2.885562997194   111.51121755    71.58083443
 C     29  28  21     2.602216159902   107.90979964   181.77283090
 C     27  26  22     2.626664349703   139.01866939   182.00150134
 C     33  27  26     2.685348277517   133.12165350   354.34342264
 N     34  33  27     2.517104505104   131.01531443   353.69684067
 N     35  34  33     2.469415587869   104.55455474   180.69170951
 C     36  35  34     2.718524043509   122.70822530   175.66209591
 C     37  36  35     2.868251499540   111.14065656    16.37079983
 N     36  35  34     2.486658903289   115.92429645   359.54587847
 C     39  36  35     2.507297984754   104.23343250     1.20034834
 C     40  39  36     2.730918194172   133.21200400   182.70877088
 C     32  29  28     2.631683750126   132.97018162   173.46013252
 N     42  32  29     2.578195369885   143.64015936    34.09626117
 C     43  42  32     2.712905324183   137.50407075   327.91624959
 C     44  43  42     2.885413412404   111.90398354    88.34850257
 C     43  42  32     2.663690028048    94.23268499   152.91455844
 C     41  40  39     2.887833921893   119.59769359    47.49730267
 S     47  41  40     3.358583602186   118.71470108   134.94484652
 C     48  47  41     3.342613762031    76.42656335   116.24152059
 C     49  48  47     2.755943770926    95.28273506   349.26917565
 S     50  49  48     3.385485806252   122.60696715   152.59510393
 C     49  48  47     4.235561843109   101.51798695    94.83106831
 C     52  49  48     2.486300769973    39.37090275   121.26238214
 C     53  52  49     2.808062533667   130.17946940   186.98040431
 C     54  53  52     2.876954874780   112.05025110   359.31847590
 C     52  49  48     2.446837981725   109.69752328   304.15611461
 C     56  52  49     2.368533192243   172.05168594     4.61780987
 C     57  56  52     6.600719567656   161.79993171   315.46061253
 C     58  57  56     2.600492761615   148.77217097   274.71348632
 C     59  58  57     2.650388290669   121.99850255   172.11048583
 N     60  59  58     2.171777808108   178.28091391   226.49088397
 C     59  58  57     2.660716740045   121.58187789   352.92235015
 N     62  59  58     2.167797421162   179.16728854   205.59108518
 C     58  57  56     2.722643109569    81.25209068    89.04433097
 C     64  58  57     2.625091782614   133.32160276   189.17702559
 C     65  64  58     2.615605789032   118.06170391   171.74924232
 Cl    66  65  64     3.250000414191   119.62153568   182.45948995
 C     66  65  64     2.656729066049   120.98716226     1.46389595
 Cl    68  66  65     3.248546001546   119.42945176   183.39997149
 C     68  66  65     2.609308862908   121.37778511     2.33488879
 C     70  68  66     2.627063422062   117.72440623   356.48147778
 C     57  56  52     2.529089581087   162.16996994     1.57041823
 O     58  57  56     2.547045465387    28.28449913   263.50961078
 H      4   3   1     2.038010243464   120.74672674     0.13810004
 H      9   7   5     2.036082169179   119.03219347   179.98950391
 H     18  17  11     2.043098139940   115.68282660     0.79368106
 H     24  23  22     2.061519776768   111.17975745   142.80432547
 H     24  23  22     2.063269795691   108.18815190    24.05013037
 H     25  24  23     2.055079568983   110.78216474   299.25339344
 H     25  24  23     2.052423549799   109.74990903   179.51529871
 H     25  24  23     2.055112310122   110.35734606    59.63567282
 H     30  29  28     2.069102785674   108.42054551   311.32424086
 H     30  29  28     2.058344145358   108.12272415   193.69519385
 H     31  30  29     2.055962544250   110.80502522    52.48566559
 H     31  30  29     2.053035827736   110.38074882   292.30573957
 H     31  30  29     2.052284399817   109.77493645   172.94619783
 H     37  36  35     2.070815297664   108.19309249   254.93062360
 H     37  36  35     2.064354392919   107.72749595   138.68493242
 H     38  37  36     2.052250945809   110.43988228   295.38509395
 H     38  37  36     2.051724337350   109.31384095   174.86570767
 H     38  37  36     2.051483705734   110.64622981    55.04654660
 H     44  43  42     2.068186597904   109.70142291   324.69221648
 H     44  43  42     2.067619323518   106.69553856   207.99322030
 H     45  44  43     2.051925897806   110.87115494   300.44523521
 H     45  44  43     2.052779560305   109.85819629   180.12566204
 H     45  44  43     2.054450964915   109.86309310    60.42902044
 H     54  53  52     2.069934766353   108.37305083   237.29075852
 H     54  53  52     2.069159516702   108.44283839   121.49212254
 H     55  54  53     2.055694343497   110.40611713   300.51100870
 H     55  54  53     2.053771511956   110.34748350   180.46812248
 H     55  54  53     2.055449099120   110.42066102    60.36925665
 H     51  50  49     2.516667639747    96.77995015   315.71300133
 H     65  64  58     2.036600876510   121.57452134   353.03079670
 H     70  68  66     2.034943389972   120.96935324   177.41441492

---------------------
BASIS SET INFORMATION
---------------------
There are 6 groups of distinct atoms

 Group   1 Type C   : 7s4p1d contracted to 3s2p1d pattern {511/31/1}
 Group   2 Type O   : 7s4p1d contracted to 3s2p1d pattern {511/31/1}
 Group   3 Type Cl  : 10s7p1d contracted to 4s3p1d pattern {5311/511/1}
 Group   4 Type N   : 7s4p1d contracted to 3s2p1d pattern {511/31/1}
 Group   5 Type S   : 10s7p1d contracted to 4s3p1d pattern {5311/511/1}
 Group   6 Type H   : 4s1p contracted to 2s1p pattern {31/1}

Atom   0C    basis set group =>   1
Atom   1O    basis set group =>   2
Atom   2C    basis set group =>   1
Atom   3C    basis set group =>   1
Atom   4C    basis set group =>   1
Atom   5Cl   basis set group =>   3
Atom   6C    basis set group =>   1
Atom   7Cl   basis set group =>   3
Atom   8C    basis set group =>   1
Atom   9C    basis set group =>   1
Atom  10C    basis set group =>   1
Atom  11C    basis set group =>   1
Atom  12C    basis set group =>   1
Atom  13N    basis set group =>   4
Atom  14C    basis set group =>   1
Atom  15N    basis set group =>   4
Atom  16C    basis set group =>   1
Atom  17C    basis set group =>   1
Atom  18C    basis set group =>   1
Atom  19S    basis set group =>   5
Atom  20C    basis set group =>   1
Atom  21C    basis set group =>   1
Atom  22C    basis set group =>   1
Atom  23C    basis set group =>   1
Atom  24C    basis set group =>   1
Atom  25S    basis set group =>   5
Atom  26C    basis set group =>   1
Atom  27C    basis set group =>   1
Atom  28N    basis set group =>   4
Atom  29C    basis set group =>   1
Atom  30C    basis set group =>   1
Atom  31C    basis set group =>   1
Atom  32C    basis set group =>   1
Atom  33C    basis set group =>   1
Atom  34N    basis set group =>   4
Atom  35N    basis set group =>   4
Atom  36C    basis set group =>   1
Atom  37C    basis set group =>   1
Atom  38N    basis set group =>   4
Atom  39C    basis set group =>   1
Atom  40C    basis set group =>   1
Atom  41C    basis set group =>   1
Atom  42N    basis set group =>   4
Atom  43C    basis set group =>   1
Atom  44C    basis set group =>   1
Atom  45C    basis set group =>   1
Atom  46C    basis set group =>   1
Atom  47S    basis set group =>   5
Atom  48C    basis set group =>   1
Atom  49C    basis set group =>   1
Atom  50S    basis set group =>   5
Atom  51C    basis set group =>   1
Atom  52C    basis set group =>   1
Atom  53C    basis set group =>   1
Atom  54C    basis set group =>   1
Atom  55C    basis set group =>   1
Atom  56C    basis set group =>   1
Atom  57C    basis set group =>   1
Atom  58C    basis set group =>   1
Atom  59C    basis set group =>   1
Atom  60N    basis set group =>   4
Atom  61C    basis set group =>   1
Atom  62N    basis set group =>   4
Atom  63C    basis set group =>   1
Atom  64C    basis set group =>   1
Atom  65C    basis set group =>   1
Atom  66Cl   basis set group =>   3
Atom  67C    basis set group =>   1
Atom  68Cl   basis set group =>   3
Atom  69C    basis set group =>   1
Atom  70C    basis set group =>   1
Atom  71C    basis set group =>   1
Atom  72O    basis set group =>   2
Atom  73H    basis set group =>   6
Atom  74H    basis set group =>   6
Atom  75H    basis set group =>   6
Atom  76H    basis set group =>   6
Atom  77H    basis set group =>   6
Atom  78H    basis set group =>   6
Atom  79H    basis set group =>   6
Atom  80H    basis set group =>   6
Atom  81H    basis set group =>   6
Atom  82H    basis set group =>   6
Atom  83H    basis set group =>   6
Atom  84H    basis set group =>   6
Atom  85H    basis set group =>   6
Atom  86H    basis set group =>   6
Atom  87H    basis set group =>   6
Atom  88H    basis set group =>   6
Atom  89H    basis set group =>   6
Atom  90H    basis set group =>   6
Atom  91H    basis set group =>   6
Atom  92H    basis set group =>   6
Atom  93H    basis set group =>   6
Atom  94H    basis set group =>   6
Atom  95H    basis set group =>   6
Atom  96H    basis set group =>   6
Atom  97H    basis set group =>   6
Atom  98H    basis set group =>   6
Atom  99H    basis set group =>   6
Atom 100H    basis set group =>   6
Atom 101H    basis set group =>   6
Atom 102H    basis set group =>   6
Atom 103H    basis set group =>   6
------------------------------------------------------------------------------
                           ORCA GTO INTEGRAL CALCULATION
------------------------------------------------------------------------------

                         BASIS SET STATISTICS AND STARTUP INFO

 # of primitive gaussian shells          ... 1079
 # of primitive gaussian functions       ... 2065
 # of contracted shells                  ...  547
 # of contracted basis functions         ... 1209
 Highest angular momentum                ...    2
 Maximum contraction depth               ...    5
 Integral package used                   ... LIBINT
 Integral threshhold            Thresh   ...  2.500e-11
 Primitive cut-off              TCut     ...  2.500e-12


------------------------------ INTEGRAL EVALUATION ----------------------------


 * One electron integrals 
 Pre-screening matrix                    ... done
 Shell pair data                         ... done (   0.021 sec)

-------------------------------------------------------------------------------
                                 ORCA SCF
-------------------------------------------------------------------------------

------------
SCF SETTINGS
------------
Hamiltonian:
 Ab initio Hamiltonian  Method          .... Hartree-Fock(GTOs)


General Settings:
 Integral files         IntName         .... Y15
 Hartree-Fock type      HFTyp           .... RHF
 Total Charge           Charge          ....    0
 Multiplicity           Mult            ....    1
 Number of Electrons    NEL             ....  566
 Basis Dimension        Dim             .... 1209
 Nuclear Repulsion      ENuc            ....  13525.9873782654 Eh

Convergence Acceleration:
 DIIS                   CNVDIIS         .... on
   Start iteration      DIISMaxIt       ....    12
   Startup error        DIISStart       ....  0.200000
   # of expansion vecs  DIISMaxEq       ....     5
   Bias factor          DIISBfac        ....   1.050
   Max. coefficient     DIISMaxC        ....  10.000
 Newton-Raphson         CNVNR           .... off
 SOSCF                  CNVSOSCF        .... on
   Start iteration      SOSCFMaxIt      ....   150
   Startup grad/error   SOSCFStart      ....  0.003300
 Level Shifting         CNVShift        .... on
   Level shift para.    LevelShift      ....    0.2500
   Turn off err/grad.   ShiftErr        ....    0.0010
 Zerner damping         CNVZerner       .... off
 Static damping         CNVDamp         .... on
   Fraction old density DampFac         ....    0.7000
   Max. Damping (<1)    DampMax         ....    0.9800
   Min. Damping (>=0)   DampMin         ....    0.0000
   Turn off err/grad.   DampErr         ....    0.1000
 Fernandez-Rico         CNVRico         .... off

SCF Procedure:
 Maximum # iterations   MaxIter         ....   125
 SCF integral mode      SCFMode         .... Direct
   Integral package                     .... LIBINT
 Reset frequency        DirectResetFreq ....    20
 Integral Threshold     Thresh          ....  2.500e-11 Eh
 Primitive CutOff       TCut            ....  2.500e-12 Eh

Convergence Tolerance:
 Convergence Check Mode ConvCheckMode   .... Total+1el-Energy
 Convergence forced     ConvForced      .... 1
 Energy Change          TolE            ....  1.000e-08 Eh
 1-El. energy change                    ....  1.000e-05 Eh
 Orbital Gradient       TolG            ....  1.000e-05
 Orbital Rotation angle TolX            ....  1.000e-05
 DIIS Error             TolErr          ....  5.000e-07


Diagonalization of the overlap matrix:
Smallest eigenvalue                        ... 9.663e-05
Time for diagonalization                   ...    0.451 sec
Threshold for overlap eigenvalues          ... 1.000e-08
Number of eigenvalues below threshold      ... 0
Time for construction of square roots      ...    0.172 sec
Total time needed                          ...    0.627 sec

-------------------
DFT GRID GENERATION
-------------------

General Integration Accuracy     IntAcc      ...  4.340
Radial Grid Type                 RadialGrid  ... Gauss-Chebyshev
Angular Grid (max. acc.)         AngularGrid ... Lebedev-110
Angular grid pruning method      GridPruning ... 3 (G Style)
Weight generation scheme         WeightScheme... Becke
Basis function cutoff            BFCut       ...    1.0000e-11
Integration weight cutoff        WCut        ...    1.0000e-14
Grids for H and He will be reduced by one unit

# of grid points (after initial pruning)     ... 147388 (   0.3 sec)
# of grid points (after weights+screening)   ... 127449 (   6.5 sec)
nearest neighbour list constructed           ...    0.0 sec
Grid point re-assignment to atoms done       ...    0.0 sec
Grid point division into batches done        ...    0.1 sec
Reduced shell lists constructed in    2.6 sec

Total number of grid points                  ...   127449
Total number of batches                      ...     2043
Average number of points per batch           ...       62
Average number of grid points per atom       ...     1225
Average number of shells per batch           ...   125.66 (22.97%)
Average number of basis functions per batch  ...   259.49 (21.46%)
Average number of large shells per batch     ...    71.90 (57.22%)
Average number of large basis fcns per batch ...   150.98 (58.18%)
Maximum spatial batch extension              ...  21.06, 20.56, 26.80 au
Average spatial batch extension              ...   3.06,  3.03,  3.54 au

Time for grid setup =    9.373 sec

------------------------------
INITIAL GUESS: MODEL POTENTIAL
------------------------------
Loading Hartree-Fock densities                     ... done
Calculating cut-offs                               ... done
Setting up the integral package                    ... done
Initializing the effective Hamiltonian             ... done
Starting the Coulomb interaction                   ... done (  11.0 sec)
Reading the grid                                   ... done
Mapping shells                                     ... done
Starting the XC term evaluation                    ... done (   2.5 sec)
Transforming the Hamiltonian                       ... done (   0.2 sec)
Diagonalizing the Hamiltonian                      ... done (   0.4 sec)
Back transforming the eigenvectors                 ... done (   0.1 sec)
Now organizing SCF variables                       ... done
                      ------------------
                      INITIAL GUESS DONE (  23.8 sec)
                      ------------------
--------------
SCF ITERATIONS
--------------
ITER       Energy         Delta-E        Max-DP      RMS-DP      [F,P]     Damp
               ***  Starting incremental Fock matrix formation  ***
  0  -6124.9024681072   0.000000000000 0.12043233  0.00143216  0.2338925 0.7000
  1  -6125.6145974760  -0.712129368821 0.08943977  0.00109795  0.1449113 0.7000
                               ***Turning on DIIS***
  2  -6126.0525305829  -0.437933106845 0.21086142  0.00255098  0.0850821 0.0000
  3  -6123.9577034318   2.094827151086 0.07867402  0.00058660  0.0504692 0.0000
  4  -6127.3191859546  -3.361482522872 0.03637479  0.00023775  0.0171981 0.0000
  5  -6127.1592709118   0.159915042863 0.01949707  0.00012058  0.0082140 0.0000
  6  -6126.9366520663   0.222618845444 0.01144062  0.00008497  0.0037025 0.0000
  7  -6127.0396817524  -0.103029686037 0.00782899  0.00006203  0.0023185 0.0000
  8  -6127.0073059177   0.032375834653 0.00717334  0.00005029  0.0016173 0.0000
  9  -6127.0081015723  -0.000795654527 0.00586055  0.00003732  0.0010675 0.0000
                      *** Initiating the SOSCF procedure ***
                           *** Shutting down DIIS ***
                      *** Re-Reading the Fockian *** 
                      *** Removing any level shift *** 
ITER      Energy       Delta-E        Grad      Rot      Max-DP    RMS-DP
 10  -6127.01854454  -0.0104429631  0.003014  0.003014  0.004911  0.000049
               *** Restarting incremental Fock matrix formation ***
 11  -6127.02438861  -0.0058440717  0.000811  0.003994  0.003762  0.000022
 12  -6127.02442752  -0.0000389102  0.000882  0.013079  0.004013  0.000045
 13  -6127.02449021  -0.0000626944  0.000296  0.005124  0.003202  0.000019
 14  -6127.02450160  -0.0000113883  0.000204  0.001382  0.001351  0.000008
 15  -6127.02450542  -0.0000038165  0.000077  0.000612  0.000862  0.000004
 16  -6127.02450666  -0.0000012468  0.000027  0.000234  0.000542  0.000003
 17  -6127.02450696  -0.0000003015  0.000023  0.000196  0.000123  0.000001
 18  -6127.02450704  -0.0000000777  0.000011  0.000178  0.000145  0.000001
 19  -6127.02450707  -0.0000000252  0.000004  0.000023  0.000030  0.000000
                  ***Gradient check signals convergence***
              ***Rediagonalizing the Fockian in SOSCF/NRSCF***

               *****************************************************
               *                     SUCCESS                       *
               *           SCF CONVERGED AFTER  20 CYCLES          *
               *****************************************************


----------------
TOTAL SCF ENERGY
----------------

Total Energy       :        -6127.02450707 Eh         -166724.81296 eV

Components:
Nuclear Repulsion  :        13525.98737827 Eh          368060.82841 eV
Electronic Energy  :       -19653.01188534 Eh         -534785.64138 eV
One Electron Energy:       -35374.36286929 Eh         -962585.35057 eV
Two Electron Energy:        15721.35098395 Eh          427799.70919 eV

Virial components:
Potential Energy   :       -12243.59117919 Eh         -333165.05377 eV
Kinetic Energy     :         6116.56667211 Eh          166440.24081 eV
Virial Ratio       :            2.00170976


---------------
SCF CONVERGENCE
---------------

  Last Energy change         ...   -7.2214e-09  Tolerance :   1.0000e-08
  Last MAX-Density change    ...    1.7605e-05  Tolerance :   1.0000e-07
  Last RMS-Density change    ...    1.6937e-07  Tolerance :   5.0000e-09
  Last Orbital Gradient      ...    2.4610e-06  Tolerance :   1.0000e-05
  Last Orbital Rotation      ...    2.7887e-05  Tolerance :   1.0000e-05

             **** THE GBW FILE WAS UPDATED (Y15.gbw) ****
             **** DENSITY FILE WAS UPDATED (Y15.scfp) ****
             **** ENERGY FILE WAS UPDATED (Y15.en.tmp) ****
             **** THE GBW FILE WAS UPDATED (Y15.gbw) ****
             **** DENSITY FILE WAS UPDATED (Y15.scfp) ****
----------------
ORBITAL ENERGIES
----------------

  NO   OCC          E(Eh)            E(eV) 
   0   2.0000    -104.830100     -2852.5721 
   1   2.0000    -104.829646     -2852.5597 
   2   2.0000    -104.827227     -2852.4939 
   3   2.0000    -104.821524     -2852.3387 
   4   2.0000     -91.987915     -2503.1184 
   5   2.0000     -91.982662     -2502.9755 
   6   2.0000     -91.960062     -2502.3605 
   7   2.0000     -91.918848     -2501.2390 
   8   2.0000     -20.659247      -562.1667 
   9   2.0000     -20.580570      -560.0258 
  10   2.0000     -15.700586      -427.2347 
  11   2.0000     -15.666674      -426.3119 
  12   2.0000     -15.656565      -426.0368 
  13   2.0000     -15.626708      -425.2243 
  14   2.0000     -15.619443      -425.0267 
  15   2.0000     -15.603264      -424.5864 
  16   2.0000     -15.594785      -424.3557 
  17   2.0000     -15.586747      -424.1369 
  18   2.0000     -15.569803      -423.6759 
  19   2.0000     -11.396402      -310.1119 
  20   2.0000     -11.378269      -309.6184 
  21   2.0000     -11.355397      -308.9961 
  22   2.0000     -11.352517      -308.9177 
  23   2.0000     -11.352227      -308.9098 
  24   2.0000     -11.351413      -308.8877 
  25   2.0000     -11.350830      -308.8718 
  26   2.0000     -11.348832      -308.8174 
  27   2.0000     -11.339678      -308.5683 
  28   2.0000     -11.331306      -308.3405 
  29   2.0000     -11.329029      -308.2786 
  30   2.0000     -11.328387      -308.2611 
  31   2.0000     -11.327521      -308.2375 
  32   2.0000     -11.321547      -308.0750 
  33   2.0000     -11.317952      -307.9771 
  34   2.0000     -11.317658      -307.9691 
  35   2.0000     -11.314535      -307.8841 
  36   2.0000     -11.311729      -307.8078 
  37   2.0000     -11.308808      -307.7283 
  38   2.0000     -11.308651      -307.7240 
  39   2.0000     -11.308620      -307.7232 
  40   2.0000     -11.306805      -307.6738 
  41   2.0000     -11.305639      -307.6421 
  42   2.0000     -11.303571      -307.5858 
  43   2.0000     -11.302652      -307.5608 
  44   2.0000     -11.302647      -307.5607 
  45   2.0000     -11.302608      -307.5596 
  46   2.0000     -11.302091      -307.5455 
  47   2.0000     -11.301453      -307.5282 
  48   2.0000     -11.301406      -307.5269 
  49   2.0000     -11.300162      -307.4930 
  50   2.0000     -11.300073      -307.4906 
  51   2.0000     -11.298738      -307.4543 
  52   2.0000     -11.296969      -307.4062 
  53   2.0000     -11.295725      -307.3723 
  54   2.0000     -11.294657      -307.3432 
  55   2.0000     -11.294198      -307.3308 
  56   2.0000     -11.291757      -307.2643 
  57   2.0000     -11.291161      -307.2481 
  58   2.0000     -11.290528      -307.2309 
  59   2.0000     -11.290061      -307.2182 
  60   2.0000     -11.289537      -307.2039 
  61   2.0000     -11.289205      -307.1949 
  62   2.0000     -11.288444      -307.1742 
  63   2.0000     -11.287431      -307.1466 
  64   2.0000     -11.284248      -307.0600 
  65   2.0000     -11.281583      -306.9875 
  66   2.0000     -11.269668      -306.6633 
  67   2.0000     -11.261079      -306.4295 
  68   2.0000     -11.260739      -306.4203 
  69   2.0000     -11.253984      -306.2365 
  70   2.0000     -11.247862      -306.0699 
  71   2.0000     -11.239151      -305.8328 
  72   2.0000     -11.230937      -305.6093 
  73   2.0000     -10.593865      -288.2737 
  74   2.0000     -10.593219      -288.2561 
  75   2.0000     -10.591007      -288.1959 
  76   2.0000     -10.585060      -288.0341 
  77   2.0000      -9.021271      -245.4813 
  78   2.0000      -9.017266      -245.3723 
  79   2.0000      -8.994818      -244.7614 
  80   2.0000      -8.954352      -243.6603 
  81   2.0000      -8.068965      -219.5677 
  82   2.0000      -8.068316      -219.5500 
  83   2.0000      -8.066102      -219.4898 
  84   2.0000      -8.065173      -219.4645 
  85   2.0000      -8.065169      -219.4644 
  86   2.0000      -8.064590      -219.4487 
  87   2.0000      -8.064577      -219.4483 
  88   2.0000      -8.062300      -219.3863 
  89   2.0000      -8.062289      -219.3860 
  90   2.0000      -8.060167      -219.3283 
  91   2.0000      -8.056451      -219.2272 
  92   2.0000      -8.056345      -219.2243 
  93   2.0000      -6.708440      -182.5459 
  94   2.0000      -6.707076      -182.5088 
  95   2.0000      -6.705049      -182.4537 
  96   2.0000      -6.704823      -182.4475 
  97   2.0000      -6.704011      -182.4254 
  98   2.0000      -6.701599      -182.3598 
  99   2.0000      -6.681699      -181.8183 
 100   2.0000      -6.681305      -181.8076 
 101   2.0000      -6.679221      -181.7509 
 102   2.0000      -6.642241      -180.7446 
 103   2.0000      -6.640784      -180.7049 
 104   2.0000      -6.638572      -180.6447 
 105   2.0000      -1.502510       -40.8854 
 106   2.0000      -1.473957       -40.1084 
 107   2.0000      -1.413897       -38.4741 
 108   2.0000      -1.377775       -37.4912 
 109   2.0000      -1.360803       -37.0293 
 110   2.0000      -1.265769       -34.4433 
 111   2.0000      -1.252998       -34.0958 
 112   2.0000      -1.248370       -33.9699 
 113   2.0000      -1.242843       -33.8195 
 114   2.0000      -1.236411       -33.6445 
 115   2.0000      -1.234950       -33.6047 
 116   2.0000      -1.224833       -33.3294 
 117   2.0000      -1.218392       -33.1541 
 118   2.0000      -1.210875       -32.9496 
 119   2.0000      -1.209562       -32.9138 
 120   2.0000      -1.192833       -32.4586 
 121   2.0000      -1.174158       -31.9505 
 122   2.0000      -1.171135       -31.8682 
 123   2.0000      -1.167507       -31.7695 
 124   2.0000      -1.163803       -31.6687 
 125   2.0000      -1.152727       -31.3673 
 126   2.0000      -1.144868       -31.1534 
 127   2.0000      -1.140511       -31.0349 
 128   2.0000      -1.133629       -30.8476 
 129   2.0000      -1.113831       -30.3089 
 130   2.0000      -1.104324       -30.0502 
 131   2.0000      -1.095414       -29.8077 
 132   2.0000      -1.092082       -29.7171 
 133   2.0000      -1.069376       -29.0992 
 134   2.0000      -1.065034       -28.9811 
 135   2.0000      -1.059488       -28.8301 
 136   2.0000      -1.057368       -28.7724 
 137   2.0000      -1.051384       -28.6096 
 138   2.0000      -1.046278       -28.4707 
 139   2.0000      -1.031116       -28.0581 
 140   2.0000      -1.028791       -27.9948 
 141   2.0000      -1.024481       -27.8775 
 142   2.0000      -1.010258       -27.4905 
 143   2.0000      -1.003404       -27.3040 
 144   2.0000      -0.986026       -26.8311 
 145   2.0000      -0.978760       -26.6334 
 146   2.0000      -0.971046       -26.4235 
 147   2.0000      -0.943802       -25.6821 
 148   2.0000      -0.935282       -25.4503 
 149   2.0000      -0.929725       -25.2991 
 150   2.0000      -0.920795       -25.0561 
 151   2.0000      -0.915566       -24.9138 
 152   2.0000      -0.907480       -24.6938 
 153   2.0000      -0.900716       -24.5097 
 154   2.0000      -0.891226       -24.2515 
 155   2.0000      -0.883503       -24.0413 
 156   2.0000      -0.874602       -23.7991 
 157   2.0000      -0.870119       -23.6771 
 158   2.0000      -0.863149       -23.4875 
 159   2.0000      -0.858532       -23.3619 
 160   2.0000      -0.846406       -23.0319 
 161   2.0000      -0.840048       -22.8589 
 162   2.0000      -0.837474       -22.7888 
 163   2.0000      -0.828378       -22.5413 
 164   2.0000      -0.810844       -22.0642 
 165   2.0000      -0.804442       -21.8900 
 166   2.0000      -0.797151       -21.6916 
 167   2.0000      -0.791331       -21.5332 
 168   2.0000      -0.786261       -21.3953 
 169   2.0000      -0.781672       -21.2704 
 170   2.0000      -0.768506       -20.9121 
 171   2.0000      -0.761135       -20.7115 
 172   2.0000      -0.758900       -20.6507 
 173   2.0000      -0.746150       -20.3038 
 174   2.0000      -0.735913       -20.0252 
 175   2.0000      -0.732954       -19.9447 
 176   2.0000      -0.723272       -19.6812 
 177   2.0000      -0.717294       -19.5186 
 178   2.0000      -0.716441       -19.4953 
 179   2.0000      -0.714385       -19.4394 
 180   2.0000      -0.712817       -19.3967 
 181   2.0000      -0.707588       -19.2545 
 182   2.0000      -0.702542       -19.1171 
 183   2.0000      -0.696744       -18.9594 
 184   2.0000      -0.696521       -18.9533 
 185   2.0000      -0.691924       -18.8282 
 186   2.0000      -0.684810       -18.6346 
 187   2.0000      -0.676670       -18.4131 
 188   2.0000      -0.672151       -18.2902 
 189   2.0000      -0.664333       -18.0774 
 190   2.0000      -0.662658       -18.0318 
 191   2.0000      -0.661599       -18.0030 
 192   2.0000      -0.658986       -17.9319 
 193   2.0000      -0.655419       -17.8348 
 194   2.0000      -0.653047       -17.7703 
 195   2.0000      -0.648392       -17.6436 
 196   2.0000      -0.646979       -17.6052 
 197   2.0000      -0.643019       -17.4974 
 198   2.0000      -0.641381       -17.4529 
 199   2.0000      -0.637849       -17.3568 
 200   2.0000      -0.633971       -17.2512 
 201   2.0000      -0.626304       -17.0426 
 202   2.0000      -0.623358       -16.9624 
 203   2.0000      -0.621165       -16.9028 
 204   2.0000      -0.618733       -16.8366 
 205   2.0000      -0.615095       -16.7376 
 206   2.0000      -0.601774       -16.3751 
 207   2.0000      -0.598074       -16.2744 
 208   2.0000      -0.595678       -16.2092 
 209   2.0000      -0.595018       -16.1913 
 210   2.0000      -0.593828       -16.1589 
 211   2.0000      -0.588609       -16.0169 
 212   2.0000      -0.586380       -15.9562 
 213   2.0000      -0.586022       -15.9465 
 214   2.0000      -0.582635       -15.8543 
 215   2.0000      -0.580998       -15.8098 
 216   2.0000      -0.577228       -15.7072 
 217   2.0000      -0.574080       -15.6215 
 218   2.0000      -0.573274       -15.5996 
 219   2.0000      -0.571134       -15.5413 
 220   2.0000      -0.570856       -15.5338 
 221   2.0000      -0.570161       -15.5149 
 222   2.0000      -0.568966       -15.4823 
 223   2.0000      -0.566838       -15.4245 
 224   2.0000      -0.563727       -15.3398 
 225   2.0000      -0.560923       -15.2635 
 226   2.0000      -0.555935       -15.1278 
 227   2.0000      -0.555659       -15.1203 
 228   2.0000      -0.553343       -15.0572 
 229   2.0000      -0.547869       -14.9083 
 230   2.0000      -0.547129       -14.8881 
 231   2.0000      -0.543146       -14.7797 
 232   2.0000      -0.540029       -14.6949 
 233   2.0000      -0.535610       -14.5747 
 234   2.0000      -0.530748       -14.4424 
 235   2.0000      -0.529729       -14.4147 
 236   2.0000      -0.526139       -14.3170 
 237   2.0000      -0.523746       -14.2518 
 238   2.0000      -0.523383       -14.2420 
 239   2.0000      -0.519525       -14.1370 
 240   2.0000      -0.518943       -14.1212 
 241   2.0000      -0.516631       -14.0582 
 242   2.0000      -0.512699       -13.9513 
 243   2.0000      -0.511708       -13.9243 
 244   2.0000      -0.509538       -13.8652 
 245   2.0000      -0.508337       -13.8326 
 246   2.0000      -0.506599       -13.7853 
 247   2.0000      -0.502865       -13.6836 
 248   2.0000      -0.501167       -13.6375 
 249   2.0000      -0.497838       -13.5469 
 250   2.0000      -0.495628       -13.4867 
 251   2.0000      -0.492318       -13.3966 
 252   2.0000      -0.491747       -13.3811 
 253   2.0000      -0.490581       -13.3494 
 254   2.0000      -0.488511       -13.2931 
 255   2.0000      -0.485094       -13.2001 
 256   2.0000      -0.484118       -13.1735 
 257   2.0000      -0.480583       -13.0773 
 258   2.0000      -0.473030       -12.8718 
 259   2.0000      -0.469708       -12.7814 
 260   2.0000      -0.468713       -12.7543 
 261   2.0000      -0.467642       -12.7252 
 262   2.0000      -0.463572       -12.6144 
 263   2.0000      -0.452561       -12.3148 
 264   2.0000      -0.444095       -12.0844 
 265   2.0000      -0.439721       -11.9654 
 266   2.0000      -0.423349       -11.5199 
 267   2.0000      -0.420902       -11.4533 
 268   2.0000      -0.414048       -11.2668 
 269   2.0000      -0.396969       -10.8021 
 270   2.0000      -0.392496       -10.6803 
 271   2.0000      -0.390563       -10.6278 
 272   2.0000      -0.384419       -10.4606 
 273   2.0000      -0.369525       -10.0553 
 274   2.0000      -0.364081        -9.9072 
 275   2.0000      -0.360502        -9.8097 
 276   2.0000      -0.358327        -9.7506 
 277   2.0000      -0.350608        -9.5405 
 278   2.0000      -0.327753        -8.9186 
 279   2.0000      -0.320866        -8.7312 
 280   2.0000      -0.314277        -8.5519 
 281   2.0000      -0.289300        -7.8723 
 282   2.0000      -0.252685        -6.8759 
 283   0.0000      -0.050086        -1.3629 
 284   0.0000      -0.016855        -0.4586 
 285   0.0000      -0.001806        -0.0492 
 286   0.0000       0.013289         0.3616 
 287   0.0000       0.038465         1.0467 
 288   0.0000       0.059434         1.6173 
 289   0.0000       0.062217         1.6930 
 290   0.0000       0.082266         2.2386 
 291   0.0000       0.111034         3.0214 
 292   0.0000       0.125185         3.4065 
 293   0.0000       0.129721         3.5299 
 294   0.0000       0.131240         3.5712 
 295   0.0000       0.134156         3.6506 
 296   0.0000       0.138364         3.7651 
 297   0.0000       0.148073         4.0293 
 298   0.0000       0.149886         4.0786 
 299   0.0000       0.151984         4.1357 
 300   0.0000       0.158534         4.3139 
 301   0.0000       0.160018         4.3543 
 302   0.0000       0.161154         4.3852 
 303   0.0000       0.166523         4.5313 
 304   0.0000       0.170404         4.6369 
 305   0.0000       0.177050         4.8178 
 306   0.0000       0.180857         4.9214 
 307   0.0000       0.185685         5.0527 
 308   0.0000       0.188066         5.1175 
 309   0.0000       0.192432         5.2363 
 310   0.0000       0.196117         5.3366 
 311   0.0000       0.200179         5.4472 
 312   0.0000       0.200458         5.4547 
 313   0.0000       0.201270         5.4768 
 314   0.0000       0.209256         5.6941 
 315   0.0000       0.212230         5.7751 
 316   0.0000       0.214020         5.8238 
 317   0.0000       0.215640         5.8679 
 318   0.0000       0.218169         5.9367 
 319   0.0000       0.219416         5.9706 
 320   0.0000       0.220057         5.9880 
 321   0.0000       0.221391         6.0244 
 322   0.0000       0.224600         6.1117 
 323   0.0000       0.226941         6.1754 
 324   0.0000       0.229262         6.2385 
 325   0.0000       0.230203         6.2641 
 326   0.0000       0.234939         6.3930 
 327   0.0000       0.236957         6.4479 
 328   0.0000       0.241093         6.5605 
 329   0.0000       0.241764         6.5787 
 330   0.0000       0.247145         6.7252 
 331   0.0000       0.250077         6.8049 
 332   0.0000       0.252040         6.8584 
 333   0.0000       0.253514         6.8985 
 334   0.0000       0.256098         6.9688 
 335   0.0000       0.257231         6.9996 
 336   0.0000       0.258971         7.0470 
 337   0.0000       0.262879         7.1533 
 338   0.0000       0.263534         7.1711 
 339   0.0000       0.264541         7.1985 
 340   0.0000       0.266991         7.2652 
 341   0.0000       0.273769         7.4496 
 342   0.0000       0.275880         7.5071 
 343   0.0000       0.277480         7.5506 
 344   0.0000       0.281169         7.6510 
 345   0.0000       0.286539         7.7971 
 346   0.0000       0.288999         7.8641 
 347   0.0000       0.291214         7.9243 
 348   0.0000       0.292687         7.9644 
 349   0.0000       0.296468         8.0673 
 350   0.0000       0.302139         8.2216 
 351   0.0000       0.308010         8.3814 
 352   0.0000       0.309242         8.4149 
 353   0.0000       0.311582         8.4786 
 354   0.0000       0.316648         8.6164 
 355   0.0000       0.318345         8.6626 
 356   0.0000       0.323553         8.8043 
 357   0.0000       0.325213         8.8495 
 358   0.0000       0.325764         8.8645 
 359   0.0000       0.327662         8.9161 
 360   0.0000       0.332614         9.0509 
 361   0.0000       0.335063         9.1175 
 362   0.0000       0.339132         9.2283 
 363   0.0000       0.345438         9.3998 
 364   0.0000       0.347506         9.4561 
 365   0.0000       0.350052         9.5254 
 366   0.0000       0.351240         9.5577 
 367   0.0000       0.354471         9.6456 
 368   0.0000       0.360491         9.8095 
 369   0.0000       0.362501         9.8642 
 370   0.0000       0.364328         9.9139 
 371   0.0000       0.364921         9.9300 
 372   0.0000       0.365657         9.9500 
 373   0.0000       0.367714        10.0060 
 374   0.0000       0.373486        10.1631 
 375   0.0000       0.378758        10.3065 
 376   0.0000       0.381271        10.3749 
 377   0.0000       0.388235        10.5644 
 378   0.0000       0.391174        10.6444 
 379   0.0000       0.393204        10.6996 
 380   0.0000       0.394758        10.7419 
 381   0.0000       0.396706        10.7949 
 382   0.0000       0.400943        10.9102 
 383   0.0000       0.402469        10.9517 
 384   0.0000       0.403961        10.9923 
 385   0.0000       0.410166        11.1612 
 386   0.0000       0.414067        11.2673 
 387   0.0000       0.415465        11.3054 
 388   0.0000       0.417980        11.3738 
 389   0.0000       0.419471        11.4144 
 390   0.0000       0.424157        11.5419 
 391   0.0000       0.425376        11.5751 
 392   0.0000       0.427787        11.6407 
 393   0.0000       0.433352        11.7921 
 394   0.0000       0.435927        11.8622 
 395   0.0000       0.443566        12.0700 
 396   0.0000       0.445167        12.1136 
 397   0.0000       0.447952        12.1894 
 398   0.0000       0.450809        12.2671 
 399   0.0000       0.453779        12.3479 
 400   0.0000       0.459588        12.5060 
 401   0.0000       0.460174        12.5220 
 402   0.0000       0.465422        12.6648 
 403   0.0000       0.469814        12.7843 
 404   0.0000       0.471434        12.8284 
 405   0.0000       0.476996        12.9797 
 406   0.0000       0.484799        13.1921 
 407   0.0000       0.487172        13.2566 
 408   0.0000       0.490240        13.3401 
 409   0.0000       0.493978        13.4418 
 410   0.0000       0.495577        13.4853 
 411   0.0000       0.496674        13.5152 
 412   0.0000       0.502569        13.6756 
 413   0.0000       0.506909        13.7937 
 414   0.0000       0.510592        13.8939 
 415   0.0000       0.515812        14.0359 
 416   0.0000       0.518263        14.1027 
 417   0.0000       0.524228        14.2650 
 418   0.0000       0.531540        14.4639 
 419   0.0000       0.532886        14.5006 
 420   0.0000       0.540603        14.7105 
 421   0.0000       0.540716        14.7136 
 422   0.0000       0.543428        14.7874 
 423   0.0000       0.547446        14.8967 
 424   0.0000       0.553321        15.0566 
 425   0.0000       0.556688        15.1483 
 426   0.0000       0.562327        15.3017 
 427   0.0000       0.565900        15.3989 
 428   0.0000       0.568935        15.4815 
 429   0.0000       0.572207        15.5706 
 430   0.0000       0.574526        15.6337 
 431   0.0000       0.575788        15.6680 
 432   0.0000       0.582380        15.8474 
 433   0.0000       0.583523        15.8785 
 434   0.0000       0.584451        15.9037 
 435   0.0000       0.587069        15.9750 
 436   0.0000       0.588877        16.0242 
 437   0.0000       0.590940        16.0803 
 438   0.0000       0.596177        16.2228 
 439   0.0000       0.598147        16.2764 
 440   0.0000       0.599818        16.3219 
 441   0.0000       0.604792        16.4572 
 442   0.0000       0.605583        16.4787 
 443   0.0000       0.609224        16.5778 
 444   0.0000       0.612210        16.6591 
 445   0.0000       0.616704        16.7814 
 446   0.0000       0.617664        16.8075 
 447   0.0000       0.620143        16.8749 
 448   0.0000       0.625096        17.0097 
 449   0.0000       0.625470        17.0199 
 450   0.0000       0.627335        17.0707 
 451   0.0000       0.631911        17.1952 
 452   0.0000       0.633583        17.2407 
 453   0.0000       0.634131        17.2556 
 454   0.0000       0.637088        17.3360 
 455   0.0000       0.637630        17.3508 
 456   0.0000       0.638923        17.3860 
 457   0.0000       0.643270        17.5043 
 458   0.0000       0.649438        17.6721 
 459   0.0000       0.653215        17.7749 
 460   0.0000       0.656682        17.8692 
 461   0.0000       0.657421        17.8893 
 462   0.0000       0.661837        18.0095 
 463   0.0000       0.663114        18.0442 
 464   0.0000       0.664204        18.0739 
 465   0.0000       0.670066        18.2334 
 466   0.0000       0.673306        18.3216 
 467   0.0000       0.676267        18.4022 
 468   0.0000       0.678404        18.4603 
 469   0.0000       0.683019        18.5859 
 470   0.0000       0.687231        18.7005 
 471   0.0000       0.689266        18.7559 
 472   0.0000       0.690104        18.7787 
 473   0.0000       0.695263        18.9191 
 474   0.0000       0.698383        19.0040 
 475   0.0000       0.701422        19.0867 
 476   0.0000       0.705370        19.1941 
 477   0.0000       0.706750        19.2316 
 478   0.0000       0.708043        19.2668 
 479   0.0000       0.712527        19.3888 
 480   0.0000       0.716798        19.5051 
 481   0.0000       0.721580        19.6352 
 482   0.0000       0.722565        19.6620 
 483   0.0000       0.724258        19.7081 
 484   0.0000       0.727197        19.7880 
 485   0.0000       0.730410        19.8755 
 486   0.0000       0.731506        19.9053 
 487   0.0000       0.733794        19.9675 
 488   0.0000       0.735070        20.0023 
 489   0.0000       0.738925        20.1072 
 490   0.0000       0.740504        20.1501 
 491   0.0000       0.742801        20.2127 
 492   0.0000       0.745258        20.2795 
 493   0.0000       0.745777        20.2936 
 494   0.0000       0.750134        20.4122 
 495   0.0000       0.754469        20.5301 
 496   0.0000       0.759542        20.6682 
 497   0.0000       0.760976        20.7072 
 498   0.0000       0.768818        20.9206 
 499   0.0000       0.771064        20.9817 
 500   0.0000       0.775144        21.0927 
 501   0.0000       0.778202        21.1760 
 502   0.0000       0.783052        21.3079 
 503   0.0000       0.784846        21.3568 
 504   0.0000       0.789518        21.4839 
 505   0.0000       0.790382        21.5074 
 506   0.0000       0.795701        21.6521 
 507   0.0000       0.797552        21.7025 
 508   0.0000       0.799329        21.7509 
 509   0.0000       0.803434        21.8625 
 510   0.0000       0.807753        21.9801 
 511   0.0000       0.810377        22.0515 
 512   0.0000       0.811831        22.0910 
 513   0.0000       0.814438        22.1620 
 514   0.0000       0.819574        22.3017 
 515   0.0000       0.823357        22.4047 
 516   0.0000       0.825712        22.4688 
 517   0.0000       0.827450        22.5160 
 518   0.0000       0.829879        22.5822 
 519   0.0000       0.831536        22.6273 
 520   0.0000       0.835366        22.7315 
 521   0.0000       0.835889        22.7457 
 522   0.0000       0.837458        22.7884 
 523   0.0000       0.839162        22.8348 
 524   0.0000       0.839755        22.8509 
 525   0.0000       0.845338        23.0028 
 526   0.0000       0.846890        23.0451 
 527   0.0000       0.849140        23.1063 
 528   0.0000       0.849818        23.1247 
 529   0.0000       0.851486        23.1701 
 530   0.0000       0.852752        23.2046 
 531   0.0000       0.853116        23.2145 
 532   0.0000       0.855511        23.2796 
 533   0.0000       0.857080        23.3223 
 534   0.0000       0.861307        23.4374 
 535   0.0000       0.862331        23.4652 
 536   0.0000       0.863274        23.4909 
 537   0.0000       0.864689        23.5294 
 538   0.0000       0.865411        23.5490 
 539   0.0000       0.869333        23.6558 
 540   0.0000       0.869602        23.6631 
 541   0.0000       0.871562        23.7164 
 542   0.0000       0.872387        23.7388 
 543   0.0000       0.876323        23.8460 
 544   0.0000       0.879058        23.9204 
 545   0.0000       0.881662        23.9912 
 546   0.0000       0.882485        24.0136 
 547   0.0000       0.883720        24.0472 
 548   0.0000       0.886269        24.1166 
 549   0.0000       0.886739        24.1294 
 550   0.0000       0.888242        24.1703 
 551   0.0000       0.889474        24.2038 
 552   0.0000       0.889735        24.2109 
 553   0.0000       0.891667        24.2635 
 554   0.0000       0.892605        24.2890 
 555   0.0000       0.897194        24.4139 
 556   0.0000       0.900231        24.4965 
 557   0.0000       0.902033        24.5456 
 558   0.0000       0.902625        24.5617 
 559   0.0000       0.904782        24.6204 
 560   0.0000       0.906090        24.6559 
 561   0.0000       0.908017        24.7084 
 562   0.0000       0.908375        24.7181 
 563   0.0000       0.909442        24.7472 
 564   0.0000       0.910153        24.7665 
 565   0.0000       0.912967        24.8431 
 566   0.0000       0.913670        24.8622 
 567   0.0000       0.915708        24.9177 
 568   0.0000       0.916962        24.9518 
 569   0.0000       0.919997        25.0344 
 570   0.0000       0.921079        25.0638 
 571   0.0000       0.922383        25.0993 
 572   0.0000       0.924186        25.1484 
 573   0.0000       0.924227        25.1495 
 574   0.0000       0.926645        25.2153 
 575   0.0000       0.927708        25.2442 
 576   0.0000       0.928759        25.2728 
 577   0.0000       0.931385        25.3443 
 578   0.0000       0.933209        25.3939 
 579   0.0000       0.934589        25.4315 
 580   0.0000       0.937205        25.5027 
 581   0.0000       0.938624        25.5413 
 582   0.0000       0.940208        25.5844 
 583   0.0000       0.941939        25.6315 
 584   0.0000       0.944430        25.6992 
 585   0.0000       0.946913        25.7668 
 586   0.0000       0.949928        25.8489 
[...]
   Time for Sigma-Completion:    21.709
   Size of expansion space: 12
   Lowest Energy          :     0.075741870361
   Maximum Energy change  :     0.000019448409 (vector 2)
   Maximum residual norm  :     0.000003297709

                       ****Iteration   11****
   Time for densities:     1.312
   Using LibInt in JK Direct
   Time for J+K (Direct):  1915.168
   Time for Sigma-Completion:    21.762
   Size of expansion space: 15
   Lowest Energy          :     0.075741866529
   Maximum Energy change  :     0.000008190755 (vector 2)
   Maximum residual norm  :     0.000001650045

                       ****Iteration   12****
   Time for densities:     1.298
   Using LibInt in JK Direct
   Time for J+K (Direct):  1897.209
   Time for Sigma-Completion:    21.580
   Size of expansion space: 18
   Lowest Energy          :     0.075741865871
   Maximum Energy change  :     0.000004815119 (vector 2)
   Maximum residual norm  :     0.000000891089

                       ****Iteration   13****
   Time for densities:     1.345
   Using LibInt in JK Direct
   Time for J+K (Direct):  1886.503
   Time for Sigma-Completion:    21.343
   Size of expansion space: 21
   Lowest Energy          :     0.075741865763
   Maximum Energy change  :     0.000002781065 (vector 2)
   Maximum residual norm  :     0.000000742850

                       ****Iteration   14****
   Time for densities:     1.275
   Using LibInt in JK Direct
   Time for J+K (Direct):  1859.902
   Time for Sigma-Completion:    20.996
   Size of expansion space: 24
   Lowest Energy          :     0.075741865751
   Maximum Energy change  :     0.000002186897 (vector 2)
   Maximum residual norm  :     0.000000378737

                       ****Iteration   15****
   Time for densities:     1.257
   Using LibInt in JK Direct
   Time for J+K (Direct):  1829.950
   Time for Sigma-Completion:    20.854
   Size of expansion space: 27
   Lowest Energy          :     0.075741865749
   Maximum Energy change  :     0.000001403822 (vector 2)
   Maximum residual norm  :     0.000000205422

      *** CONVERGENCE OF RESIDUAL NORM REACHED ***

Storing the converged CI vectors               ... Y15.cis1

                 *** DAVIDSON DONE ***

Total time for solving the CIS problem: 36511.008sec

-----------------------------
CIS-EXCITED STATES (SINGLETS)
-----------------------------

the weight of the individual excitations are printed if larger than 1.0e-02

STATE  1:  E=   0.075742 au      2.061 eV    16623.4 cm**-1
   279a -> 284a  :     0.015439 (c=  0.12425341)
   279a -> 286a  :     0.013347 (c= -0.11553064)
   281a -> 283a  :     0.018607 (c=  0.13640684)
   281a -> 284a  :     0.031708 (c=  0.17806852)
   281a -> 285a  :     0.021429 (c= -0.14638592)
   282a -> 283a  :     0.631665 (c= -0.79477332)
   282a -> 284a  :     0.138831 (c=  0.37260083)
   282a -> 286a  :     0.030308 (c= -0.17409182)

STATE  2:  E=   0.097996 au      2.667 eV    21507.6 cm**-1
   278a -> 283a  :     0.022694 (c= -0.15064475)
   278a -> 284a  :     0.026268 (c=  0.16207316)
   278a -> 286a  :     0.013071 (c= -0.11432707)
   279a -> 284a  :     0.010885 (c= -0.10433331)
   280a -> 283a  :     0.030034 (c=  0.17330254)
   281a -> 283a  :     0.280825 (c= -0.52992936)
   281a -> 284a  :     0.180279 (c=  0.42459260)
   281a -> 287a  :     0.033600 (c= -0.18330298)
   282a -> 283a  :     0.010924 (c=  0.10451591)
   282a -> 284a  :     0.106930 (c=  0.32700115)
   282a -> 285a  :     0.051962 (c= -0.22795198)
   282a -> 286a  :     0.012822 (c=  0.11323505)
   282a -> 287a  :     0.040441 (c= -0.20109855)

STATE  3:  E=   0.113035 au      3.076 eV    24808.3 cm**-1
   278a -> 283a  :     0.046511 (c=  0.21566419)
   278a -> 286a  :     0.015600 (c=  0.12489905)
   279a -> 283a  :     0.037314 (c= -0.19316931)
   280a -> 283a  :     0.055304 (c= -0.23516874)
   280a -> 284a  :     0.017028 (c=  0.13049059)
   280a -> 286a  :     0.024782 (c= -0.15742204)
   281a -> 283a  :     0.090866 (c=  0.30143997)
   281a -> 285a  :     0.055325 (c= -0.23521358)
   281a -> 286a  :     0.092324 (c=  0.30384825)
   281a -> 287a  :     0.056989 (c= -0.23872347)
   281a -> 288a  :     0.040630 (c=  0.20156971)
   281a -> 289a  :     0.016776 (c= -0.12952147)
   282a -> 283a  :     0.049333 (c=  0.22211125)
   282a -> 284a  :     0.063954 (c=  0.25289162)
   282a -> 285a  :     0.042078 (c= -0.20513023)
   282a -> 286a  :     0.014490 (c=  0.12037368)
   282a -> 287a  :     0.072104 (c= -0.26852136)
   282a -> 289a  :     0.030727 (c= -0.17529038)


----------------------
CIS-EXCITATION SPECTRA
----------------------

Center of mass = ( 19.0194, -0.3959, -3.0307)
Calculating the Dipole integrals                  ... done
Transforming integrals                            ... done
Calculating the Linear Momentum integrals         ... done
Transforming integrals                            ... done
Calculating angular momentum integrals            ... done
Transforming integrals                            ... done

-----------------------------------------------------------------------------
         ABSORPTION SPECTRUM VIA TRANSITION ELECTRIC DIPOLE MOMENTS
-----------------------------------------------------------------------------
State   Energy    Wavelength  fosc         T2        TX        TY        TZ  
        (cm-1)      (nm)                 (au**2)    (au)      (au)      (au) 
-----------------------------------------------------------------------------
   1   16623.4    601.6   0.989440182  19.59498  -3.79476   1.30016   1.87200
   2   21507.6    465.0   0.336001999   5.14309   2.17725   0.60093  -0.20383
   3   24808.3    403.1   0.240612049   3.19297   1.64436  -0.32989  -0.61662

-----------------------------------------------------------------------------
         ABSORPTION SPECTRUM VIA TRANSITION VELOCITY DIPOLE MOMENTS
-----------------------------------------------------------------------------
State   Energy    Wavelength   fosc        P2         PX        PY        PZ  
        (cm-1)      (nm)                 (au**2)     (au)      (au)      (au) 
-----------------------------------------------------------------------------
   1   16623.4    601.6   0.488091217   0.05545   0.10321  -0.20443  -0.05486
   2   21507.6    465.0   0.045123780   0.00663  -0.07883   0.01464  -0.01427
   3   24808.3    403.1   0.096700718   0.01640  -0.02863   0.11026   0.05847

-------------------------------------------------------------------
                             CD SPECTRUM
-------------------------------------------------------------------
State  Energy     Wavelength     R         MX        MY        MZ   
       (cm-1)       (nm)     (1e40*cgs)   (au)      (au)      (au)  
-------------------------------------------------------------------
   1   16623.4    601.6    -1135.55027   0.84772  -0.95190   1.09289
   2   21507.6    465.0    343.60821   0.46912  -0.30656   0.53159
   3   24808.3    403.1    -54.08390  -0.10307   0.07861  -0.13089

Total run time:    36620.342 sec

           *** ORCA-CIS/TD-DFT FINISHED WITHOUT ERROR ***

-----------------------
CIS/TD-DFT TOTAL ENERGY
-----------------------

    E(SCF)  =  -6127.024507075 Eh
    DE(CIS) =      0.075741866 Eh (Root  1)
    ----------------------------- ---------
    E(tot)  =  -6126.948765209 Eh


-------------------------   --------------------
FINAL SINGLE POINT ENERGY     -6126.948765209097
-------------------------   --------------------

------------------------------------------------------------------------------
                         ORCA SCF GRADIENT CALCULATION
------------------------------------------------------------------------------


------------
CIS GRADIENT
------------

Reference wavefunction             ... RHF
State of interest                  ... 1
Basis dimension                    ... 1209
DFT-XC contribution needed         ... NO
RI-approximation                   ... OFF
CIS-vectors being read from        ... Y15.cis

 => Number of Vectors found: 3
 => Orbital Window: 105...282 -> 283...1208

Reading the CIS file                     ... done
Norm of the CI vector                    ... 1.000000000
Making the CIS (pseudo)densities         ... done
Making operators G(D) and Q(T)           ... done
Transforming the Fock operators          ... done
Making the frozen-core relaxed density   ... done
Constructing the G(H) operator           ... done
Transforming the G(H) operator           ... done
Calculating the CIS Lagrangian           ... done
Solving the Z-vector equations           ... done
Finalizing the relaxed density           ... done
Storing the relaxed density              ... done
Constructing the G(Z) operator           ... done
Transforming the G(Z) operator           ... done
Making the W-matrix                      ... done
Finalizing the W-matrix                  ... done
Transforming the W-matrix                ... done
Nuclear repulsion gradient               ... done
One-Electron gradient                    ... done
Prescreening matrices                    ... done
Two-Electron gradient (4-center)         ... done
                 ---------------------------
                 EXCITED STATE GRADIENT DONE
                 ---------------------------


------------------
CARTESIAN GRADIENT
------------------

   1   C   :   -0.042665207   -0.007573381    0.005455267
   2   O   :    0.055553053   -0.009644152   -0.010201124
   3   C   :    0.013116405   -0.004284173   -0.003004799
   4   C   :   -0.000796849    0.003959737    0.000818042
   5   C   :    0.004503993    0.003950119   -0.000039051
   6   Cl  :   -0.005006615   -0.004496304    0.000059839
   7   C   :   -0.005719849   -0.000024473    0.000993188
   8   Cl  :    0.006539981   -0.000288837   -0.001146170
   9   C   :    0.001338716    0.000087532   -0.000178121
  10   C   :   -0.010870644   -0.020419911   -0.001681458
  11   C   :    0.013051946    0.021941554    0.001278263
  12   C   :   -0.017872870   -0.018043071    0.000289490
  13   C   :    0.000394587    0.059163189    0.009614827
  14   N   :   -0.003641649   -0.034959647   -0.005056892
  15   C   :    0.055228683   -0.017309691   -0.012672905
  16   N   :   -0.032570726    0.006629622    0.006912538
  17   C   :   -0.003910014    0.010214802    0.002692704
  18   C   :    0.010572586   -0.004156885   -0.002638355
  19   C   :   -0.014568193    0.002274483    0.002471035
  20   S   :   -0.018131522    0.016489771    0.006318209
  21   C   :    0.016199941    0.006410147   -0.001402672
  22   C   :   -0.010892094   -0.007880641   -0.000285375
  23   C   :   -0.000499217   -0.007262507   -0.004830992
  24   C   :    0.005926038    0.002690763    0.004656104
  25   C   :    0.000042526    0.002287844   -0.002585027
  26   S   :    0.002316057    0.004306765   -0.000378844
  27   C   :   -0.009785741   -0.009929418    0.000185046
  28   C   :   -0.010455956    0.013202159    0.003645424
  29   N   :    0.005512718    0.005057701    0.001905882
  30   C   :   -0.000217061   -0.008164172   -0.007028151
  31   C   :   -0.001794420    0.000312593    0.003763082
  32   C   :    0.000901912   -0.002150031    0.004378206
  33   C   :    0.022064382   -0.010977588   -0.007208057
  34   C   :   -0.026583626    0.034404256    0.005437576
  35   N   :   -0.018625125   -0.016959707   -0.000364409
  36   N   :    0.005205715   -0.032399511   -0.000267232
  37   C   :   -0.001430733    0.016438175   -0.001904552
  38   C   :   -0.003024367   -0.000107950   -0.000084733
  39   N   :    0.020560102   -0.016296555   -0.009601928
  40   C   :    0.014627608    0.042070281   -0.009001317
  41   C   :   -0.010599297   -0.009926903   -0.001278144
  42   C   :   -0.005638530    0.009215685   -0.005800091
  43   N   :   -0.005368412    0.010256702   -0.002626632
  44   C   :   -0.002798158   -0.009951970   -0.007581447
  45   C   :   -0.000223626    0.000959422    0.006123233
  46   C   :    0.029771913   -0.007262882    0.017568778
  47   C   :    0.004803508   -0.007593836   -0.011645849
  48   S   :   -0.011146919   -0.000986780   -0.004194034
  49   C   :    0.014009119   -0.008995475    0.006829655
  50   C   :   -0.017645711    0.006940068   -0.001650006
  51   S   :   -0.002787211   -0.000418314    0.000657601
  52   C   :    0.003138626   -0.006188456   -0.011742303
  53   C   :   -0.006977216    0.004489265    0.004120999
  54   C   :   -0.006594357   -0.004629604    0.007022471
  55   C   :    0.001327483   -0.002623774   -0.003657307
  56   C   :   -0.001316206    0.002719832    0.014056339
  57   C   :    0.004341034    0.014294752   -0.002478185
  58   C   :   -0.019787285    0.013399643    0.000675425
  59   C   :   -0.001213960   -0.035256563    0.006096794
  60   C   :    0.043697599    0.038735641   -0.013579396
  61   N   :   -0.023867787   -0.023132612    0.009453384
  62   C   :   -0.054353106    0.018955301    0.006920144
  63   N   :    0.030312223   -0.013031061   -0.003735482
  64   C   :    0.001358324   -0.023680577    0.007220607
  65   C   :    0.003556758   -0.001067643    0.001454431
  66   C   :   -0.003315132    0.003543956    0.001995265
  67   Cl  :    0.005631310    0.005204569    0.002175086
  68   C   :   -0.005237679    0.002466144    0.004530707
  69   Cl  :    0.001734563   -0.007404595    0.003763101
  70   C   :    0.004114609    0.001928135    0.004978613
  71   C   :    0.004953422    0.020528638   -0.004792967
  72   C   :   -0.012431273   -0.016614491    0.003445118
  73   O   :    0.023928167    0.010327677   -0.003598185
  74   H   :   -0.000733757   -0.000910637   -0.000036005
  75   H   :   -0.000914933   -0.002713288   -0.000318148
  76   H   :   -0.005988997   -0.002893565    0.000313662
  77   H   :   -0.002719536    0.002617060   -0.000278057
  78   H   :    0.002869193   -0.000521756   -0.003011411
  79   H   :    0.001366676   -0.000337204    0.001844454
  80   H   :    0.002298755    0.001596767    0.001590167
  81   H   :   -0.000366537    0.000035216    0.002632547
  82   H   :   -0.005479630    0.000395531    0.001242557
  83   H   :    0.005450662    0.000390813    0.001064873
  84   H   :   -0.000305878   -0.000221179   -0.001169296
  85   H   :   -0.000197318   -0.000763697   -0.002555263
  86   H   :    0.000158485   -0.003362759   -0.001675123
  87   H   :    0.000614297   -0.001042093    0.003698364
  88   H   :    0.002310293   -0.002127067   -0.006195948
  89   H   :    0.001669848    0.001153141   -0.000739293
  90   H   :   -0.000884056    0.002217077   -0.000082617
  91   H   :    0.001735696    0.001581171   -0.000090894
  92   H   :   -0.005022886    0.002567593    0.000521039
  93   H   :    0.006294099   -0.000770892    0.000355088
  94   H   :    0.000575051   -0.000121590   -0.002327607
  95   H   :   -0.000523907   -0.003130989   -0.001864518
  96   H   :   -0.000849585    0.000705987   -0.001970745
  97   H   :    0.002493658   -0.000097092   -0.000450770
  98   H   :   -0.000717462    0.000540745   -0.001928264
  99   H   :   -0.002010832    0.000365928    0.001321888
 100   H   :   -0.001577901   -0.002137411    0.001309217
 101   H   :   -0.000276482   -0.000232798    0.002623328
 102   H   :   -0.002134155    0.003388814   -0.003317422
 103   H   :    0.001918106   -0.001436774   -0.000320385
 104   H   :    0.000977770    0.001502167   -0.000225699

Difference to translation invariance:
           :    0.0000000004    0.0000000000    0.0000000001

Norm of the cartesian gradient     ...    0.2115067947
RMS gradient                       ...    0.0119742143
MAX gradient                       ...    0.0591631892

-------
TIMINGS
-------

Total CIS gradient time            ...    27705.049 sec

Fock matrix formation       ....    2020.713 sec  (  7.3%)
  Coulomb formation         ....    2020.713 sec  (100.0% of F)
Z-vector equation           ....   23501.653 sec  ( 84.8%)
One electron gradient       ....      13.616 sec  (  0.0%)
Prescreening matrices       ....       1.147 sec  (  0.0%)
Two electron gradient       ....    2164.939 sec  (  7.8%)

                            ***************************************
                            *     ORCA property calculations      *
                            ***************************************

                                    ---------------------
                                    Active property flags
                                    ---------------------
   (+) Dipole Moment


------------------------------------------------------------------------------
                       ORCA ELECTRIC PROPERTIES CALCULATION
------------------------------------------------------------------------------

Dipole Moment Calculation                       ... on
Quadrupole Moment Calculation                   ... off
Polarizability Calculation                      ... off
GBWName                                         ... Y15.gbw
Electron density file                           ... Y15.scfp
The origin for moment calculation is the CENTER OF MASS  = (19.019427, -0.395932 -3.030733)

-------------
DIPOLE MOMENT
-------------
                                X             Y             Z
Electronic contribution:    -59.47877      14.30763      -2.95378
Nuclear contribution   :     59.53947      -9.36795       3.86053
                        -----------------------------------------
Total Dipole Moment    :      0.06070       4.93969       0.90675
                        -----------------------------------------
Magnitude (a.u.)       :      5.02259
Magnitude (Debye)      :     12.76640



--------------------
Rotational spectrum 
--------------------
 
Rotational constants in cm-1:     0.001601     0.000363     0.000315 
Rotational constants in MHz :    47.996926    10.894608     9.453128 

 Dipole components along the rotational axes: 
x,y,z [a.u.] :     2.622498     4.273816    -0.288748 
x,y,z [Debye]:     6.665861    10.863178    -0.733940 

 

                        *** CIS RELAXED DENSITY ***

------------------------------------------------------------------------------
                       ORCA ELECTRIC PROPERTIES CALCULATION
------------------------------------------------------------------------------

Dipole Moment Calculation                       ... on
Quadrupole Moment Calculation                   ... off
Polarizability Calculation                      ... off
GBWName                                         ... Y15.gbw
Electron density file                           ... Y15.cisp
The origin for moment calculation is the CENTER OF MASS  = (19.019427, -0.395932 -3.030733)

-------------
DIPOLE MOMENT
-------------
                                X             Y             Z
Electronic contribution:    -58.39382      14.07603      -2.97682
Nuclear contribution   :     59.53947      -9.36795       3.86053
                        -----------------------------------------
Total Dipole Moment    :      1.14565       4.70808       0.88372
                        -----------------------------------------
Magnitude (a.u.)       :      4.92540
Magnitude (Debye)      :     12.51936



--------------------
Rotational spectrum 
--------------------
 
Rotational constants in cm-1:     0.001601     0.000363     0.000315 
Rotational constants in MHz :    47.996926    10.894608     9.453128 

 Dipole components along the rotational axes: 
x,y,z [a.u.] :     1.626284     4.649099     0.024321 
x,y,z [Debye]:     4.133687    11.817071     0.061818 

 

Timings for individual modules:

Sum of individual times         ...    74436.714 sec (=1240.612 min)
GTO integral calculation        ...        2.154 sec (=   0.036 min)   0.0 %
SCF iterations                  ...    10108.917 sec (= 168.482 min)  13.6 %
CIS module                      ...    36620.407 sec (= 610.340 min)  49.2 %
SCF Gradient evaluation         ...    27705.237 sec (= 461.754 min)  37.2 %
                             ****ORCA TERMINATED NORMALLY****
TOTAL RUN TIME: 0 days 20 hours 40 minutes 37 seconds 692 msec
