
                                 *****************
                                 * O   R   C   A *
                                 *****************

           --- An Ab Initio, DFT and Semiempirical electronic structure package ---

                  #######################################################
                  #                        -***-                        #
                  #          Department of theory and spectroscopy      #
                  #               Directorship: Frank Neese             #
                  #        Max Planck Institute fuer Kohlenforschung    #
                  #                Kaiser Wilhelm Platz 1               #
                  #                 D-45470 Muelheim/Ruhr               #
                  #                      Germany                        #
                  #                                                     #
                  #                  All rights reserved                #
                  #                        -***-                        #
                  #######################################################


                         Program Version 4.2.0 -  RELEASE  -


 With contributions from (in alphabetic order):
   Daniel Aravena         : Magnetic Suceptibility
   Michael Atanasov       : Ab Initio Ligand Field Theory (pilot matlab implementation)
   Alexander A. Auer      : GIAO ZORA, VPT2
   Ute Becker             : Parallelization
   Giovanni Bistoni       : ED, misc. LED, open-shell LED, HFLED
   Martin Brehm           : Molecular dynamics
   Dmytro Bykov           : SCF Hessian
   Vijay G. Chilkuri      : MRCI spin determinant printing, contributions to CSF-ICE
   Dipayan Datta          : RHF DLPNO-CCSD density
   Achintya Kumar Dutta   : EOM-CC, STEOM-CC
   Dmitry Ganyushin       : Spin-Orbit,Spin-Spin,Magnetic field MRCI
   Miquel Garcia          : C-PCM Hessian, Gaussian charge scheme
   Yang Guo               : DLPNO-NEVPT2, CIM, IAO-localization
   Andreas Hansen         : Spin unrestricted coupled pair/coupled cluster methods
   Benjamin Helmich-Paris : CASSCF linear response (MC-RPA)
   Lee Huntington         : MR-EOM, pCC
   Robert Izsak           : Overlap fitted RIJCOSX, COSX-SCS-MP3, EOM
   Christian Kollmar      : KDIIS, OOCD, Brueckner-CCSD(T), CCSD density
   Simone Kossmann        : Meta GGA functionals, TD-DFT gradient, OOMP2, MP2 Hessian
   Martin Krupicka        : AUTO-CI
   Lucas Lang             : DCDCAS
   Dagmar Lenk            : GEPOL surface, SMD
   Dimitrios Liakos       : Extrapolation schemes; Compound Job, initial MDCI parallelization
   Dimitrios Manganas     : Further ROCIS development; embedding schemes
   Dimitrios Pantazis     : SARC Basis sets
   Taras Petrenko         : DFT Hessian,TD-DFT gradient, ASA, ECA, R-Raman, ABS, FL, XAS/XES, NRVS
   Peter Pinski           : DLPNO-MP2, DLPNO-MP2 Gradient
   Christoph Reimann      : Effective Core Potentials
   Marius Retegan         : Local ZFS, SOC
   Christoph Riplinger    : Optimizer, TS searches, QM/MM, DLPNO-CCSD(T), (RO)-DLPNO pert. Triples
   Tobias Risthaus        : Range-separated hybrids, TD-DFT gradient, RPA, STAB
   Michael Roemelt        : Original ROCIS implementation
   Masaaki Saitow         : Open-shell DLPNO-CCSD energy and density
   Barbara Sandhoefer     : DKH picture change effects
   Avijit Sen             : IP-ROCIS
   Kantharuban Sivalingam : CASSCF convergence, NEVPT2, FIC-MRCI
   Bernardo de Souza      : ESD, SOC TD-DFT
   Georgi Stoychev        : AutoAux, RI-MP2 NMR
   Willem Van den Heuvel  : Paramagnetic NMR
   Boris Wezisla          : Elementary symmetry handling
   Frank Wennmohs         : Technical directorship


 We gratefully acknowledge several colleagues who have allowed us to
 interface, adapt or use parts of their codes:
   Stefan Grimme, W. Hujo, H. Kruse,             : VdW corrections, initial TS optimization,
                  C. Bannwarth                     DFT functionals, gCP, sTDA/sTD-DF
   Ed Valeev, F. Pavosevic, A. Kumar             : LibInt (2-el integral package), F12 methods
   Garnet Chan, S. Sharma, J. Yang, R. Olivares  : DMRG
   Ulf Ekstrom                                   : XCFun DFT Library
   Mihaly Kallay                                 : mrcc  (arbitrary order and MRCC methods)
   Andreas Klamt, Michael Diedenhofen            : otool_cosmo (COSMO solvation model)
   Jiri Pittner, Ondrej Demel                    : Mk-CCSD
   Frank Weinhold                                : gennbo (NPA and NBO analysis)
   Christopher J. Cramer and Donald G. Truhlar   : smd solvation model
   Lars Goerigk                                  : TD-DFT with DH, B97 family of functionals
   V. Asgeirsson, H. Jonsson                     : NEB implementation
   FAccTs GmbH                                   : IRC, NEB, NEB-TS, Multilevel, MM, QM/MM, CI optimization
   S Lehtola, MJT Oliveira, MAL Marques          : LibXC Library


 Your calculation uses the libint2 library for the computation of 2-el integrals
 For citations please refer to: http://libint.valeyev.net

 Your ORCA version has been built with support for libXC version: 4.2.3
 For citations please refer to: https://tddft.org/programs/libxc/

 This ORCA versions uses:
   CBLAS   interface :  Fast vector & matrix operations
   LAPACKE interface :  Fast linear algebra routines
   SCALAPACK package :  Parallel linear algebra routines


----- Orbital basis set information -----
Your calculation utilizes the basis: def2-SVP
   F. Weigend and R. Ahlrichs, Phys. Chem. Chem. Phys. 7, 3297 (2005).

================================================================================
                                        WARNINGS
                       Please study these warnings very carefully!
================================================================================

INFO   : Checking CIS options ...

WARNING: CIS/ROCIS methods need fully converged wavefunctions
  ===> : Setting SCFConvForced true
         You can overwrite this default with %scf ConvForced false 


INFO   : the flag for use of LIBINT has been found!

================================================================================
                                       INPUT FILE
================================================================================
NAME = Y16.inp
|  1> # ORCA input file
|  2> # Y16.out: Geometry 139
|  3> ! Engrad Keepdens
|  4> %maxcore 1000
|  5> %tddft
|  6>   nroots 3 
|  7>   # nroots is the number of states to be computed
|  8>   Iroot 1
|  9>   end
| 10> * xyz 0 1
| 11>    C       -3.86936         2.67291        -6.89513
| 12>    O       -4.85091         3.14394        -6.34363
| 13>    C       -2.82319         3.44305        -7.61425
| 14>    C       -2.72849         4.82073        -7.76741
| 15>    C       -1.63324         5.33169        -8.47302
| 16>    C       -0.67240         4.46261        -9.00690
| 17>    C       -0.77157         3.07401        -8.85087
| 18>    C       -1.86284         2.55505        -8.14016
| 19>    C       -2.25241         1.16514        -7.78119
| 20>    C       -1.55243         0.03148        -8.16621
| 21>    C       -1.94996        -1.30419        -7.84793
| 22>    N       -2.23705        -2.40557        -7.60772
| 23>    C       -0.34068         0.08687        -8.92310
| 24>    N        0.65191         0.10444        -9.52772
| 25>    C       -3.47320         1.24644        -6.97690
| 26>    C       -4.09937         0.19059        -6.33786
| 27>    C       -5.21880         0.06446        -5.48343
| 28>    S       -6.32064         1.36361        -4.96260
| 29>    C       -7.21694         0.24478        -3.98746
| 30>    C       -6.68812        -1.06558        -4.07090
| 31>    C       -5.56873        -1.18795        -4.90526
| 32>    C       -4.88385        -2.49780        -5.19475
| 33>    C       -5.36256        -3.14934        -6.50231
| 34>    S       -7.56163        -2.23650        -3.07577
| 35>    C       -8.63861        -0.96251        -2.56045
| 36>    C       -8.32892         0.29359        -3.11525
| 37>    N       -9.26731         1.22961        -2.70241
| 38>    C       -9.53905         2.42826        -3.50136
| 39>    C       -8.53268         3.55415        -3.30674
| 40>    C      -10.18003         0.56957        -1.87305
| 41>    C       -9.81157        -0.81283        -1.78732
| 42>    C      -10.67569        -1.72006        -1.10540
| 43>    N      -10.60074        -3.04739        -0.92440
| 44>    N      -11.72834        -3.33567        -0.28616
| 45>    C      -12.11932        -4.71524        -0.02847
| 46>    C      -12.72870        -5.36318        -1.26896
| 47>    N      -12.55283        -2.32562        -0.04005
| 48>    C      -11.90458        -1.26462        -0.54657
| 49>    C      -12.24059         0.12107        -0.57587
| 50>    C      -11.35032         1.04335        -1.20316
| 51>    N      -11.86029         2.34899        -1.06860
| 52>    C      -10.99302         3.50958        -0.79731
| 53>    C      -11.33871         4.77081        -1.57169
| 54>    C      -13.08692         2.23154        -0.41515
| 55>    C      -13.32919         0.88585        -0.09030
| 56>    S      -14.83246         0.62697         0.75338
| 57>    C      -15.15839         2.35967         0.66848
| 58>    C      -14.14641         3.07614        -0.01078
| 59>    S      -14.61747         4.72376        -0.22471
| 60>    C      -16.15640         4.45122         0.63028
| 61>    C      -16.28137         3.11460         1.06715
| 62>    C      -17.48169         2.48595         1.71731
| 63>    C      -18.67111         2.31324         0.76199
| 64>    C      -17.08816         5.52120         0.52777
| 65>    C      -18.13744         5.91807         1.33188
| 66>    C      -19.15882         6.89181         0.94931
| 67>    C      -19.50459         7.25458        -0.34074
| 68>    C      -20.51682         8.22142        -0.63311
| 69>    N      -21.33226         9.00772        -0.89359
| 70>    C      -18.90802         6.66759        -1.50278
| 71>    N      -18.44296         6.20443        -2.46240
| 72>    C      -19.82001         7.36064         2.18921
| 73>    C      -20.82226         8.31260         2.41380
| 74>    C      -21.22846         8.55564         3.73178
| 75>    C      -20.65898         7.86714         4.81224
| 76>    C      -19.66599         6.90492         4.59260
| 77>    C      -19.26551         6.66506         3.28362
| 78>    C      -18.23173         5.70471         2.80367
| 79>    O      -17.55815         4.97095         3.50407
| 80>    H       -3.49479         5.46753        -7.33538
| 81>    H       -1.52074         6.40957        -8.61287
| 82>    H        0.17774         4.87464        -9.55570
| 83>    H       -0.00328         2.43436        -9.27718
| 84>    H       -3.62261        -0.77560        -6.48656
| 85>    H       -5.07067        -3.18165        -4.35095
| 86>    H       -3.79234        -2.36191        -5.24286
| 87>    H       -6.43725        -3.38370        -6.45966
| 88>    H       -4.80601        -4.07854        -6.69090
| 89>    H       -5.18941        -2.48203        -7.35838
| 90>    H      -10.55819         2.75394        -3.26667
| 91>    H       -9.55047         2.12181        -4.56116
| 92>    H       -8.79321         4.39731        -3.96329
| 93>    H       -7.51367         3.23609        -3.56779
| 94>    H       -8.51331         3.91826        -2.26973
| 95>    H      -12.83602        -4.68118         0.80251
| 96>    H      -11.21825        -5.24964         0.30371
| 97>    H      -13.59296        -4.77954        -1.61981
| 98>    H      -13.07178        -6.38241        -1.03510
| 99>    H      -11.98853        -5.41655        -2.08095
|100>    H       -9.96497         3.19626        -1.00616
|101>    H      -11.03518         3.71599         0.28605
|102>    H      -10.62323         5.56554        -1.31091
|103>    H      -12.34103         5.14166        -1.31909
|104>    H      -11.29955         4.61397        -2.65915
|105>    H      -17.76705         3.08772         2.59018
|106>    H      -17.17730         1.50073         2.10676
|107>    H      -19.02342         3.28209         0.37815
|108>    H      -19.51163         1.82811         1.28201
|109>    H      -18.39879         1.68839        -0.10238
|110>    H      -16.92158         6.14185        -0.35646
|111>    H      -21.27889         8.86671         1.59711
|112>    H      -22.00516         9.30041         3.92029
|113>    H      -21.00068         8.08630         5.82663
|114>    H      -19.20527         6.34570         5.40957
|115> *
|116> 
|117>                          ****END OF INPUT****
================================================================================

                     *******************************
                     * Energy+Gradient Calculation *
                     *******************************

---------------------------------
CARTESIAN COORDINATES (ANGSTROEM)
---------------------------------
  C     -3.869360    2.672910   -6.895130
  O     -4.850910    3.143940   -6.343630
  C     -2.823190    3.443050   -7.614250
  C     -2.728490    4.820730   -7.767410
  C     -1.633240    5.331690   -8.473020
  C     -0.672400    4.462610   -9.006900
  C     -0.771570    3.074010   -8.850870
  C     -1.862840    2.555050   -8.140160
  C     -2.252410    1.165140   -7.781190
  C     -1.552430    0.031480   -8.166210
  C     -1.949960   -1.304190   -7.847930
  N     -2.237050   -2.405570   -7.607720
  C     -0.340680    0.086870   -8.923100
  N      0.651910    0.104440   -9.527720
  C     -3.473200    1.246440   -6.976900
  C     -4.099370    0.190590   -6.337860
  C     -5.218800    0.064460   -5.483430
  S     -6.320640    1.363610   -4.962600
  C     -7.216940    0.244780   -3.987460
  C     -6.688120   -1.065580   -4.070900
  C     -5.568730   -1.187950   -4.905260
  C     -4.883850   -2.497800   -5.194750
  C     -5.362560   -3.149340   -6.502310
  S     -7.561630   -2.236500   -3.075770
  C     -8.638610   -0.962510   -2.560450
  C     -8.328920    0.293590   -3.115250
  N     -9.267310    1.229610   -2.702410
  C     -9.539050    2.428260   -3.501360
  C     -8.532680    3.554150   -3.306740
  C    -10.180030    0.569570   -1.873050
  C     -9.811570   -0.812830   -1.787320
  C    -10.675690   -1.720060   -1.105400
  N    -10.600740   -3.047390   -0.924400
  N    -11.728340   -3.335670   -0.286160
  C    -12.119320   -4.715240   -0.028470
  C    -12.728700   -5.363180   -1.268960
  N    -12.552830   -2.325620   -0.040050
  C    -11.904580   -1.264620   -0.546570
  C    -12.240590    0.121070   -0.575870
  C    -11.350320    1.043350   -1.203160
  N    -11.860290    2.348990   -1.068600
  C    -10.993020    3.509580   -0.797310
  C    -11.338710    4.770810   -1.571690
  C    -13.086920    2.231540   -0.415150
  C    -13.329190    0.885850   -0.090300
  S    -14.832460    0.626970    0.753380
  C    -15.158390    2.359670    0.668480
  C    -14.146410    3.076140   -0.010780
  S    -14.617470    4.723760   -0.224710
  C    -16.156400    4.451220    0.630280
  C    -16.281370    3.114600    1.067150
  C    -17.481690    2.485950    1.717310
  C    -18.671110    2.313240    0.761990
  C    -17.088160    5.521200    0.527770
  C    -18.137440    5.918070    1.331880
  C    -19.158820    6.891810    0.949310
  C    -19.504590    7.254580   -0.340740
  C    -20.516820    8.221420   -0.633110
  N    -21.332260    9.007720   -0.893590
  C    -18.908020    6.667590   -1.502780
  N    -18.442960    6.204430   -2.462400
  C    -19.820010    7.360640    2.189210
  C    -20.822260    8.312600    2.413800
  C    -21.228460    8.555640    3.731780
  C    -20.658980    7.867140    4.812240
  C    -19.665990    6.904920    4.592600
  C    -19.265510    6.665060    3.283620
  C    -18.231730    5.704710    2.803670
  O    -17.558150    4.970950    3.504070
  H     -3.494790    5.467530   -7.335380
  H     -1.520740    6.409570   -8.612870
  H      0.177740    4.874640   -9.555700
  H     -0.003280    2.434360   -9.277180
  H     -3.622610   -0.775600   -6.486560
  H     -5.070670   -3.181650   -4.350950
  H     -3.792340   -2.361910   -5.242860
  H     -6.437250   -3.383700   -6.459660
  H     -4.806010   -4.078540   -6.690900
  H     -5.189410   -2.482030   -7.358380
  H    -10.558190    2.753940   -3.266670
  H     -9.550470    2.121810   -4.561160
  H     -8.793210    4.397310   -3.963290
  H     -7.513670    3.236090   -3.567790
  H     -8.513310    3.918260   -2.269730
  H    -12.836020   -4.681180    0.802510
  H    -11.218250   -5.249640    0.303710
  H    -13.592960   -4.779540   -1.619810
  H    -13.071780   -6.382410   -1.035100
  H    -11.988530   -5.416550   -2.080950
  H     -9.964970    3.196260   -1.006160
  H    -11.035180    3.715990    0.286050
  H    -10.623230    5.565540   -1.310910
  H    -12.341030    5.141660   -1.319090
  H    -11.299550    4.613970   -2.659150
  H    -17.767050    3.087720    2.590180
  H    -17.177300    1.500730    2.106760
  H    -19.023420    3.282090    0.378150
  H    -19.511630    1.828110    1.282010
  H    -18.398790    1.688390   -0.102380
  H    -16.921580    6.141850   -0.356460
  H    -21.278890    8.866710    1.597110
  H    -22.005160    9.300410    3.920290
  H    -21.000680    8.086300    5.826630
  H    -19.205270    6.345700    5.409570

----------------------------
CARTESIAN COORDINATES (A.U.)
----------------------------
  NO LB      ZA    FRAG     MASS         X           Y           Z
   0 C     6.0000    0    12.011   -7.312031    5.051068  -13.029907
   1 O     8.0000    0    15.999   -9.166891    5.941186  -11.987723
   2 C     6.0000    0    12.011   -5.335056    6.506422  -14.388847
   3 C     6.0000    0    12.011   -5.156099    9.109859  -14.678278
   4 C     6.0000    0    12.011   -3.086376   10.075434  -16.011687
   5 C     6.0000    0    12.011   -1.270652    8.433111  -17.020574
   6 C     6.0000    0    12.011   -1.458056    5.809037  -16.725720
   7 C     6.0000    0    12.011   -3.520257    4.828345  -15.382673
   8 C     6.0000    0    12.011   -4.256438    2.201796  -14.704318
   9 C     6.0000    0    12.011   -2.933668    0.059489  -15.431900
  10 C     6.0000    0    12.011   -3.684890   -2.464562  -14.830438
  11 N     7.0000    0    14.007   -4.227412   -4.545868  -14.376507
  12 C     6.0000    0    12.011   -0.643792    0.164161  -16.862215
  13 N     7.0000    0    14.007    1.231931    0.197363  -18.004781
  14 C     6.0000    0    12.011   -6.563397    2.355430  -13.184430
  15 C     6.0000    0    12.011   -7.746687    0.360163  -11.976820
  16 C     6.0000    0    12.011   -9.862103    0.121812  -10.362181
  17 S    16.0000    0    32.060  -11.944279    2.576849   -9.377955
  18 C     6.0000    0    12.011  -13.638040    0.462567   -7.535207
  19 C     6.0000    0    12.011  -12.638715   -2.013654   -7.692886
  20 C     6.0000    0    12.011  -10.523375   -2.244900   -9.269598
  21 C     6.0000    0    12.011   -9.229139   -4.720158   -9.816655
  22 C     6.0000    0    12.011  -10.133770   -5.951390  -12.287585
  23 S    16.0000    0    32.060  -14.289410   -4.226372   -5.812363
  24 C     6.0000    0    12.011  -16.324607   -1.818880   -4.838549
  25 C     6.0000    0    12.011  -15.739378    0.554805   -5.886969
  26 N     7.0000    0    14.007  -17.512678    2.323626   -5.106815
  27 C     6.0000    0    12.011  -18.026192    4.588746   -6.616611
  28 C     6.0000    0    12.011  -16.124428    6.716370   -6.248833
  29 C     6.0000    0    12.011  -19.237469    1.076331   -3.539552
  30 C     6.0000    0    12.011  -18.541180   -1.536026   -3.377545
  31 C     6.0000    0    12.011  -20.174130   -3.250442   -2.088903
  32 N     7.0000    0    14.007  -20.032495   -5.758733   -1.746863
  33 N     7.0000    0    14.007  -22.163351   -6.303503   -0.540764
  34 C     6.0000    0    12.011  -22.902196   -8.910512   -0.053801
  35 C     6.0000    0    12.011  -24.053757  -10.134941   -2.397987
  36 N     7.0000    0    14.007  -23.721411   -4.394785   -0.075684
  37 C     6.0000    0    12.011  -22.496396   -2.389785   -1.032868
  38 C     6.0000    0    12.011  -23.131363    0.228789   -1.088237
  39 C     6.0000    0    12.011  -21.448996    1.971646   -2.273643
  40 N     7.0000    0    14.007  -22.412700    4.438948   -2.019361
  41 C     6.0000    0    12.011  -20.773797    6.632145   -1.506698
  42 C     6.0000    0    12.011  -21.427057    9.015524   -2.970064
  43 C     6.0000    0    12.011  -24.730695    4.216999   -0.784520
  44 C     6.0000    0    12.011  -25.188519    1.674014   -0.170642
  45 S    16.0000    0    32.060  -28.029287    1.184802    1.423682
  46 C     6.0000    0    12.011  -28.645206    4.459130    1.263244
  47 C     6.0000    0    12.011  -26.732841    5.813062   -0.020371
  48 S    16.0000    0    32.060  -27.623015    8.926613   -0.424640
  49 C     6.0000    0    12.011  -30.531171    8.411587    1.191057
  50 C     6.0000    0    12.011  -30.767330    5.885741    2.016621
  51 C     6.0000    0    12.011  -33.035606    4.697765    3.245246
  52 C     6.0000    0    12.011  -35.283285    4.371390    1.439952
  53 C     6.0000    0    12.011  -32.291943   10.433556    0.997341
  54 C     6.0000    0    12.011  -34.274794   11.183532    2.516888
  55 C     6.0000    0    12.011  -36.204923   13.023633    1.793936
  56 C     6.0000    0    12.011  -36.858333   13.709169   -0.643905
  57 C     6.0000    0    12.011  -38.771171   15.536232   -1.196405
  58 N     7.0000    0    14.007  -40.312129   17.022124   -1.688640
  59 C     6.0000    0    12.011  -35.730980   12.599919   -2.839843
  60 N     7.0000    0    14.007  -34.852143   11.724674   -4.653262
  61 C     6.0000    0    12.011  -37.454391   13.909594    4.137007
  62 C     6.0000    0    12.011  -39.348369   15.708537    4.561421
  63 C     6.0000    0    12.011  -40.115976   16.167817    7.052042
  64 C     6.0000    0    12.011  -39.039814   14.866740    9.093816
  65 C     6.0000    0    12.011  -37.163335   13.048408    8.678756
  66 C     6.0000    0    12.011  -36.406538   12.595138    6.205143
  67 C     6.0000    0    12.011  -34.452977   10.780340    5.298168
  68 O     8.0000    0    15.999  -33.180095    9.393734    6.621733
  69 H     1.0000    0     1.008   -6.604196   10.332134  -13.861859
  70 H     1.0000    0     1.008   -2.873782   12.112332  -16.275966
  71 H     1.0000    0     1.008    0.335880    9.211735  -18.057656
  72 H     1.0000    0     1.008   -0.006198    4.600274  -17.531329
  73 H     1.0000    0     1.008   -6.845741   -1.465672  -12.257822
  74 H     1.0000    0     1.008   -9.582178   -6.012447   -8.222104
  75 H     1.0000    0     1.008   -7.166484   -4.463363   -9.907570
  76 H     1.0000    0     1.008  -12.164640   -6.394266  -12.206988
  77 H     1.0000    0     1.008   -9.082043   -7.707324  -12.643969
  78 H     1.0000    0     1.008   -9.806564   -4.690357  -13.905323
  79 H     1.0000    0     1.008  -19.952088    5.204192   -6.173112
  80 H     1.0000    0     1.008  -18.047773    4.009640   -8.619343
  81 H     1.0000    0     1.008  -16.616759    8.309712   -7.489533
  82 H     1.0000    0     1.008  -14.198779    6.115324   -6.742146
  83 H     1.0000    0     1.008  -16.087824    7.404438   -4.289168
  84 H     1.0000    0     1.008  -24.256562   -8.846148    1.516524
  85 H     1.0000    0     1.008  -21.199420   -9.920382    0.573929
  86 H     1.0000    0     1.008  -25.686972   -9.032022   -3.060997
  87 H     1.0000    0     1.008  -24.702084  -12.061007   -1.956056
  88 H     1.0000    0     1.008  -22.655038  -10.235796   -3.932426
  89 H     1.0000    0     1.008  -18.831064    6.040056   -1.901367
  90 H     1.0000    0     1.008  -20.853468    7.022203    0.540556
  91 H     1.0000    0     1.008  -20.074995   10.517346   -2.477261
  92 H     1.0000    0     1.008  -23.321167    9.716329   -2.492719
  93 H     1.0000    0     1.008  -21.353055    8.719140   -5.025065
  94 H     1.0000    0     1.008  -33.574859    5.834945    4.894731
  95 H     1.0000    0     1.008  -32.460393    2.835969    3.981199
  96 H     1.0000    0     1.008  -35.949054    6.202251    0.714600
  97 H     1.0000    0     1.008  -36.871637    3.454627    2.422648
  98 H     1.0000    0     1.008  -34.768674    3.190595   -0.193470
  99 H     1.0000    0     1.008  -31.977152   11.606414   -0.673612
 100 H     1.0000    0     1.008  -40.211275   16.755654    3.018101
 101 H     1.0000    0     1.008  -41.583726   17.575228    7.408274
 102 H     1.0000    0     1.008  -39.685534   15.280892   11.010735
 103 H     1.0000    0     1.008  -36.292701   11.991635   10.222606

--------------------------------
INTERNAL COORDINATES (ANGSTROEM)
--------------------------------
 C      0   0   0     0.000000000000     0.00000000     0.00000000
 O      1   0   0     1.220435132811     0.00000000     0.00000000
 C      1   2   0     1.484830247166   125.82648106     0.00000000
 C      3   1   2     1.389398523822   128.00340711     2.08830341
 C      4   3   1     1.399477815544   118.09599185   178.93096438
 C      5   4   3     1.401264217198   120.15148906     0.23738508
 C      6   5   4     1.400853314876   121.58801901   359.77990051
 C      7   6   5     1.401891008103   118.58887554   359.93916682
 C      8   7   6     1.487438756353   132.23218053   181.02184372
 C      9   8   7     1.386866034049   124.37729383   357.55786845
 C     10   9   8     1.429456752826   124.16778117   181.69503067
 N     11  10   9     1.163253805753   177.85985938   183.86851350
 C     10   9   8     1.429786203144   122.89148646     2.14571813
 N     13  10   9     1.162372125182   178.50111416   156.77844885
 C      9   8   7     1.464179059473   107.40070278   177.65797199
 C     15   9   8     1.383936491679   126.05270818   186.28151852
 C     16  15   9     1.413889290822   134.85622342   176.46759526
 S     17  16  15     1.781321418779   126.96746770     2.80073829
 C     18  17  16     1.733791301887    90.77795875   181.62401703
 C     19  18  17     1.415505618357   111.78278499   359.74391106
 C     20  19  18     1.401486710105   114.47619802     0.14380719
 C     21  20  19     1.506177976535   123.61059923   183.02948031
 C     22  21  20     1.537329108974   112.98257656    95.87800136
 S     20  19  18     1.767585099338   113.29247393   179.32500494
 C     24  20  19     1.745992881687    89.29121463     0.32953427
 C     25  24  20     1.407656970323   113.52034399   359.37804081
 N     26  25  24     1.388216877185   109.61755639   177.28851600
 C     27  26  25     1.465921400553   120.96744823   205.18470604
 C     28  27  26     1.522591807872   114.35875006   279.01619887
 C     27  26  25     1.398766817450   107.41220619     0.26726254
 C     25  24  20     1.412787762157   138.67179508   174.68987051
 C     31  25  24     1.426458738870   134.20045705   357.16454371
 N     32  31  25     1.341709145605   131.28736621     3.98856840
 N     33  32  31     1.327379906432   103.43033808   183.70086720
 C     34  33  32     1.456874353333   121.24384771   172.88834848
 C     35  34  33     1.526429057670   111.42915636   280.78561002
 N     34  33  32     1.326859033470   116.85426986     0.76328367
 C     37  34  33     1.342576468176   103.38974411   359.14884967
 C     38  37  34     1.426147953825   131.44060062   181.64409697
 C     39  38  37     1.427120813176   119.33878244   180.49538479
 N     40  39  38     1.408144738335   109.34674660   182.12607980
 C     41  40  39     1.474016507743   122.31367844   140.79318877
 C     42  41  40     1.519824685087   115.20090923   138.81726621
 C     41  40  39     1.394780470863   106.57011794   357.43444569
 C     44  41  40     1.405383880475   109.90893743     2.37003009
 S     45  44  41     1.743168233333   113.74953461   179.18318861
 C     46  45  44     1.765131061678    89.43709205     0.24711840
 C     47  46  45     1.413798758275   112.85483792     1.15818340
 S     48  47  46     1.726938109169   110.35062098   173.14357347
 C     49  48  47     1.781457688692    91.73187556     1.14555673
 C     47  46  45     1.410652740472   131.20320591   175.76871733
 C     51  47  46     1.502889533698   122.29013360     1.38171310
 C     52  51  47     1.535312666169   113.36663652   257.43685689
 C     50  49  48     1.422512635480   114.59352763   190.84134857
 C     54  50  49     1.380248965730   132.24019511   204.50039755
 C     55  54  50     1.462103449452   124.75835944   192.37087961
 C     56  55  54     1.383975421855   126.37005095    21.42213204
 C     57  56  55     1.429989292058   123.00111980   180.14945931
 N     58  57  56     1.162351028734   178.81769801   168.22263237
 C     57  56  55     1.432057955042   123.01493534     2.00657464
 N     60  57  56     1.162612804677   178.59443348   171.20616277
 C     56  55  54     1.481325688362   107.67239430   197.90384023
 C     62  56  55     1.400419070207   131.97615698   177.50302794
 C     63  62  56     1.400406427435   118.45681617   181.19271709
 C     64  63  62     1.402046194674   121.48210713   359.76027539
 C     65  64  63     1.400049355594   120.31047462   359.61176342
 C     66  65  64     1.389728639123   118.08439829     0.32905087
 C     55  54  50     1.490160695294   125.61491051    28.50516979
 O     68  55  54     1.217650982014   128.27178132   346.04376644
 H      4   3   1     1.091886372706   119.73052445   359.32948608
 H      5   4   3     1.092721175278   120.34798066   180.18036857
 H      6   5   4     1.092560378423   119.40850535   179.99464746
 H      7   6   5     1.086812708198   119.31906634   180.22368588
 H     16  15   9     1.087628109098   114.60018337   358.69969298
 H     22  21  20     1.102066683509   108.38441084   334.21480585
 H     22  21  20     1.100988076366   110.60117536   218.23768889
 H     23  22  21     1.100773468158   111.17940172   298.32449916
 H     23  22  21     1.099421088846   110.27096865   177.66026753
 H     23  22  21     1.099153948953   110.85982631    58.79734452
 H     28  27  26     1.095350719222   107.38663740   154.63132200
 H     28  27  26     1.103276057431   107.35770934    40.80712361
 H     29  28  27     1.099932983868   109.51072096   178.24982639
 H     29  28  27     1.098949792393   111.62319797    59.40240468
 H     29  28  27     1.099245663671   112.15826401   298.46626072
 H     35  34  33     1.097882841655   106.24187644   159.06845585
 H     35  34  33     1.099024138634   107.09032490    42.96840658
 H     36  35  34     1.100307556868   110.33754795   302.95981775
 H     36  35  34     1.100556304284   110.17424500   183.41501691
 H     36  35  34     1.100012611700   110.60098490    63.13494483
 H     42  41  40     1.094839964287   106.98028474    15.27067180
 H     42  41  40     1.103653679059   107.78489912   261.58491302
 H     43  42  41     1.100687790293   109.30574843   181.05463179
 H     43  42  41     1.098172056146   111.75516153    62.61021413
 H     43  42  41     1.099409633758   112.17855172   301.20861546
 H     52  51  47     1.097934196298   108.79866410   133.68754721
 H     52  51  47     1.102262683302   107.82868229    18.78742376
 H     53  52  51     1.100057182241   111.47845135   298.58991494
 H     53  52  51     1.101020339367   110.30971943   178.65716366
 H     53  52  51     1.100786628643   111.14912772    58.84518268
 H     54  50  49     1.093077312819   112.67848615    23.87051922
 H     63  62  56     1.087442598531   121.76634322     0.59828433
 H     64  63  62     1.092465680468   119.13919601   179.62632511
 H     65  64  63     1.092601056058   119.33650721   179.84994806
 H     66  65  64     1.091984389861   122.26492414   180.38092243

---------------------------
INTERNAL COORDINATES (A.U.)
---------------------------
 C      0   0   0     0.000000000000     0.00000000     0.00000000
 O      1   0   0     2.306288165229     0.00000000     0.00000000
 C      1   2   0     2.805922522507   125.82648106     0.00000000
 C      3   1   2     2.625582700899   128.00340711     2.08830341
 C      4   3   1     2.644629801877   118.09599185   178.93096438
 C      5   4   3     2.648005611768   120.15148906     0.23738508
 C      6   5   4     2.647229118912   121.58801901   359.77990051
 C      7   6   5     2.649190074921   118.58887554   359.93916682
 C      8   7   6     2.810851890487   132.23218053   181.02184372
 C      9   8   7     2.620796988791   124.37729383   357.55786845
 C     10   9   8     2.701281783126   124.16778117   181.69503067
 N     11  10   9     2.198231117116   177.85985938   183.86851350
 C     10   9   8     2.701904354001   122.89148646     2.14571813
 N     13  10   9     2.196564982298   178.50111416   156.77844885
 C      9   8   7     2.766897433427   107.40070278   177.65797199
 C     15   9   8     2.615260956013   126.05270818   186.28151852
 C     16  15   9     2.671863543337   134.85622342   176.46759526
 S     17  16  15     3.366209637980   126.96746770     2.80073829
 C     18  17  16     3.276390733942    90.77795875   181.62401703
 C     19  18  17     2.674917959721   111.78278499   359.74391106
 C     20  19  18     2.648426062428   114.47619802     0.14380719
 C     21  20  19     2.846263884595   123.61059923   183.02948031
 C     22  21  20     2.905130993667   112.98257656    95.87800136
 S     20  19  18     3.340251756148   113.29247393   179.32500494
 C     24  20  19     3.299448378163    89.29121463     0.32953427
 C     25  24  20     2.660086164417   113.52034399   359.37804081
 N     26  25  24     2.623349712366   109.61755639   177.28851600
 C     27  26  25     2.770189980900   120.96744823   205.18470604
 C     28  27  26     2.877281530631   114.35875006   279.01619887
 C     27  26  25     2.643286210198   107.41220619     0.26726254
 C     25  24  20     2.669781955832   138.67179508   174.68987051
 C     31  25  24     2.695616357804   134.20045705   357.16454371
 N     32  31  25     2.535462836571   131.28736621     3.98856840
 N     33  32  31     2.508384498827   103.43033808   183.70086720
 C     34  33  32     2.753093539333   121.24384771   172.88834848
 C     35  34  33     2.884532881856   111.42915636   280.78561002
 N     34  33  32     2.507400191577   116.85426986     0.76328367
 C     37  34  33     2.537101838700   103.38974411   359.14884967
 C     38  37  34     2.695029059182   131.44060062   181.64409697
 C     39  38  37     2.696867496922   119.33878244   180.49538479
 N     40  39  38     2.661007912375   109.34674660   182.12607980
 C     41  40  39     2.785487516514   122.31367844   140.79318877
 C     42  41  40     2.872052426388   115.20090923   138.81726621
 C     41  40  39     2.635753106872   106.57011794   357.43444569
 C     44  41  40     2.655790647126   109.90893743     2.37003009
 S     45  44  41     3.294110566350   113.74953461   179.18318861
 C     46  45  44     3.335614297049    89.43709205     0.24711840
 C     47  46  45     2.671692461618   112.85483792     1.15818340
 S     48  47  46     3.263440076561   110.35062098   173.14357347
 C     49  48  47     3.366467150796    91.73187556     1.14555673
 C     47  46  45     2.665747349557   131.20320591   175.76871733
 C     51  47  46     2.840049628226   122.29013360     1.38171310
 C     52  51  47     2.901320469001   113.36663652   257.43685689
 C     50  49  48     2.688159303100   114.59352763   190.84134857
 C     54  50  49     2.608292541859   132.24019511   204.50039755
 C     55  54  50     2.762975098926   124.75835944   192.37087961
 C     56  55  54     2.615334523385   126.37005095    21.42213204
 C     57  56  55     2.702288136429   123.00111980   180.14945931
 N     58  57  56     2.196525115790   178.81769801   168.22263237
 C     57  56  55     2.706197342933   123.01493534     2.00657464
 N     60  57  56     2.197019800630   178.59443348   171.20616277
 C     56  55  54     2.799299866146   107.67239430   197.90384023
 C     62  56  55     2.646408515412   131.97615698   177.50302794
 C     63  62  56     2.646384624034   118.45681617   181.19271709
 C     64  63  62     2.649483335040   121.48210713   359.76027539
 C     65  64  63     2.645709856046   120.31047462   359.61176342
 C     66  65  64     2.626206528410   118.08439829     0.32905087
 C     55  54  50     2.815995609640   125.61491051    28.50516979
 O     68  55  54     2.301026882707   128.27178132   346.04376644
 H      4   3   1     2.063366213774   119.73052445   359.32948608
 H      5   4   3     2.064943762011   120.34798066   180.18036857
 H      6   5   4     2.064639899993   119.40850535   179.99464746
 H      7   6   5     2.053778377359   119.31906634   180.22368588
 H     16  15   9     2.055319261750   114.60018337   358.69969298
 H     22  21  20     2.082604213150   108.38441084   334.21480585
 H     22  21  20     2.080565941044   110.60117536   218.23768889
 H     23  22  21     2.080160390305   111.17940172   298.32449916
 H     23  22  21     2.077604763777   110.27096865   177.66026753
 H     23  22  21     2.077099942540   110.85982631    58.79734452
 H     28  27  26     2.069912879923   107.38663740   154.63132200
 H     28  27  26     2.084889598657   107.35770934    40.80712361
 H     29  28  27     2.078572105177   109.51072096   178.24982639
 H     29  28  27     2.076714142552   111.62319797    59.40240468
 H     29  28  27     2.077273258239   112.15826401   298.46626072
 H     35  34  33     2.074697897859   106.24187644   159.06845585
 H     35  34  33     2.076854636587   107.09032490    42.96840658
 H     36  35  34     2.079279945564   110.33754795   302.95981775
 H     36  35  34     2.079750010058   110.17424500   183.41501691
 H     36  35  34     2.078722579973   110.60098490    63.13494483
 H     42  41  40     2.068947692975   106.98028474    15.27067180
 H     42  41  40     2.085603200116   107.78489912   261.58491302
 H     43  42  41     2.079998482605   109.30574843   181.05463179
 H     43  42  41     2.075244434041   111.75516153    62.61021413
 H     43  42  41     2.077583116797   112.17855172   301.20861546
 H     52  51  47     2.074794944070   108.79866410   133.68754721
 H     52  51  47     2.082974599082   107.82868229    18.78742376
 H     53  52  51     2.078806806089   111.47845135   298.58991494
 H     53  52  51     2.080626909281   110.30971943   178.65716366
 H     53  52  51     2.080185260018   111.14912772    58.84518268
 H     54  50  49     2.065616764431   112.67848615    23.87051922
 H     63  62  56     2.054968697583   121.76634322     0.59828433
 H     64  63  62     2.064460946792   119.13919601   179.62632511
 H     65  64  63     2.064716769584   119.33650721   179.84994806
 H     66  65  64     2.063551439354   122.26492414   180.38092243

---------------------
BASIS SET INFORMATION
---------------------
There are 5 groups of distinct atoms

 Group   1 Type C   : 7s4p1d contracted to 3s2p1d pattern {511/31/1}
 Group   2 Type O   : 7s4p1d contracted to 3s2p1d pattern {511/31/1}
 Group   3 Type N   : 7s4p1d contracted to 3s2p1d pattern {511/31/1}
 Group   4 Type S   : 10s7p1d contracted to 4s3p1d pattern {5311/511/1}
 Group   5 Type H   : 4s1p contracted to 2s1p pattern {31/1}

Atom   0C    basis set group =>   1
Atom   1O    basis set group =>   2
Atom   2C    basis set group =>   1
Atom   3C    basis set group =>   1
Atom   4C    basis set group =>   1
Atom   5C    basis set group =>   1
Atom   6C    basis set group =>   1
Atom   7C    basis set group =>   1
Atom   8C    basis set group =>   1
Atom   9C    basis set group =>   1
Atom  10C    basis set group =>   1
Atom  11N    basis set group =>   3
Atom  12C    basis set group =>   1
Atom  13N    basis set group =>   3
Atom  14C    basis set group =>   1
Atom  15C    basis set group =>   1
Atom  16C    basis set group =>   1
Atom  17S    basis set group =>   4
Atom  18C    basis set group =>   1
Atom  19C    basis set group =>   1
Atom  20C    basis set group =>   1
Atom  21C    basis set group =>   1
Atom  22C    basis set group =>   1
Atom  23S    basis set group =>   4
Atom  24C    basis set group =>   1
Atom  25C    basis set group =>   1
Atom  26N    basis set group =>   3
Atom  27C    basis set group =>   1
Atom  28C    basis set group =>   1
Atom  29C    basis set group =>   1
Atom  30C    basis set group =>   1
Atom  31C    basis set group =>   1
Atom  32N    basis set group =>   3
Atom  33N    basis set group =>   3
Atom  34C    basis set group =>   1
Atom  35C    basis set group =>   1
Atom  36N    basis set group =>   3
Atom  37C    basis set group =>   1
Atom  38C    basis set group =>   1
Atom  39C    basis set group =>   1
Atom  40N    basis set group =>   3
Atom  41C    basis set group =>   1
Atom  42C    basis set group =>   1
Atom  43C    basis set group =>   1
Atom  44C    basis set group =>   1
Atom  45S    basis set group =>   4
Atom  46C    basis set group =>   1
Atom  47C    basis set group =>   1
Atom  48S    basis set group =>   4
Atom  49C    basis set group =>   1
Atom  50C    basis set group =>   1
Atom  51C    basis set group =>   1
Atom  52C    basis set group =>   1
Atom  53C    basis set group =>   1
Atom  54C    basis set group =>   1
Atom  55C    basis set group =>   1
Atom  56C    basis set group =>   1
Atom  57C    basis set group =>   1
Atom  58N    basis set group =>   3
Atom  59C    basis set group =>   1
Atom  60N    basis set group =>   3
Atom  61C    basis set group =>   1
Atom  62C    basis set group =>   1
Atom  63C    basis set group =>   1
Atom  64C    basis set group =>   1
Atom  65C    basis set group =>   1
Atom  66C    basis set group =>   1
Atom  67C    basis set group =>   1
Atom  68O    basis set group =>   2
Atom  69H    basis set group =>   5
Atom  70H    basis set group =>   5
Atom  71H    basis set group =>   5
Atom  72H    basis set group =>   5
Atom  73H    basis set group =>   5
Atom  74H    basis set group =>   5
Atom  75H    basis set group =>   5
Atom  76H    basis set group =>   5
Atom  77H    basis set group =>   5
Atom  78H    basis set group =>   5
Atom  79H    basis set group =>   5
Atom  80H    basis set group =>   5
Atom  81H    basis set group =>   5
Atom  82H    basis set group =>   5
Atom  83H    basis set group =>   5
Atom  84H    basis set group =>   5
Atom  85H    basis set group =>   5
Atom  86H    basis set group =>   5
Atom  87H    basis set group =>   5
Atom  88H    basis set group =>   5
Atom  89H    basis set group =>   5
Atom  90H    basis set group =>   5
Atom  91H    basis set group =>   5
Atom  92H    basis set group =>   5
Atom  93H    basis set group =>   5
Atom  94H    basis set group =>   5
Atom  95H    basis set group =>   5
Atom  96H    basis set group =>   5
Atom  97H    basis set group =>   5
Atom  98H    basis set group =>   5
Atom  99H    basis set group =>   5
Atom 100H    basis set group =>   5
Atom 101H    basis set group =>   5
Atom 102H    basis set group =>   5
Atom 103H    basis set group =>   5
------------------------------------------------------------------------------
                           ORCA GTO INTEGRAL CALCULATION
------------------------------------------------------------------------------

                         BASIS SET STATISTICS AND STARTUP INFO

 # of primitive gaussian shells          ... 1027
 # of primitive gaussian functions       ... 1949
 # of contracted shells                  ...  527
 # of contracted basis functions         ... 1157
 Highest angular momentum                ...    2
 Maximum contraction depth               ...    5
 Integral package used                   ... LIBINT
 Integral threshhold            Thresh   ...  2.500e-11
 Primitive cut-off              TCut     ...  2.500e-12


------------------------------ INTEGRAL EVALUATION ----------------------------


 * One electron integrals 
 Pre-screening matrix                    ... done
 Shell pair data                         ... done (   0.017 sec)

-------------------------------------------------------------------------------
                                 ORCA SCF
-------------------------------------------------------------------------------

------------
SCF SETTINGS
------------
Hamiltonian:
 Ab initio Hamiltonian  Method          .... Hartree-Fock(GTOs)


General Settings:
 Integral files         IntName         .... Y16
 Hartree-Fock type      HFTyp           .... RHF
 Total Charge           Charge          ....    0
 Multiplicity           Mult            ....    1
 Number of Electrons    NEL             ....  502
 Basis Dimension        Dim             .... 1157
 Nuclear Repulsion      ENuc            ....  10126.7926383201 Eh

Convergence Acceleration:
 DIIS                   CNVDIIS         .... on
   Start iteration      DIISMaxIt       ....    12
   Startup error        DIISStart       ....  0.200000
   # of expansion vecs  DIISMaxEq       ....     5
   Bias factor          DIISBfac        ....   1.050
   Max. coefficient     DIISMaxC        ....  10.000
 Newton-Raphson         CNVNR           .... off
 SOSCF                  CNVSOSCF        .... on
   Start iteration      SOSCFMaxIt      ....   150
   Startup grad/error   SOSCFStart      ....  0.003300
 Level Shifting         CNVShift        .... on
   Level shift para.    LevelShift      ....    0.2500
   Turn off err/grad.   ShiftErr        ....    0.0010
 Zerner damping         CNVZerner       .... off
 Static damping         CNVDamp         .... on
   Fraction old density DampFac         ....    0.7000
   Max. Damping (<1)    DampMax         ....    0.9800
   Min. Damping (>=0)   DampMin         ....    0.0000
   Turn off err/grad.   DampErr         ....    0.1000
 Fernandez-Rico         CNVRico         .... off

SCF Procedure:
 Maximum # iterations   MaxIter         ....   125
 SCF integral mode      SCFMode         .... Direct
   Integral package                     .... LIBINT
 Reset frequency        DirectResetFreq ....    20
 Integral Threshold     Thresh          ....  2.500e-11 Eh
 Primitive CutOff       TCut            ....  2.500e-12 Eh

Convergence Tolerance:
 Convergence Check Mode ConvCheckMode   .... Total+1el-Energy
 Convergence forced     ConvForced      .... 1
 Energy Change          TolE            ....  1.000e-08 Eh
 1-El. energy change                    ....  1.000e-05 Eh
 Orbital Gradient       TolG            ....  1.000e-05
 Orbital Rotation angle TolX            ....  1.000e-05
 DIIS Error             TolErr          ....  5.000e-07


Diagonalization of the overlap matrix:
Smallest eigenvalue                        ... 1.006e-04
Time for diagonalization                   ...    0.375 sec
Threshold for overlap eigenvalues          ... 1.000e-08
Number of eigenvalues below threshold      ... 0
Time for construction of square roots      ...    0.139 sec
Total time needed                          ...    0.517 sec

-------------------
DFT GRID GENERATION
-------------------

General Integration Accuracy     IntAcc      ...  4.340
Radial Grid Type                 RadialGrid  ... Gauss-Chebyshev
Angular Grid (max. acc.)         AngularGrid ... Lebedev-110
Angular grid pruning method      GridPruning ... 3 (G Style)
Weight generation scheme         WeightScheme... Becke
Basis function cutoff            BFCut       ...    1.0000e-11
Integration weight cutoff        WCut        ...    1.0000e-14
Grids for H and He will be reduced by one unit

# of grid points (after initial pruning)     ... 143188 (   0.2 sec)
# of grid points (after weights+screening)   ... 125495 (   5.9 sec)
nearest neighbour list constructed           ...    0.0 sec
Grid point re-assignment to atoms done       ...    0.0 sec
Grid point division into batches done        ...    0.1 sec
Reduced shell lists constructed in    2.0 sec

Total number of grid points                  ...   125495
Total number of batches                      ...     2012
Average number of points per batch           ...       62
Average number of grid points per atom       ...     1207
Average number of shells per batch           ...   107.17 (20.34%)
Average number of basis functions per batch  ...   221.52 (19.15%)
Average number of large shells per batch     ...    64.68 (60.35%)
Average number of large basis fcns per batch ...   135.86 (61.33%)
Maximum spatial batch extension              ...  21.50, 19.89, 27.57 au
Average spatial batch extension              ...   3.40,  3.14,  3.57 au

Time for grid setup =    8.165 sec

------------------------------
INITIAL GUESS: MODEL POTENTIAL
------------------------------
Loading Hartree-Fock densities                     ... done
Calculating cut-offs                               ... done
Setting up the integral package                    ... done
Initializing the effective Hamiltonian             ... done
Starting the Coulomb interaction                   ... done (   8.2 sec)
Reading the grid                                   ... done
Mapping shells                                     ... done
Starting the XC term evaluation                    ... done (   1.8 sec)
Transforming the Hamiltonian                       ... done (   0.1 sec)
Diagonalizing the Hamiltonian                      ... done (   0.3 sec)
Back transforming the eigenvectors                 ... done (   0.0 sec)
Now organizing SCF variables                       ... done
                      ------------------
                      INITIAL GUESS DONE (  18.9 sec)
                      ------------------
--------------
SCF ITERATIONS
--------------
ITER       Energy         Delta-E        Max-DP      RMS-DP      [F,P]     Damp
               ***  Starting incremental Fock matrix formation  ***
  0  -4290.3777606728   0.000000000000 0.09286518  0.00138572  0.2260790 0.7000
  1  -4291.0788273889  -0.701066716081 0.07180775  0.00106521  0.1374296 0.7000
                               ***Turning on DIIS***
  2  -4291.5042130579  -0.425385668985 0.17782958  0.00248780  0.0777655 0.0000
  3  -4289.2959218172   2.208291240697 0.05345295  0.00049916  0.0499681 0.0000
  4  -4292.7462455376  -3.450323720403 0.01319473  0.00020687  0.0199272 0.0000
  5  -4292.5938026471   0.152442890467 0.00656952  0.00010368  0.0077555 0.0000
  6  -4292.3784068460   0.215395801119 0.00478607  0.00006365  0.0026805 0.0000
  7  -4292.4498697167  -0.071462870723 0.00245853  0.00003910  0.0016967 0.0000
                      *** Initiating the SOSCF procedure ***
                           *** Shutting down DIIS ***
                      *** Re-Reading the Fockian *** 
                      *** Removing any level shift *** 
ITER      Energy       Delta-E        Grad      Rot      Max-DP    RMS-DP
  8  -4292.41859064   0.0312790805  0.003180  0.003180  0.003241  0.000044
               *** Restarting incremental Fock matrix formation ***
  9  -4292.43795003  -0.0193593971  0.000555  0.002282  0.000781  0.000011
 10  -4292.43797260  -0.0000225623  0.000367  0.003551  0.001159  0.000013
 11  -4292.43798617  -0.0000135746  0.000075  0.000287  0.000127  0.000002
 12  -4292.43798683  -0.0000006611  0.000033  0.000178  0.000074  0.000001
 13  -4292.43798704  -0.0000002053  0.000017  0.000126  0.000071  0.000001
 14  -4292.43798711  -0.0000000692  0.000008  0.000044  0.000025  0.000000
 15  -4292.43798715  -0.0000000402  0.000004  0.000033  0.000019  0.000000
                  ***Gradient check signals convergence***
              ***Rediagonalizing the Fockian in SOSCF/NRSCF***

               *****************************************************
               *                     SUCCESS                       *
               *           SCF CONVERGED AFTER  16 CYCLES          *
               *****************************************************


----------------
TOTAL SCF ENERGY
----------------

Total Energy       :        -4292.43798714 Eh         -116803.17579 eV

Components:
Nuclear Repulsion  :        10126.79263832 Eh          275564.03709 eV
Electronic Energy  :       -14419.23062546 Eh         -392367.21288 eV
One Electron Energy:       -26046.24880921 Eh         -708754.46248 eV
Two Electron Energy:        11627.01818375 Eh          316387.24960 eV

Virial components:
Potential Energy   :        -8570.86065676 Eh         -233224.97540 eV
Kinetic Energy     :         4278.42266962 Eh          116421.79961 eV
Virial Ratio       :            2.00327581


---------------
SCF CONVERGENCE
---------------

  Last Energy change         ...    1.0195e-08  Tolerance :   1.0000e-08
  Last MAX-Density change    ...    6.2263e-06  Tolerance :   1.0000e-07
  Last RMS-Density change    ...    7.5202e-08  Tolerance :   5.0000e-09
  Last Orbital Gradient      ...    1.7212e-06  Tolerance :   1.0000e-05
  Last Orbital Rotation      ...    1.2898e-05  Tolerance :   1.0000e-05

             **** THE GBW FILE WAS UPDATED (Y16.gbw) ****
             **** DENSITY FILE WAS UPDATED (Y16.scfp) ****
             **** ENERGY FILE WAS UPDATED (Y16.en.tmp) ****
             **** THE GBW FILE WAS UPDATED (Y16.gbw) ****
             **** DENSITY FILE WAS UPDATED (Y16.scfp) ****
----------------
ORBITAL ENERGIES
----------------

  NO   OCC          E(Eh)            E(eV) 
   0   2.0000     -91.978374     -2502.8588 
   1   2.0000     -91.974229     -2502.7460 
   2   2.0000     -91.974193     -2502.7450 
   3   2.0000     -91.971974     -2502.6847 
   4   2.0000     -20.561386      -559.5038 
   5   2.0000     -20.559200      -559.4443 
   6   2.0000     -15.701688      -427.2646 
   7   2.0000     -15.642985      -425.6673 
   8   2.0000     -15.638870      -425.5553 
   9   2.0000     -15.622584      -425.1121 
  10   2.0000     -15.620709      -425.0611 
  11   2.0000     -15.592427      -424.2915 
  12   2.0000     -15.589719      -424.2178 
  13   2.0000     -15.588705      -424.1902 
  14   2.0000     -15.584287      -424.0700 
  15   2.0000     -11.361701      -309.1676 
  16   2.0000     -11.357108      -309.0426 
  17   2.0000     -11.340372      -308.5872 
  18   2.0000     -11.339712      -308.5692 
  19   2.0000     -11.323482      -308.1276 
  20   2.0000     -11.322867      -308.1109 
  21   2.0000     -11.321335      -308.0692 
  22   2.0000     -11.321050      -308.0614 
  23   2.0000     -11.316271      -307.9314 
  24   2.0000     -11.316024      -307.9247 
  25   2.0000     -11.315431      -307.9085 
  26   2.0000     -11.311945      -307.8137 
  27   2.0000     -11.308202      -307.7118 
  28   2.0000     -11.307399      -307.6900 
  29   2.0000     -11.306591      -307.6680 
  30   2.0000     -11.306235      -307.6583 
  31   2.0000     -11.305703      -307.6438 
  32   2.0000     -11.302932      -307.5684 
  33   2.0000     -11.302201      -307.5485 
  34   2.0000     -11.302080      -307.5452 
  35   2.0000     -11.301532      -307.5303 
  36   2.0000     -11.298349      -307.4437 
  37   2.0000     -11.298305      -307.4425 
  38   2.0000     -11.297325      -307.4158 
  39   2.0000     -11.295287      -307.3604 
  40   2.0000     -11.295113      -307.3556 
  41   2.0000     -11.294379      -307.3357 
  42   2.0000     -11.292739      -307.2910 
  43   2.0000     -11.289848      -307.2124 
  44   2.0000     -11.289756      -307.2099 
  45   2.0000     -11.287758      -307.1555 
  46   2.0000     -11.287247      -307.1416 
  47   2.0000     -11.286039      -307.1087 
  48   2.0000     -11.279162      -306.9216 
  49   2.0000     -11.279144      -306.9211 
  50   2.0000     -11.278792      -306.9115 
  51   2.0000     -11.277781      -306.8840 
  52   2.0000     -11.276662      -306.8536 
  53   2.0000     -11.276524      -306.8498 
  54   2.0000     -11.276169      -306.8402 
  55   2.0000     -11.275804      -306.8302 
  56   2.0000     -11.275150      -306.8124 
  57   2.0000     -11.274775      -306.8022 
  58   2.0000     -11.274443      -306.7932 
  59   2.0000     -11.273813      -306.7761 
  60   2.0000     -11.270721      -306.6919 
  61   2.0000     -11.269536      -306.6597 
  62   2.0000     -11.260734      -306.4202 
  63   2.0000     -11.256604      -306.3078 
  64   2.0000     -11.252498      -306.1960 
  65   2.0000     -11.249276      -306.1084 
  66   2.0000     -11.246553      -306.0343 
  67   2.0000     -11.238997      -305.8287 
  68   2.0000     -11.238045      -305.8028 
  69   2.0000      -9.012972      -245.2554 
  70   2.0000      -9.008103      -245.1229 
  71   2.0000      -9.007201      -245.0984 
  72   2.0000      -9.005846      -245.0615 
  73   2.0000      -6.700575      -182.3319 
  74   2.0000      -6.699443      -182.3011 
  75   2.0000      -6.697418      -182.2460 
  76   2.0000      -6.695630      -182.1974 
  77   2.0000      -6.694799      -182.1748 
  78   2.0000      -6.694426      -182.1646 
  79   2.0000      -6.693405      -182.1368 
  80   2.0000      -6.693267      -182.1331 
  81   2.0000      -6.692574      -182.1142 
  82   2.0000      -6.692522      -182.1128 
  83   2.0000      -6.691273      -182.0788 
  84   2.0000      -6.690252      -182.0510 
  85   2.0000      -1.455912       -39.6174 
  86   2.0000      -1.389448       -37.8088 
  87   2.0000      -1.386832       -37.7376 
  88   2.0000      -1.336089       -36.3568 
  89   2.0000      -1.318892       -35.8889 
  90   2.0000      -1.236831       -33.6559 
  91   2.0000      -1.236553       -33.6483 
  92   2.0000      -1.220793       -33.2195 
  93   2.0000      -1.217302       -33.1245 
  94   2.0000      -1.215520       -33.0760 
  95   2.0000      -1.215019       -33.0624 
  96   2.0000      -1.209613       -32.9152 
  97   2.0000      -1.206398       -32.8278 
  98   2.0000      -1.199773       -32.6475 
  99   2.0000      -1.180465       -32.1221 
 100   2.0000      -1.156033       -31.4573 
 101   2.0000      -1.153384       -31.3852 
 102   2.0000      -1.141864       -31.0717 
 103   2.0000      -1.139894       -31.0181 
 104   2.0000      -1.117555       -30.4102 
 105   2.0000      -1.097814       -29.8731 
 106   2.0000      -1.086501       -29.5652 
 107   2.0000      -1.082374       -29.4529 
 108   2.0000      -1.077945       -29.3324 
 109   2.0000      -1.075242       -29.2588 
 110   2.0000      -1.066023       -29.0080 
 111   2.0000      -1.055353       -28.7176 
 112   2.0000      -1.053054       -28.6551 
 113   2.0000      -1.043325       -28.3903 
 114   2.0000      -1.040507       -28.3136 
 115   2.0000      -1.025037       -27.8927 
 116   2.0000      -1.023762       -27.8580 
 117   2.0000      -1.003308       -27.3014 
 118   2.0000      -1.001835       -27.2613 
 119   2.0000      -0.993846       -27.0439 
 120   2.0000      -0.979707       -26.6592 
 121   2.0000      -0.961618       -26.1670 
 122   2.0000      -0.953451       -25.9447 
 123   2.0000      -0.942666       -25.6512 
 124   2.0000      -0.921817       -25.0839 
 125   2.0000      -0.919188       -25.0124 
 126   2.0000      -0.918360       -24.9898 
 127   2.0000      -0.914597       -24.8874 
 128   2.0000      -0.894010       -24.3273 
 129   2.0000      -0.876104       -23.8400 
 130   2.0000      -0.871693       -23.7200 
 131   2.0000      -0.866414       -23.5763 
 132   2.0000      -0.862808       -23.4782 
 133   2.0000      -0.855954       -23.2917 
 134   2.0000      -0.840991       -22.8845 
 135   2.0000      -0.833353       -22.6767 
 136   2.0000      -0.830799       -22.6072 
 137   2.0000      -0.828661       -22.5490 
 138   2.0000      -0.822022       -22.3684 
 139   2.0000      -0.810550       -22.0562 
 140   2.0000      -0.799431       -21.7536 
 141   2.0000      -0.784905       -21.3584 
 142   2.0000      -0.773103       -21.0372 
 143   2.0000      -0.769068       -20.9274 
 144   2.0000      -0.768741       -20.9185 
 145   2.0000      -0.767740       -20.8913 
 146   2.0000      -0.748809       -20.3761 
 147   2.0000      -0.745124       -20.2759 
 148   2.0000      -0.735263       -20.0075 
 149   2.0000      -0.732504       -19.9325 
 150   2.0000      -0.730265       -19.8715 
 151   2.0000      -0.722825       -19.6691 
 152   2.0000      -0.714074       -19.4309 
 153   2.0000      -0.700042       -19.0491 
 154   2.0000      -0.693013       -18.8578 
 155   2.0000      -0.690307       -18.7842 
 156   2.0000      -0.683242       -18.5920 
 157   2.0000      -0.682626       -18.5752 
 158   2.0000      -0.675354       -18.3773 
 159   2.0000      -0.674387       -18.3510 
 160   2.0000      -0.671183       -18.2638 
 161   2.0000      -0.661463       -17.9993 
 162   2.0000      -0.658747       -17.9254 
 163   2.0000      -0.656336       -17.8598 
 164   2.0000      -0.649026       -17.6609 
 165   2.0000      -0.648365       -17.6429 
 166   2.0000      -0.644443       -17.5362 
 167   2.0000      -0.639674       -17.4064 
 168   2.0000      -0.636105       -17.3093 
 169   2.0000      -0.634636       -17.2693 
 170   2.0000      -0.633829       -17.2474 
 171   2.0000      -0.631535       -17.1850 
 172   2.0000      -0.628621       -17.1056 
 173   2.0000      -0.624404       -16.9909 
 174   2.0000      -0.622285       -16.9332 
 175   2.0000      -0.618438       -16.8286 
 176   2.0000      -0.616128       -16.7657 
 177   2.0000      -0.615620       -16.7519 
 178   2.0000      -0.612443       -16.6654 
 179   2.0000      -0.611021       -16.6267 
 180   2.0000      -0.607947       -16.5431 
 181   2.0000      -0.603488       -16.4218 
 182   2.0000      -0.601406       -16.3651 
 183   2.0000      -0.598961       -16.2986 
 184   2.0000      -0.583879       -15.8882 
 185   2.0000      -0.580244       -15.7892 
 186   2.0000      -0.579407       -15.7665 
 187   2.0000      -0.575464       -15.6592 
 188   2.0000      -0.572930       -15.5902 
 189   2.0000      -0.571505       -15.5515 
 190   2.0000      -0.567124       -15.4322 
 191   2.0000      -0.566956       -15.4277 
 192   2.0000      -0.565261       -15.3815 
 193   2.0000      -0.564840       -15.3701 
 194   2.0000      -0.563239       -15.3265 
 195   2.0000      -0.561148       -15.2696 
 196   2.0000      -0.560057       -15.2399 
 197   2.0000      -0.554309       -15.0835 
 198   2.0000      -0.552545       -15.0355 
 199   2.0000      -0.551228       -14.9997 
 200   2.0000      -0.549476       -14.9520 
 201   2.0000      -0.548237       -14.9183 
 202   2.0000      -0.546715       -14.8769 
 203   2.0000      -0.542234       -14.7549 
 204   2.0000      -0.537593       -14.6286 
 205   2.0000      -0.536153       -14.5895 
 206   2.0000      -0.534671       -14.5491 
 207   2.0000      -0.534479       -14.5439 
 208   2.0000      -0.532070       -14.4784 
 209   2.0000      -0.528646       -14.3852 
 210   2.0000      -0.527067       -14.3422 
 211   2.0000      -0.524964       -14.2850 
 212   2.0000      -0.522586       -14.2203 
 213   2.0000      -0.521443       -14.1892 
 214   2.0000      -0.514636       -14.0040 
 215   2.0000      -0.507620       -13.8130 
 216   2.0000      -0.503835       -13.7100 
 217   2.0000      -0.499651       -13.5962 
 218   2.0000      -0.499248       -13.5852 
 219   2.0000      -0.495370       -13.4797 
 220   2.0000      -0.493116       -13.4184 
 221   2.0000      -0.490309       -13.3420 
 222   2.0000      -0.489564       -13.3217 
 223   2.0000      -0.488108       -13.2821 
 224   2.0000      -0.487286       -13.2597 
 225   2.0000      -0.484699       -13.1893 
 226   2.0000      -0.481774       -13.1097 
 227   2.0000      -0.473670       -12.8892 
 228   2.0000      -0.473006       -12.8712 
 229   2.0000      -0.471194       -12.8218 
 230   2.0000      -0.467438       -12.7196 
 231   2.0000      -0.461741       -12.5646 
 232   2.0000      -0.458583       -12.4787 
 233   2.0000      -0.451099       -12.2750 
 234   2.0000      -0.441758       -12.0209 
 235   2.0000      -0.438874       -11.9424 
 236   2.0000      -0.431157       -11.7324 
 237   2.0000      -0.408674       -11.1206 
 238   2.0000      -0.406867       -11.0714 
 239   2.0000      -0.380835       -10.3631 
 240   2.0000      -0.378191       -10.2911 
 241   2.0000      -0.371834       -10.1181 
 242   2.0000      -0.369534       -10.0555 
 243   2.0000      -0.352785        -9.5998 
 244   2.0000      -0.350020        -9.5245 
 245   2.0000      -0.346622        -9.4321 
 246   2.0000      -0.334626        -9.1056 
 247   2.0000      -0.327778        -8.9193 
 248   2.0000      -0.308049        -8.3824 
 249   2.0000      -0.300322        -8.1722 
 250   2.0000      -0.253676        -6.9029 
 251   0.0000      -0.026427        -0.7191 
 252   0.0000      -0.009947        -0.2707 
 253   0.0000       0.019357         0.5267 
 254   0.0000       0.026038         0.7085 
 255   0.0000       0.053747         1.4625 
 256   0.0000       0.081078         2.2062 
 257   0.0000       0.091962         2.5024 
 258   0.0000       0.118999         3.2381 
 259   0.0000       0.127434         3.4676 
 260   0.0000       0.135180         3.6784 
 261   0.0000       0.144376         3.9287 
 262   0.0000       0.148112         4.0303 
 263   0.0000       0.149900         4.0790 
 264   0.0000       0.153741         4.1835 
 265   0.0000       0.155951         4.2436 
 266   0.0000       0.159857         4.3499 
 267   0.0000       0.165752         4.5103 
 268   0.0000       0.167814         4.5665 
 269   0.0000       0.171125         4.6566 
 270   0.0000       0.176824         4.8116 
 271   0.0000       0.178177         4.8484 
 272   0.0000       0.178996         4.8707 
 273   0.0000       0.179724         4.8905 
 274   0.0000       0.186682         5.0799 
 275   0.0000       0.187847         5.1116 
 276   0.0000       0.196291         5.3413 
 277   0.0000       0.198218         5.3938 
 278   0.0000       0.200534         5.4568 
 279   0.0000       0.204303         5.5594 
 280   0.0000       0.206093         5.6081 
 281   0.0000       0.209798         5.7089 
 282   0.0000       0.212716         5.7883 
 283   0.0000       0.213834         5.8187 
 284   0.0000       0.215516         5.8645 
 285   0.0000       0.216179         5.8825 
 286   0.0000       0.217675         5.9232 
 287   0.0000       0.221180         6.0186 
 288   0.0000       0.224922         6.1204 
 289   0.0000       0.226354         6.1594 
 290   0.0000       0.227462         6.1896 
 291   0.0000       0.228891         6.2284 
 292   0.0000       0.231110         6.2888 
 293   0.0000       0.232458         6.3255 
 294   0.0000       0.232922         6.3381 
 295   0.0000       0.237129         6.4526 
 296   0.0000       0.241552         6.5730 
 297   0.0000       0.243613         6.6290 
 298   0.0000       0.248177         6.7532 
 299   0.0000       0.248423         6.7599 
 300   0.0000       0.248920         6.7735 
 301   0.0000       0.254204         6.9172 
 302   0.0000       0.255627         6.9560 
 303   0.0000       0.258756         7.0411 
 304   0.0000       0.263227         7.1628 
 305   0.0000       0.263982         7.1833 
 306   0.0000       0.269329         7.3288 
 307   0.0000       0.269829         7.3424 
 308   0.0000       0.271786         7.3957 
 309   0.0000       0.273520         7.4429 
 310   0.0000       0.277444         7.5496 
 311   0.0000       0.283842         7.7237 
 312   0.0000       0.289261         7.8712 
 313   0.0000       0.291408         7.9296 
 314   0.0000       0.294161         8.0045 
 315   0.0000       0.295930         8.0527 
 316   0.0000       0.301565         8.2060 
 317   0.0000       0.306311         8.3352 
 318   0.0000       0.306742         8.3469 
 319   0.0000       0.312844         8.5129 
 320   0.0000       0.317752         8.6465 
 321   0.0000       0.320942         8.7333 
 322   0.0000       0.325593         8.8598 
 323   0.0000       0.334174         9.0933 
 324   0.0000       0.336069         9.1449 
 325   0.0000       0.337718         9.1898 
 326   0.0000       0.342302         9.3145 
 327   0.0000       0.343126         9.3369 
 328   0.0000       0.343193         9.3387 
 329   0.0000       0.348519         9.4837 
 330   0.0000       0.351748         9.5715 
 331   0.0000       0.357654         9.7323 
 332   0.0000       0.359889         9.7931 
 333   0.0000       0.361156         9.8276 
 334   0.0000       0.364166         9.9095 
 335   0.0000       0.364994         9.9320 
 336   0.0000       0.369179        10.0459 
 337   0.0000       0.372329        10.1316 
 338   0.0000       0.372750        10.1431 
 339   0.0000       0.374189        10.1822 
 340   0.0000       0.376634        10.2487 
 341   0.0000       0.381224        10.3736 
 342   0.0000       0.384111        10.4522 
 343   0.0000       0.386268        10.5109 
 344   0.0000       0.390722        10.6321 
 345   0.0000       0.393188        10.6992 
 346   0.0000       0.396436        10.7876 
 347   0.0000       0.400835        10.9073 
 348   0.0000       0.403937        10.9917 
 349   0.0000       0.405383        11.0310 
 350   0.0000       0.406738        11.0679 
 351   0.0000       0.409443        11.1415 
 352   0.0000       0.415934        11.3181 
 353   0.0000       0.421923        11.4811 
 354   0.0000       0.423200        11.5159 
 355   0.0000       0.426967        11.6184 
 356   0.0000       0.429147        11.6777 
 357   0.0000       0.434007        11.8099 
 358   0.0000       0.435839        11.8598 
 359   0.0000       0.439314        11.9543 
 360   0.0000       0.442912        12.0523 
 361   0.0000       0.447664        12.1815 
 362   0.0000       0.453978        12.3534 
 363   0.0000       0.455128        12.3847 
 364   0.0000       0.456659        12.4263 
 365   0.0000       0.459702        12.5091 
 366   0.0000       0.463089        12.6013 
 367   0.0000       0.467248        12.7145 
 368   0.0000       0.469122        12.7655 
 369   0.0000       0.474223        12.9043 
 370   0.0000       0.475085        12.9277 
 371   0.0000       0.477247        12.9865 
 372   0.0000       0.479554        13.0493 
 373   0.0000       0.482066        13.1177 
 374   0.0000       0.486185        13.2298 
 375   0.0000       0.487560        13.2672 
 376   0.0000       0.495331        13.4786 
 377   0.0000       0.499567        13.5939 
 378   0.0000       0.503144        13.6913 
 379   0.0000       0.506005        13.7691 
 380   0.0000       0.509668        13.8688 
 381   0.0000       0.515191        14.0191 
 382   0.0000       0.519413        14.1339 
 383   0.0000       0.524897        14.2832 
 384   0.0000       0.529789        14.4163 
 385   0.0000       0.534895        14.5552 
 386   0.0000       0.535572        14.5736 
 387   0.0000       0.538714        14.6591 
 388   0.0000       0.541778        14.7425 
 389   0.0000       0.545980        14.8569 
 390   0.0000       0.554709        15.0944 
 391   0.0000       0.555757        15.1229 
 392   0.0000       0.556889        15.1537 
 393   0.0000       0.561750        15.2860 
 394   0.0000       0.567834        15.4516 
 395   0.0000       0.569331        15.4923 
 396   0.0000       0.573620        15.6090 
 397   0.0000       0.575486        15.6598 
 398   0.0000       0.578924        15.7533 
 399   0.0000       0.586580        15.9616 
 400   0.0000       0.590409        16.0658 
 401   0.0000       0.594051        16.1649 
 402   0.0000       0.594974        16.1901 
 403   0.0000       0.597471        16.2580 
 404   0.0000       0.601375        16.3642 
 405   0.0000       0.607249        16.5241 
 406   0.0000       0.608090        16.5470 
 407   0.0000       0.612909        16.6781 
 408   0.0000       0.617134        16.7931 
 409   0.0000       0.618330        16.8256 
 410   0.0000       0.624109        16.9829 
 411   0.0000       0.626800        17.0561 
 412   0.0000       0.627463        17.0741 
 413   0.0000       0.629379        17.1263 
 414   0.0000       0.634533        17.2665 
 415   0.0000       0.636221        17.3125 
 416   0.0000       0.638307        17.3692 
 417   0.0000       0.640840        17.4382 
 418   0.0000       0.642591        17.4858 
 419   0.0000       0.644959        17.5502 
 420   0.0000       0.648503        17.6467 
 421   0.0000       0.652216        17.7477 
 422   0.0000       0.654838        17.8190 
 423   0.0000       0.656961        17.8768 
 424   0.0000       0.657268        17.8852 
 425   0.0000       0.659357        17.9420 
 426   0.0000       0.660853        17.9827 
 427   0.0000       0.662384        18.0244 
 428   0.0000       0.664375        18.0786 
 429   0.0000       0.665407        18.1066 
 430   0.0000       0.668877        18.2011 
 431   0.0000       0.672968        18.3124 
 432   0.0000       0.675069        18.3696 
 433   0.0000       0.677187        18.4272 
 434   0.0000       0.679183        18.4815 
 435   0.0000       0.682637        18.5755 
 436   0.0000       0.685040        18.6409 
 437   0.0000       0.694775        18.9058 
 438   0.0000       0.699506        19.0345 
 439   0.0000       0.700569        19.0634 
 440   0.0000       0.703295        19.1376 
 441   0.0000       0.705732        19.2039 
 442   0.0000       0.708014        19.2660 
 443   0.0000       0.709689        19.3116 
 444   0.0000       0.712143        19.3784 
 445   0.0000       0.712613        19.3912 
 446   0.0000       0.713774        19.4228 
 447   0.0000       0.716694        19.5022 
 448   0.0000       0.719279        19.5726 
 449   0.0000       0.721350        19.6289 
 450   0.0000       0.723419        19.6852 
 451   0.0000       0.724188        19.7062 
 452   0.0000       0.727159        19.7870 
 453   0.0000       0.731987        19.9184 
 454   0.0000       0.734309        19.9816 
 455   0.0000       0.736981        20.0543 
 456   0.0000       0.744257        20.2523 
 457   0.0000       0.747978        20.3535 
 458   0.0000       0.751925        20.4609 
 459   0.0000       0.754407        20.5285 
 460   0.0000       0.758420        20.6377 
 461   0.0000       0.760956        20.7067 
 462   0.0000       0.767889        20.8953 
 463   0.0000       0.768951        20.9242 
 464   0.0000       0.773738        21.0545 
 465   0.0000       0.775689        21.1076 
 466   0.0000       0.779672        21.2159 
 467   0.0000       0.782852        21.3025 
 468   0.0000       0.785826        21.3834 
 469   0.0000       0.789586        21.4857 
 470   0.0000       0.793218        21.5846 
 471   0.0000       0.794279        21.6134 
 472   0.0000       0.796974        21.6868 
 473   0.0000       0.806300        21.9405 
 474   0.0000       0.808306        21.9951 
 475   0.0000       0.809961        22.0402 
 476   0.0000       0.814601        22.1664 
 477   0.0000       0.816407        22.2156 
 478   0.0000       0.819334        22.2952 
 479   0.0000       0.822026        22.3685 
 480   0.0000       0.824047        22.4235 
 481   0.0000       0.826617        22.4934 
 482   0.0000       0.830134        22.5891 
 483   0.0000       0.832769        22.6608 
 484   0.0000       0.836409        22.7598 
 485   0.0000       0.836740        22.7689 
 486   0.0000       0.837706        22.7951 
 487   0.0000       0.839399        22.8412 
 488   0.0000       0.841699        22.9038 
 489   0.0000       0.844109        22.9694 
 490   0.0000       0.845333        23.0027 
 491   0.0000       0.847045        23.0493 
 492   0.0000       0.847918        23.0730 
 493   0.0000       0.849699        23.1215 
 494   0.0000       0.850518        23.1438 
 495   0.0000       0.853447        23.2235 
 496   0.0000       0.854703        23.2577 
 497   0.0000       0.857095        23.3227 
 498   0.0000       0.858232        23.3537 
 499   0.0000       0.858509        23.3612 
 500   0.0000       0.860748        23.4221 
 501   0.0000       0.863587        23.4994 
 502   0.0000       0.866132        23.5686 
 503   0.0000       0.867388        23.6028 
 504   0.0000       0.868183        23.6245 
 505   0.0000       0.870165        23.6784 
 506   0.0000       0.872500        23.7419 
 507   0.0000       0.875426        23.8216 
 508   0.0000       0.876818        23.8594 
 509   0.0000       0.879173        23.9235 
 510   0.0000       0.880310        23.9545 
 511   0.0000       0.883479        24.0407 
 512   0.0000       0.885544        24.0969 
 513   0.0000       0.886901        24.1338 
 514   0.0000       0.890046        24.2194 
 515   0.0000       0.890732        24.2380 
 516   0.0000       0.891475        24.2583 
 517   0.0000       0.893222        24.3058 
 518   0.0000       0.894218        24.3329 
 519   0.0000       0.896771        24.4024 
 520   0.0000       0.897851        24.4318 
 521   0.0000       0.898149        24.4399 
 522   0.0000       0.900297        24.4983 
 523   0.0000       0.903087        24.5742 
 524   0.0000       0.904486        24.6123 
 525   0.0000       0.906113        24.6566 
 526   0.0000       0.906652        24.6713 
 527   0.0000       0.909335        24.7443 
 528   0.0000       0.910723        24.7820 
 529   0.0000       0.913730        24.8639 
 530   0.0000       0.914149        24.8753 
 531   0.0000       0.916567        24.9410 
 532   0.0000       0.918040        24.9811 
 533   0.0000       0.919945        25.0330 
 534   0.0000       0.921570        25.0772 
 535   0.0000       0.922266        25.0961 
 536   0.0000       0.923708        25.1354 
 537   0.0000       0.926407        25.2088 
 538   0.0000       0.927461        25.2375 
 539   0.0000       0.929217        25.2853 
 540   0.0000       0.929834        25.3021 
 541   0.0000       0.930621        25.3235 
 542   0.0000       0.932215        25.3669 
 543   0.0000       0.935109        25.4456 
 544   0.0000       0.936902        25.4944 
 545   0.0000       0.937283        25.5048 
 546   0.0000       0.940214        25.5845 
 547   0.0000       0.940880        25.6026 
 548   0.0000       0.942448        25.6453 
 549   0.0000       0.943202        25.6658 
 550   0.0000       0.948428        25.8080 
 551   0.0000       0.950693        25.8697 
 552   0.0000       0.952608        25.9218 
 553   0.0000       0.954503        25.9733 
 554   0.0000       0.956545        26.0289 
 555   0.0000       0.959063        26.0974 
 556   0.0000       0.960490        26.1363 
 557   0.0000       0.961431        26.1619 
 558   0.0000       0.965305        26.2673 
 559   0.0000       0.968251        26.3475 
 560   0.0000       0.972061        26.4511 
 561   0.0000       0.973403        26.4876 
 562   0.0000       0.977465        26.5982 
 563   0.0000       0.979521        26.6541 
 564   0.0000       0.981805        26.7163 
 565   0.0000       0.983352        26.7584 
 566   0.0000       0.984290        26.7839 
 567   0.0000       0.987744        26.8779 
 568   0.0000       0.988614        26.9015 
 569   0.0000       0.990489        26.9526 
 570   0.0000       0.993556        27.0360 
 571   0.0000       0.995454        27.0877 
 572   0.0000       0.998323        27.1657 
 573   0.0000       1.003821        27.3154 
 574   0.0000       1.004920        27.3453 
 575   0.0000       1.008662        27.4471 
 576   0.0000       1.009236        27.4627 
 577   0.0000       1.014657        27.6102 
 578   0.0000       1.015283        27.6273 
 579   0.0000       1.020557        27.7708 
 580   0.0000       1.023731        27.8571 
 581   0.0000       1.026246        27.9256 
 582   0.0000       1.027827        27.9686 
 583   0.0000       1.029825        28.0230 
 584   0.0000       1.034223        28.1426 
 585   0.0000       1.037158        28.2225 
 586   0.0000       1.039838        28.2954 
 587   0.0000       1.040647        28.3175 
 588   0.0000       1.050774        28.5930 
 589   0.0000       1.052450        28.6386 
 590   0.0000       1.053178        28.6584 
 591   0.0000       1.055769        28.7289 
 592   0.0000       1.059402        28.8278 
 593   0.0000       1.063137        28.9294 
 594   0.0000       1.066722        29.0270 
[...]
   Size of expansion space: 15
   Lowest Energy          :     0.098659972013
   Maximum Energy change  :     0.000240428249 (vector 2)
   Maximum residual norm  :     0.000035810106

                       ****Iteration   12****
   Time for densities:     1.032
   Using LibInt in JK Direct
   Time for J+K (Direct):   914.629
   Time for Sigma-Completion:     5.510
   Size of expansion space: 18
   Lowest Energy          :     0.098659971406
   Maximum Energy change  :     0.000114850149 (vector 2)
   Maximum residual norm  :     0.000013261622

                       ****Iteration   13****
   Time for densities:     1.033
   Using LibInt in JK Direct
   Time for J+K (Direct):   902.249
   Time for Sigma-Completion:     5.500
   Size of expansion space: 21
   Lowest Energy          :     0.098659971310
   Maximum Energy change  :     0.000060001014 (vector 2)
   Maximum residual norm  :     0.000016124000

                       ****Iteration   14****
   Time for densities:     1.027
   Using LibInt in JK Direct
   Time for J+K (Direct):   912.020
   Time for Sigma-Completion:     5.489
   Size of expansion space: 24
   Lowest Energy          :     0.098659971296
   Maximum Energy change  :     0.000044898911 (vector 2)
   Maximum residual norm  :     0.000004785596

                       ****Iteration   15****
   Time for densities:     1.025
   Using LibInt in JK Direct
   Time for J+K (Direct):   896.891
   Time for Sigma-Completion:     5.412
   Size of expansion space: 27
   Lowest Energy          :     0.098659971294
   Maximum Energy change  :     0.000020553306 (vector 2)
   Maximum residual norm  :     0.000002547311

                       ****Iteration   16****
   Time for densities:     1.011
   Using LibInt in JK Direct
   Time for J+K (Direct):   852.987
   Time for Sigma-Completion:     5.407
   Size of expansion space: 30
   Lowest Energy          :     0.098659971294
   Maximum Energy change  :     0.000006081629 (vector 2)
   Maximum residual norm  :     0.000001029564
   Rebuilding the expansion space

                       ****Iteration   17****
   Time for densities:     2.017
   Using LibInt in JK Direct
   Time for J+K (Direct):  2289.561
   Time for Sigma-Completion:    29.407
   Size of expansion space: 6
   Lowest Energy          :     0.098659971293
   Maximum Energy change  :     0.000002145388 (vector 2)
   Maximum residual norm  :     0.000000482666

                       ****Iteration   18****
   Time for densities:     1.072
   Using LibInt in JK Direct
   Time for J+K (Direct):  1239.858
   Time for Sigma-Completion:    19.913
   Size of expansion space: 9
   Lowest Energy          :     0.098659971293
   Maximum Energy change  :     0.000001815737 (vector 2)
   Maximum residual norm  :     0.000000228448

      *** CONVERGENCE OF RESIDUAL NORM REACHED ***

Storing the converged CI vectors               ... Y16.cis1

                 *** DAVIDSON DONE ***

Total time for solving the CIS problem: 22342.479sec

-----------------------------
CIS-EXCITED STATES (SINGLETS)
-----------------------------

the weight of the individual excitations are printed if larger than 1.0e-02

STATE  1:  E=   0.098660 au      2.685 eV    21653.4 cm**-1
   246a -> 251a  :     0.011269 (c=  0.10615615)
   246a -> 255a  :     0.013377 (c=  0.11565782)
   249a -> 252a  :     0.165458 (c= -0.40676564)
   249a -> 254a  :     0.010733 (c= -0.10360145)
   250a -> 251a  :     0.677799 (c=  0.82328566)
   250a -> 253a  :     0.024583 (c=  0.15678969)
   250a -> 255a  :     0.014680 (c= -0.12116005)

STATE  2:  E=   0.121444 au      3.305 eV    26653.9 cm**-1
   246a -> 252a  :     0.068652 (c= -0.26201450)
   249a -> 251a  :     0.356728 (c=  0.59726747)
   249a -> 255a  :     0.010465 (c=  0.10229788)
   250a -> 252a  :     0.408929 (c= -0.63947572)
   250a -> 254a  :     0.024553 (c= -0.15669387)
   250a -> 256a  :     0.011587 (c=  0.10764513)

STATE  3:  E=   0.157253 au      4.279 eV    34513.0 cm**-1
   239a -> 252a  :     0.027171 (c=  0.16483479)
   243a -> 251a  :     0.011289 (c=  0.10624916)
   245a -> 252a  :     0.021879 (c= -0.14791632)
   246a -> 251a  :     0.203687 (c= -0.45131653)
   246a -> 253a  :     0.018239 (c=  0.13505051)
   249a -> 252a  :     0.189051 (c=  0.43480026)
   249a -> 254a  :     0.022266 (c= -0.14921869)
   250a -> 251a  :     0.018646 (c=  0.13654900)
   250a -> 253a  :     0.181209 (c=  0.42568605)
   250a -> 254a  :     0.019221 (c=  0.13863924)
   250a -> 255a  :     0.120388 (c= -0.34696981)


----------------------
CIS-EXCITATION SPECTRA
----------------------

Center of mass = (-20.5966,  4.0172, -4.3898)
Calculating the Dipole integrals                  ... done
Transforming integrals                            ... done
Calculating the Linear Momentum integrals         ... done
Transforming integrals                            ... done
Calculating angular momentum integrals            ... done
Transforming integrals                            ... done

-----------------------------------------------------------------------------
         ABSORPTION SPECTRUM VIA TRANSITION ELECTRIC DIPOLE MOMENTS
-----------------------------------------------------------------------------
State   Energy    Wavelength  fosc         T2        TX        TY        TZ  
        (cm-1)      (nm)                 (au**2)    (au)      (au)      (au) 
-----------------------------------------------------------------------------
   1   21653.4    461.8   2.806608163  42.67093   5.56985  -1.75189  -2.92891
   2   26653.9    375.2   0.765055757   9.44947  -0.36860  -2.61922   1.56630
   3   34513.0    289.7   0.051864869   0.49473  -0.10095   0.23546  -0.65505

-----------------------------------------------------------------------------
         ABSORPTION SPECTRUM VIA TRANSITION VELOCITY DIPOLE MOMENTS
-----------------------------------------------------------------------------
State   Energy    Wavelength   fosc        P2         PX        PY        PZ  
        (cm-1)      (nm)                 (au**2)     (au)      (au)      (au) 
-----------------------------------------------------------------------------
   1   21653.4    461.8   1.605573927   0.23761  -0.41650   0.12032   0.22284
   2   26653.9    375.2   0.178446292   0.03251   0.02707   0.16785  -0.06000
   3   34513.0    289.7   0.039702992   0.00937   0.08506  -0.04606  -0.00299

-------------------------------------------------------------------
                             CD SPECTRUM
-------------------------------------------------------------------
State  Energy     Wavelength     R         MX        MY        MZ   
       (cm-1)       (nm)     (1e40*cgs)   (au)      (au)      (au)  
-------------------------------------------------------------------
   1   21653.4    461.8    203.51258   0.86873   0.56445   1.16704
   2   26653.9    375.2    -398.56582  -0.05130   0.12346  -0.34536
   3   34513.0    289.7     65.24847  -0.23091  -0.32445  -0.29232

Total run time:    22430.251 sec

           *** ORCA-CIS/TD-DFT FINISHED WITHOUT ERROR ***

-----------------------
CIS/TD-DFT TOTAL ENERGY
-----------------------

    E(SCF)  =  -4292.437987136 Eh
    DE(CIS) =      0.098659971 Eh (Root  1)
    ----------------------------- ---------
    E(tot)  =  -4292.339327165 Eh


-------------------------   --------------------
FINAL SINGLE POINT ENERGY     -4292.339327164507
-------------------------   --------------------

------------------------------------------------------------------------------
                         ORCA SCF GRADIENT CALCULATION
------------------------------------------------------------------------------


------------
CIS GRADIENT
------------

Reference wavefunction             ... RHF
State of interest                  ... 1
Basis dimension                    ... 1157
DFT-XC contribution needed         ... NO
RI-approximation                   ... OFF
CIS-vectors being read from        ... Y16.cis

 => Number of Vectors found: 3
 => Orbital Window: 85...250 -> 251...1156

Reading the CIS file                     ... done
Norm of the CI vector                    ... 1.000000000
Making the CIS (pseudo)densities         ... done
Making operators G(D) and Q(T)           ... done
Transforming the Fock operators          ... done
Making the frozen-core relaxed density   ... done
Constructing the G(H) operator           ... done
Transforming the G(H) operator           ... done
Calculating the CIS Lagrangian           ... done
Solving the Z-vector equations           ... done
Finalizing the relaxed density           ... done
Storing the relaxed density              ... done
Constructing the G(Z) operator           ... done
Transforming the G(Z) operator           ... done
Making the W-matrix                      ... done
Finalizing the W-matrix                  ... done
Transforming the W-matrix                ... done
Nuclear repulsion gradient               ... done
One-Electron gradient                    ... done
Prescreening matrices                    ... done
Two-Electron gradient (4-center)         ... done
                 ---------------------------
                 EXCITED STATE GRADIENT DONE
                 ---------------------------


------------------
CARTESIAN GRADIENT
------------------

   1   C   :    0.034082901   -0.016219402   -0.019171231
   2   O   :   -0.042146193    0.018292311    0.024309975
   3   C   :   -0.009292072   -0.001276156    0.005385274
   4   C   :    0.000178947    0.002528263   -0.000278065
   5   C   :   -0.001415771    0.002946765    0.001187172
   6   C   :    0.003623581   -0.001115784   -0.002264103
   7   C   :    0.002098339    0.000298584   -0.001250652
   8   C   :    0.001660392   -0.017271026   -0.000122227
   9   C   :   -0.002578520    0.015239822    0.000852344
  10   C   :    0.008668547   -0.014231940   -0.005158641
  11   C   :    0.016564250    0.070595033   -0.014058600
  12   N   :   -0.018470564   -0.066524849    0.015075082
  13   C   :   -0.063866960   -0.000520325    0.038724791
  14   N   :    0.060095473    0.002474442   -0.036201249
  15   C   :    0.000734484   -0.003054896   -0.000625605
  16   C   :   -0.004309180    0.008506931    0.000486832
  17   C   :    0.004501146   -0.002256413   -0.003820955
  18   S   :   -0.000550030    0.009845067   -0.001694221
  19   C   :    0.003553675    0.009311454   -0.005579700
  20   C   :   -0.002954121   -0.008735779    0.003191706
  21   C   :    0.009862257   -0.007776252   -0.003593301
  22   C   :   -0.006664478    0.007018396   -0.002436673
  23   C   :    0.002103197    0.001694200    0.003910933
  24   S   :    0.000133783   -0.004072302    0.000373921
  25   C   :    0.011550818   -0.006654634   -0.005221893
  26   C   :    0.002573487    0.002390820   -0.000529437
  27   N   :   -0.003734170    0.006268170   -0.001126095
  28   C   :    0.006733628    0.001375764    0.006595029
  29   C   :   -0.005401934   -0.004197684   -0.001423836
  30   C   :    0.003805821   -0.000784253    0.001166970
  31   C   :   -0.018267370   -0.009647078    0.014545598
  32   C   :    0.017315936    0.028214447   -0.013779871
  33   N   :    0.034830550   -0.027291264   -0.013407730
  34   N   :   -0.005413857   -0.026168052    0.009045278
  35   C   :   -0.000658568    0.002704027   -0.005672552
  36   C   :    0.001779664    0.001300129    0.002717029
  37   N   :   -0.041889789    0.000814229    0.020772320
  38   C   :   -0.002293929    0.035230952   -0.005145981
  39   C   :    0.011351452   -0.021181099   -0.003665081
  40   C   :   -0.003195217    0.000601571    0.000573143
  41   N   :    0.003773181    0.002262471   -0.001932325
  42   C   :   -0.006093747    0.003059542   -0.007689204
  43   C   :    0.003446034   -0.005293103    0.003757835
  44   C   :    0.001781681    0.003198614   -0.000620574
  45   C   :   -0.011885114    0.002095476    0.005880466
  46   S   :   -0.002881326   -0.003402612    0.000807493
  47   C   :   -0.000122215   -0.008781985    0.002578432
  48   C   :   -0.001326260    0.012698178    0.000158883
  49   S   :    0.005403185    0.002228592   -0.005212682
  50   C   :   -0.004648210    0.000978914    0.004518331
  51   C   :   -0.011276024    0.001353426    0.005801462
  52   C   :    0.004440327    0.003035171   -0.009423697
  53   C   :    0.003932178    0.000842006    0.004231932
  54   C   :   -0.001500269   -0.001800874    0.002846923
  55   C   :   -0.000783309   -0.000966477   -0.004558356
  56   C   :   -0.000101610    0.000758913    0.017073001
  57   C   :   -0.005659272    0.004662490   -0.017215254
  58   C   :    0.052438042   -0.050897861    0.017305731
  59   N   :   -0.049613140    0.047905226   -0.015059883
  60   C   :   -0.028199979    0.029087391    0.062129127
  61   N   :    0.028796841   -0.028326058   -0.057577554
  62   C   :    0.003011095   -0.000857274   -0.017367228
  63   C   :   -0.002353055    0.001446193   -0.000158339
  64   C   :   -0.002651696    0.002944714   -0.002442709
  65   C   :    0.001122320   -0.000877436    0.003535566
  66   C   :   -0.000288221    0.000940966    0.002634142
  67   C   :    0.007701705   -0.006903990    0.000677693
  68   C   :   -0.024355018    0.021597559   -0.021054513
  69   O   :    0.027448781   -0.030306909    0.026455986
  70   H   :   -0.005894663    0.004206766    0.003654910
  71   H   :    0.001274438    0.007918784   -0.001347945
  72   H   :    0.006221089    0.003276929   -0.003967463
  73   H   :    0.005955709   -0.006361137   -0.003228483
  74   H   :    0.005192647   -0.010308837   -0.001583666
  75   H   :   -0.001615752   -0.004698965    0.005683800
  76   H   :    0.008740098    0.001280958   -0.001881574
  77   H   :   -0.006504269   -0.001505883    0.000041729
  78   H   :    0.003715244   -0.005786081   -0.001735351
  79   H   :    0.001758452    0.005174267   -0.005036118
  80   H   :   -0.008860211    0.003018292    0.002749089
  81   H   :    0.000285551   -0.002929572   -0.007478675
  82   H   :   -0.001549782    0.005071208   -0.003743540
  83   H   :    0.007965619   -0.003681902   -0.002629076
  84   H   :   -0.000596140    0.002447928    0.007577023
  85   H   :   -0.005308464    0.000272186    0.006282472
  86   H   :    0.006806866   -0.004028321    0.002622030
  87   H   :   -0.005272779    0.004059545   -0.002267020
  88   H   :   -0.002817352   -0.006205277    0.001292866
  89   H   :    0.005034480    0.000048246   -0.005254129
  90   H   :    0.008628989   -0.002652455   -0.002391061
  91   H   :   -0.000642980    0.001119923    0.007575096
  92   H   :    0.004270614    0.005212174    0.001594212
  93   H   :   -0.008675090    0.002333577    0.003117017
  94   H   :    0.001002465   -0.001914671   -0.007962195
  95   H   :   -0.002614053    0.007183378    0.008262485
  96   H   :    0.002750009   -0.006554127    0.002990555
  97   H   :   -0.001946745    0.007218108   -0.002566465
  98   H   :   -0.005563950   -0.003050764    0.002937648
  99   H   :    0.001929294   -0.003575264   -0.005279222
 100   H   :   -0.000216277    0.005562823   -0.007465941
 101   H   :   -0.002970368    0.003702233   -0.007521664
 102   H   :   -0.005725284    0.005367208    0.001624621
 103   H   :   -0.003010399    0.002072628    0.007176159
 104   H   :    0.003996487   -0.004647359    0.005391495

Difference to translation invariance:
           :    0.0000000003   -0.0000000001    0.0000000000

Norm of the cartesian gradient     ...    0.2572784586
RMS gradient                       ...    0.0145655245
MAX gradient                       ...    0.0705950331

-------
TIMINGS
-------

Total CIS gradient time            ...    18115.716 sec

Fock matrix formation       ....    1282.830 sec  (  7.1%)
  Coulomb formation         ....    1282.830 sec  (100.0% of F)
Z-vector equation           ....   15264.137 sec  ( 84.3%)
One electron gradient       ....      12.135 sec  (  0.1%)
Prescreening matrices       ....       1.050 sec  (  0.0%)
Two electron gradient       ....    1553.010 sec  (  8.6%)

                            ***************************************
                            *     ORCA property calculations      *
                            ***************************************

                                    ---------------------
                                    Active property flags
                                    ---------------------
   (+) Dipole Moment


------------------------------------------------------------------------------
                       ORCA ELECTRIC PROPERTIES CALCULATION
------------------------------------------------------------------------------

Dipole Moment Calculation                       ... on
Quadrupole Moment Calculation                   ... off
Polarizability Calculation                      ... off
GBWName                                         ... Y16.gbw
Electron density file                           ... Y16.scfp
The origin for moment calculation is the CENTER OF MASS  = (-20.596573,  4.017155 -4.389786)

-------------
DIPOLE MOMENT
-------------
                                X             Y             Z
Electronic contribution:      6.44214       9.20462      -2.28478
Nuclear contribution   :     -7.02668      -8.52039       4.93897
                        -----------------------------------------
Total Dipole Moment    :     -0.58454       0.68423       2.65419
                        -----------------------------------------
Magnitude (a.u.)       :      2.80260
Magnitude (Debye)      :      7.12364



--------------------
Rotational spectrum 
--------------------
 
Rotational constants in cm-1:     0.001769     0.000307     0.000269 
Rotational constants in MHz :    53.020371     9.211679     8.078137 

 Dipole components along the rotational axes: 
x,y,z [a.u.] :    -1.918586    -0.323114     2.017222 
x,y,z [Debye]:    -4.876658    -0.821290     5.127371 

 

                        *** CIS RELAXED DENSITY ***

------------------------------------------------------------------------------
                       ORCA ELECTRIC PROPERTIES CALCULATION
------------------------------------------------------------------------------

Dipole Moment Calculation                       ... on
Quadrupole Moment Calculation                   ... off
Polarizability Calculation                      ... off
GBWName                                         ... Y16.gbw
Electron density file                           ... Y16.cisp
The origin for moment calculation is the CENTER OF MASS  = (-20.596573,  4.017155 -4.389786)

-------------
DIPOLE MOMENT
-------------
                                X             Y             Z
Electronic contribution:      6.52237       8.35559      -1.96477
Nuclear contribution   :     -7.02668      -8.52039       4.93897
                        -----------------------------------------
Total Dipole Moment    :     -0.50432      -0.16481       2.97419
                        -----------------------------------------
Magnitude (a.u.)       :      3.02115
Magnitude (Debye)      :      7.67914



--------------------
Rotational spectrum 
--------------------
 
Rotational constants in cm-1:     0.001769     0.000307     0.000269 
Rotational constants in MHz :    53.020371     9.211679     8.078137 

 Dipole components along the rotational axes: 
x,y,z [a.u.] :    -1.764734    -1.213700     2.130720 
x,y,z [Debye]:    -4.485598    -3.084980     5.415860 

 

Timings for individual modules:

Sum of individual times         ...    45182.784 sec (= 753.046 min)
GTO integral calculation        ...        3.736 sec (=   0.062 min)   0.0 %
SCF iterations                  ...     4630.768 sec (=  77.179 min)  10.2 %
CIS module                      ...    22430.829 sec (= 373.847 min)  49.6 %
SCF Gradient evaluation         ...    18117.451 sec (= 301.958 min)  40.1 %
                             ****ORCA TERMINATED NORMALLY****
TOTAL RUN TIME: 0 days 12 hours 33 minutes 4 seconds 684 msec
