
                                 *****************
                                 * O   R   C   A *
                                 *****************

           --- An Ab Initio, DFT and Semiempirical electronic structure package ---

                  #######################################################
                  #                        -***-                        #
                  #          Department of theory and spectroscopy      #
                  #               Directorship: Frank Neese             #
                  #        Max Planck Institute fuer Kohlenforschung    #
                  #                Kaiser Wilhelm Platz 1               #
                  #                 D-45470 Muelheim/Ruhr               #
                  #                      Germany                        #
                  #                                                     #
                  #                  All rights reserved                #
                  #                        -***-                        #
                  #######################################################


                         Program Version 4.2.0 -  RELEASE  -


 With contributions from (in alphabetic order):
   Daniel Aravena         : Magnetic Suceptibility
   Michael Atanasov       : Ab Initio Ligand Field Theory (pilot matlab implementation)
   Alexander A. Auer      : GIAO ZORA, VPT2
   Ute Becker             : Parallelization
   Giovanni Bistoni       : ED, misc. LED, open-shell LED, HFLED
   Martin Brehm           : Molecular dynamics
   Dmytro Bykov           : SCF Hessian
   Vijay G. Chilkuri      : MRCI spin determinant printing, contributions to CSF-ICE
   Dipayan Datta          : RHF DLPNO-CCSD density
   Achintya Kumar Dutta   : EOM-CC, STEOM-CC
   Dmitry Ganyushin       : Spin-Orbit,Spin-Spin,Magnetic field MRCI
   Miquel Garcia          : C-PCM Hessian, Gaussian charge scheme
   Yang Guo               : DLPNO-NEVPT2, CIM, IAO-localization
   Andreas Hansen         : Spin unrestricted coupled pair/coupled cluster methods
   Benjamin Helmich-Paris : CASSCF linear response (MC-RPA)
   Lee Huntington         : MR-EOM, pCC
   Robert Izsak           : Overlap fitted RIJCOSX, COSX-SCS-MP3, EOM
   Christian Kollmar      : KDIIS, OOCD, Brueckner-CCSD(T), CCSD density
   Simone Kossmann        : Meta GGA functionals, TD-DFT gradient, OOMP2, MP2 Hessian
   Martin Krupicka        : AUTO-CI
   Lucas Lang             : DCDCAS
   Dagmar Lenk            : GEPOL surface, SMD
   Dimitrios Liakos       : Extrapolation schemes; Compound Job, initial MDCI parallelization
   Dimitrios Manganas     : Further ROCIS development; embedding schemes
   Dimitrios Pantazis     : SARC Basis sets
   Taras Petrenko         : DFT Hessian,TD-DFT gradient, ASA, ECA, R-Raman, ABS, FL, XAS/XES, NRVS
   Peter Pinski           : DLPNO-MP2, DLPNO-MP2 Gradient
   Christoph Reimann      : Effective Core Potentials
   Marius Retegan         : Local ZFS, SOC
   Christoph Riplinger    : Optimizer, TS searches, QM/MM, DLPNO-CCSD(T), (RO)-DLPNO pert. Triples
   Tobias Risthaus        : Range-separated hybrids, TD-DFT gradient, RPA, STAB
   Michael Roemelt        : Original ROCIS implementation
   Masaaki Saitow         : Open-shell DLPNO-CCSD energy and density
   Barbara Sandhoefer     : DKH picture change effects
   Avijit Sen             : IP-ROCIS
   Kantharuban Sivalingam : CASSCF convergence, NEVPT2, FIC-MRCI
   Bernardo de Souza      : ESD, SOC TD-DFT
   Georgi Stoychev        : AutoAux, RI-MP2 NMR
   Willem Van den Heuvel  : Paramagnetic NMR
   Boris Wezisla          : Elementary symmetry handling
   Frank Wennmohs         : Technical directorship


 We gratefully acknowledge several colleagues who have allowed us to
 interface, adapt or use parts of their codes:
   Stefan Grimme, W. Hujo, H. Kruse,             : VdW corrections, initial TS optimization,
                  C. Bannwarth                     DFT functionals, gCP, sTDA/sTD-DF
   Ed Valeev, F. Pavosevic, A. Kumar             : LibInt (2-el integral package), F12 methods
   Garnet Chan, S. Sharma, J. Yang, R. Olivares  : DMRG
   Ulf Ekstrom                                   : XCFun DFT Library
   Mihaly Kallay                                 : mrcc  (arbitrary order and MRCC methods)
   Andreas Klamt, Michael Diedenhofen            : otool_cosmo (COSMO solvation model)
   Jiri Pittner, Ondrej Demel                    : Mk-CCSD
   Frank Weinhold                                : gennbo (NPA and NBO analysis)
   Christopher J. Cramer and Donald G. Truhlar   : smd solvation model
   Lars Goerigk                                  : TD-DFT with DH, B97 family of functionals
   V. Asgeirsson, H. Jonsson                     : NEB implementation
   FAccTs GmbH                                   : IRC, NEB, NEB-TS, Multilevel, MM, QM/MM, CI optimization
   S Lehtola, MJT Oliveira, MAL Marques          : LibXC Library


 Your calculation uses the libint2 library for the computation of 2-el integrals
 For citations please refer to: http://libint.valeyev.net

 Your ORCA version has been built with support for libXC version: 4.2.3
 For citations please refer to: https://tddft.org/programs/libxc/

 This ORCA versions uses:
   CBLAS   interface :  Fast vector & matrix operations
   LAPACKE interface :  Fast linear algebra routines
   SCALAPACK package :  Parallel linear algebra routines


----- Orbital basis set information -----
Your calculation utilizes the basis: def2-SVP
   F. Weigend and R. Ahlrichs, Phys. Chem. Chem. Phys. 7, 3297 (2005).

================================================================================
                                        WARNINGS
                       Please study these warnings very carefully!
================================================================================

INFO   : Checking CIS options ...

WARNING: CIS/ROCIS methods need fully converged wavefunctions
  ===> : Setting SCFConvForced true
         You can overwrite this default with %scf ConvForced false 


INFO   : the flag for use of LIBINT has been found!

================================================================================
                                       INPUT FILE
================================================================================
NAME = Y2.inp
|  1> # ORCA input file
|  2> # Y2.out
|  3> ! Engrad Keepdens
|  4> %maxcore 1000
|  5> %tddft
|  6>   nroots 3 
|  7>   # nroots is the number of states to be computed
|  8>   Iroot 1
|  9>   end
| 10> * xyz 0 1
| 11>    C        4.48978         1.94151        -0.72963
| 12>    O        5.42205         2.62976        -1.07605
| 13>    C        3.06089         2.28321        -0.67749
| 14>    C        2.27182         3.34007        -0.99445
| 15>    S        0.61747         2.99500        -0.64613
| 16>    C        0.99212         1.41719        -0.05621
| 17>    C        2.32774         1.17535        -0.13773
| 18>    C        3.25754         0.11769         0.21433
| 19>    C        2.96746        -0.90630         1.08128
| 20>    C        1.65805        -1.11452         1.55719
| 21>    N        0.59053        -1.30372         1.93416
| 22>    C        3.92564        -1.76931         1.64160
| 23>    N        4.68217        -2.46816         2.14916
| 24>    C        4.55050         0.51233        -0.30160
| 25>    C        5.70758        -0.18270        -0.50877
| 26>    C        5.90786        -1.57483        -0.57834
| 27>    S        7.54361        -2.19985        -0.41220
| 28>    C        6.99016        -3.81111        -0.65983
| 29>    C        5.60365        -3.83893        -0.90029
| 30>    C        5.00220        -2.58958        -0.84450
| 31>    S        4.97882        -5.44590        -1.17726
| 32>    C        6.57533        -6.07516        -0.94480
| 33>    C        7.54027        -5.09438        -0.68535
| 34>    N        8.75788        -5.68086        -0.47960
| 35>    C        9.85090        -4.85763        -0.01737
| 36>    C       10.50215        -4.08025        -1.16170
| 37>    C        8.60574        -7.05272        -0.61170
| 38>    C        7.22603        -7.31034        -0.88640
| 39>    C        6.72608        -8.62435        -0.98067
| 40>    N        5.50803        -9.11465        -1.21624
| 41>    N        5.66792       -10.41210        -1.13494
| 42>    C        4.56892       -11.31838        -1.30395
| 43>    C        3.62931       -11.25160        -0.10455
| 44>    N        6.87694       -10.83803        -0.86644
| 45>    C        7.59723        -9.71960        -0.75974
| 46>    C        8.96875        -9.48139        -0.53981
| 47>    C        9.50337        -8.15305        -0.51997
| 48>    N       10.87955        -8.25699        -0.40571
| 49>    C       11.94877        -7.29353        -0.53033
| 50>    C       12.59477        -6.97590         0.81864
| 51>    C       11.20320        -9.58310        -0.32042
| 52>    C       10.04180       -10.36283        -0.39144
| 53>    S       10.33785       -12.06859        -0.31718
| 54>    C       12.05341       -11.73221        -0.20803
| 55>    C       12.36263       -10.35541        -0.22676
| 56>    S       14.06133       -10.07172        -0.13746
| 57>    C       14.36180       -11.80450        -0.06438
| 58>    C       13.17108       -12.53574        -0.11286
| 59>    C       15.61191       -12.42655         0.02896
| 60>    C       16.87705       -11.89252         0.07214
| 61>    C       18.10217       -12.66637         0.16299
| 62>    C       18.25960       -14.02602         0.25232
| 63>    C       19.54223       -14.60579         0.33538
| 64>    N       20.57948       -15.09277         0.40179
| 65>    C       17.22976       -14.98506         0.27728
| 66>    N       16.44091       -15.82030         0.30291
| 67>    C       19.20069       -11.71835         0.14935
| 68>    C       20.56028       -11.73828         0.19244
| 69>    S       21.20100       -10.13704         0.12997
| 70>    C       19.62925        -9.43048         0.04427
| 71>    C       18.67078       -10.39032         0.06417
| 72>    C       17.20642       -10.45924         0.01957
| 73>    O       16.42847        -9.52280        -0.04726
| 74>    H        2.54814         4.29094        -1.40371
| 75>    H        0.20295         0.78362         0.29614
| 76>    H        6.57591         0.43497        -0.71893
| 77>    H        3.95883        -2.41648        -1.03533
| 78>    H       10.56996        -5.47272         0.51450
| 79>    H        9.43692        -4.13952         0.69900
| 80>    H       11.38266        -3.55846        -0.79778
| 81>    H        9.80722        -3.34502        -1.55851
| 82>    H       10.79385        -4.73845        -1.97769
| 83>    H        4.99731       -12.31585        -1.41368
| 84>    H        4.03363       -11.03893        -2.21508
| 85>    H        4.15168       -11.54494         0.80278
| 86>    H        2.78790       -11.92134        -0.25653
| 87>    H        3.25686       -10.23745         0.01573
| 88>    H       11.57624        -6.40060        -1.02344
| 89>    H       12.71158        -7.73693        -1.17949
| 90>    H       11.85188        -6.70526         1.56642
| 91>    H       13.29809        -6.15605         0.70467
| 92>    H       13.13908        -7.84186         1.18465
| 93>    H       13.15345       -13.61009        -0.08042
| 94>    H       15.54313       -13.50735         0.06785
| 95>    H       21.23168       -12.57087         0.25564
| 96>    H       19.51990        -8.36621        -0.01419
| 97> *
| 98> 
| 99>                          ****END OF INPUT****
================================================================================

                     *******************************
                     * Energy+Gradient Calculation *
                     *******************************

---------------------------------
CARTESIAN COORDINATES (ANGSTROEM)
---------------------------------
  C      4.489780    1.941510   -0.729630
  O      5.422050    2.629760   -1.076050
  C      3.060890    2.283210   -0.677490
  C      2.271820    3.340070   -0.994450
  S      0.617470    2.995000   -0.646130
  C      0.992120    1.417190   -0.056210
  C      2.327740    1.175350   -0.137730
  C      3.257540    0.117690    0.214330
  C      2.967460   -0.906300    1.081280
  C      1.658050   -1.114520    1.557190
  N      0.590530   -1.303720    1.934160
  C      3.925640   -1.769310    1.641600
  N      4.682170   -2.468160    2.149160
  C      4.550500    0.512330   -0.301600
  C      5.707580   -0.182700   -0.508770
  C      5.907860   -1.574830   -0.578340
  S      7.543610   -2.199850   -0.412200
  C      6.990160   -3.811110   -0.659830
  C      5.603650   -3.838930   -0.900290
  C      5.002200   -2.589580   -0.844500
  S      4.978820   -5.445900   -1.177260
  C      6.575330   -6.075160   -0.944800
  C      7.540270   -5.094380   -0.685350
  N      8.757880   -5.680860   -0.479600
  C      9.850900   -4.857630   -0.017370
  C     10.502150   -4.080250   -1.161700
  C      8.605740   -7.052720   -0.611700
  C      7.226030   -7.310340   -0.886400
  C      6.726080   -8.624350   -0.980670
  N      5.508030   -9.114650   -1.216240
  N      5.667920  -10.412100   -1.134940
  C      4.568920  -11.318380   -1.303950
  C      3.629310  -11.251600   -0.104550
  N      6.876940  -10.838030   -0.866440
  C      7.597230   -9.719600   -0.759740
  C      8.968750   -9.481390   -0.539810
  C      9.503370   -8.153050   -0.519970
  N     10.879550   -8.256990   -0.405710
  C     11.948770   -7.293530   -0.530330
  C     12.594770   -6.975900    0.818640
  C     11.203200   -9.583100   -0.320420
  C     10.041800  -10.362830   -0.391440
  S     10.337850  -12.068590   -0.317180
  C     12.053410  -11.732210   -0.208030
  C     12.362630  -10.355410   -0.226760
  S     14.061330  -10.071720   -0.137460
  C     14.361800  -11.804500   -0.064380
  C     13.171080  -12.535740   -0.112860
  C     15.611910  -12.426550    0.028960
  C     16.877050  -11.892520    0.072140
  C     18.102170  -12.666370    0.162990
  C     18.259600  -14.026020    0.252320
  C     19.542230  -14.605790    0.335380
  N     20.579480  -15.092770    0.401790
  C     17.229760  -14.985060    0.277280
  N     16.440910  -15.820300    0.302910
  C     19.200690  -11.718350    0.149350
  C     20.560280  -11.738280    0.192440
  S     21.201000  -10.137040    0.129970
  C     19.629250   -9.430480    0.044270
  C     18.670780  -10.390320    0.064170
  C     17.206420  -10.459240    0.019570
  O     16.428470   -9.522800   -0.047260
  H      2.548140    4.290940   -1.403710
  H      0.202950    0.783620    0.296140
  H      6.575910    0.434970   -0.718930
  H      3.958830   -2.416480   -1.035330
  H     10.569960   -5.472720    0.514500
  H      9.436920   -4.139520    0.699000
  H     11.382660   -3.558460   -0.797780
  H      9.807220   -3.345020   -1.558510
  H     10.793850   -4.738450   -1.977690
  H      4.997310  -12.315850   -1.413680
  H      4.033630  -11.038930   -2.215080
  H      4.151680  -11.544940    0.802780
  H      2.787900  -11.921340   -0.256530
  H      3.256860  -10.237450    0.015730
  H     11.576240   -6.400600   -1.023440
  H     12.711580   -7.736930   -1.179490
  H     11.851880   -6.705260    1.566420
  H     13.298090   -6.156050    0.704670
  H     13.139080   -7.841860    1.184650
  H     13.153450  -13.610090   -0.080420
  H     15.543130  -13.507350    0.067850
  H     21.231680  -12.570870    0.255640
  H     19.519900   -8.366210   -0.014190

----------------------------
CARTESIAN COORDINATES (A.U.)
----------------------------
  NO LB      ZA    FRAG     MASS         X           Y           Z
   0 C     6.0000    0    12.011    8.484455    3.668922   -1.378801
   1 O     8.0000    0    15.999   10.246190    4.969526   -2.033440
   2 C     6.0000    0    12.011    5.784244    4.314642   -1.280271
   3 C     6.0000    0    12.011    4.293118    6.311818   -1.879238
   4 S    16.0000    0    32.060    1.166849    5.659730   -1.221009
   5 C     6.0000    0    12.011    1.874835    2.678101   -0.106222
   6 C     6.0000    0    12.011    4.398791    2.221090   -0.260272
   7 C     6.0000    0    12.011    6.155858    0.222402    0.405025
   8 C     6.0000    0    12.011    5.607687   -1.712659    2.043323
   9 C     6.0000    0    12.011    3.133260   -2.106138    2.942663
  10 N     7.0000    0    14.007    1.115940   -2.463674    3.655033
  11 C     6.0000    0    12.011    7.418385   -3.343511    3.102174
  12 N     7.0000    0    14.007    8.848019   -4.664146    4.061324
  13 C     6.0000    0    12.011    8.599199    0.968163   -0.569941
  14 C     6.0000    0    12.011   10.785763   -0.345253   -0.961436
  15 C     6.0000    0    12.011   11.164237   -2.975997   -1.092904
  16 S    16.0000    0    32.060   14.255357   -4.157114   -0.778945
  17 C     6.0000    0    12.011   13.209488   -7.201954   -1.246898
  18 C     6.0000    0    12.011   10.589364   -7.254526   -1.701302
  19 C     6.0000    0    12.011    9.452788   -4.893597   -1.595874
  20 S    16.0000    0    32.060    9.408606  -10.291260   -2.224699
  21 C     6.0000    0    12.011   12.425573  -11.480389   -1.785413
  22 C     6.0000    0    12.011   14.249045   -9.626983   -1.295124
  23 N     7.0000    0    14.007   16.549995  -10.735270   -0.906313
  24 C     6.0000    0    12.011   18.615503   -9.179590   -0.032825
  25 C     6.0000    0    12.011   19.846187   -7.710555   -2.195295
  26 C     6.0000    0    12.011   16.262492  -13.327709   -1.155945
  27 C     6.0000    0    12.011   13.655218  -13.814541   -1.675053
  28 C     6.0000    0    12.011   12.710449  -16.297660   -1.853198
  29 N     7.0000    0    14.007   10.408668  -17.224192   -2.298361
  30 N     7.0000    0    14.007   10.710817  -19.676017   -2.144726
  31 C     6.0000    0    12.011    8.634008  -21.388638   -2.464108
  32 C     6.0000    0    12.011    6.858402  -21.262443   -0.197571
  33 N     7.0000    0    14.007   12.995533  -20.480909   -1.637334
  34 C     6.0000    0    12.011   14.356684  -18.367382   -1.435701
  35 C     6.0000    0    12.011   16.948481  -17.917230   -1.020093
  36 C     6.0000    0    12.011   17.958767  -15.407032   -0.982601
  37 N     7.0000    0    14.007   20.559370  -15.603450   -0.766681
  38 C     6.0000    0    12.011   22.579903  -13.782774   -1.002178
  39 C     6.0000    0    12.011   23.800666  -13.182541    1.547005
  40 C     6.0000    0    12.011   21.170980  -18.109435   -0.605506
  41 C     6.0000    0    12.011   18.976252  -19.582911   -0.739714
  42 S    16.0000    0    32.060   19.535705  -22.806330   -0.599383
  43 C     6.0000    0    12.011   22.777644  -22.170664   -0.393120
  44 C     6.0000    0    12.011   23.361985  -19.568889   -0.428514
  45 S    16.0000    0    32.060   26.572063  -19.032792   -0.259762
  46 C     6.0000    0    12.011   27.139869  -22.307272   -0.121661
  47 C     6.0000    0    12.011   24.889734  -23.689115   -0.213274
  48 C     6.0000    0    12.011   29.502234  -23.482776    0.054726
  49 C     6.0000    0    12.011   31.893002  -22.473606    0.136325
  50 C     6.0000    0    12.011   34.208144  -23.935970    0.308006
  51 C     6.0000    0    12.011   34.505643  -26.505337    0.476816
  52 C     6.0000    0    12.011   36.929463  -27.600943    0.633776
  53 N     7.0000    0    14.007   38.889581  -28.521202    0.759273
  54 C     6.0000    0    12.011   32.559528  -28.317660    0.523983
  55 N     7.0000    0    14.007   31.068817  -29.896034    0.572417
  56 C     6.0000    0    12.011   36.284046  -22.144472    0.282231
  57 C     6.0000    0    12.011   38.853298  -22.182134    0.363659
  58 S    16.0000    0    32.060   40.064084  -19.156229    0.245608
  59 C     6.0000    0    12.011   37.093907  -17.821025    0.083658
  60 C     6.0000    0    12.011   35.282661  -19.634859    0.121264
  61 C     6.0000    0    12.011   32.515422  -19.765099    0.036982
  62 O     8.0000    0    15.999   31.045309  -17.995484   -0.089308
  63 H     1.0000    0     1.008    4.815287    8.108701   -2.652627
  64 H     1.0000    0     1.008    0.383520    1.480827    0.559623
  65 H     1.0000    0     1.008   12.426669    0.821974   -1.358581
  66 H     1.0000    0     1.008    7.481105   -4.566485   -1.956490
  67 H     1.0000    0     1.008   19.974330  -10.341942    0.972264
  68 H     1.0000    0     1.008   17.833194   -7.822559    1.320919
  69 H     1.0000    0     1.008   21.510110   -6.724515   -1.507586
  70 H     1.0000    0     1.008   18.532960   -6.321172   -2.945157
  71 H     1.0000    0     1.008   20.397420   -8.954373   -3.737292
  72 H     1.0000    0     1.008    9.443547  -23.273584   -2.671468
  73 H     1.0000    0     1.008    7.622456  -20.860555   -4.185895
  74 H     1.0000    0     1.008    7.845538  -21.816775    1.517034
  75 H     1.0000    0     1.008    5.268367  -22.528068   -0.484771
  76 H     1.0000    0     1.008    6.154573  -19.345977    0.029725
  77 H     1.0000    0     1.008   21.875923  -12.095381   -1.934021
  78 H     1.0000    0     1.008   24.021405  -14.620679   -2.228913
  79 H     1.0000    0     1.008   22.396807  -12.671105    2.960105
  80 H     1.0000    0     1.008   25.129748  -11.633249    1.331633
  81 H     1.0000    0     1.008   24.829263  -14.818968    2.238664
  82 H     1.0000    0     1.008   24.856418  -25.719343   -0.151972
  83 H     1.0000    0     1.008   29.372259  -25.525192    0.128218
  84 H     1.0000    0     1.008   40.122061  -23.755502    0.483090
  85 H     1.0000    0     1.008   36.887265  -15.809846   -0.026815

--------------------------------
INTERNAL COORDINATES (ANGSTROEM)
--------------------------------
 C      0   0   0     0.000000000000     0.00000000     0.00000000
 O      1   0   0     1.209471881360     0.00000000     0.00000000
 C      1   2   0     1.470103432314   128.83583536     0.00000000
 C      3   1   2     1.356483750769   137.57829357     2.83254578
 S      4   3   1     1.725477919244   110.77765283   179.76973794
 C      5   4   3     1.725645567607    92.50489449     0.42507014
 C      6   5   4     1.359784130074   110.81611418   359.56423077
 C      7   6   5     1.451591870741   138.09059114   177.39601440
 C      8   7   6     1.372699613535   124.14884630   343.67864429
 C      9   8   7     1.408687490042   121.33615557     9.23958133
 N     10   9   8     1.147824887036   178.88496834   114.74234946
 C      9   8   7     1.406006285512   124.44081501   193.75825579
 N     12   9   8     1.148192543522   177.17387282   135.72863360
 C      8   7   6     1.446951988181   106.68842569   174.48062302
 C     14   8   7     1.365584210585   132.25406515   195.35488797
 C     15  14   8     1.408182516650   129.13611834    16.89529893
 S     16  15  14     1.758957237257   118.61241426   196.69196958
 C     17  16  15     1.721565074866    91.14711712   182.20274281
 C     18  17  16     1.407481773985   111.08571431     1.76520137
 C     16  15  14     1.385921622495   129.82053868    21.02017834
 S     19  18  17     1.746275319272   113.43833324   179.38574781
 C     21  19  18     1.731718793367    89.03879400     0.82757106
 C     18  17  16     1.396443402147   137.39701308   181.86849005
 N     23  18  17     1.367064725973   137.93259388     3.06952019
 C     24  23  18     1.444318845062   118.53397643     5.28194446
 C     25  24  23     1.529031515633   111.87591449   279.13076564
 C     24  23  18     1.386577386661   108.20311943   177.39543966
 C     22  21  19     1.397315527145   139.12503001   176.20329658
 C     28  22  21     1.409063204934   131.01918744   358.15755474
 N     29  28  22     1.333991423286   132.72938960     3.77456568
 N     30  29  28     1.309790443010   103.98432049   182.09875406
 C     31  30  29     1.434471616485   121.66800411   178.78895140
 C     32  31  30     1.525085860042   110.59099450   288.62143940
 N     31  30  29     1.309670941611   116.58799732     0.04388051
 C     34  31  30     1.334574178905   104.00936381   359.88593026
 C     35  34  31     1.409319097792   132.79414224   183.07220839
 C     27  24  23     1.422982824457   133.60577921   179.41455628
 N     37  27  24     1.384821383284   133.64825506   351.86807890
 C     38  37  27     1.444651073581   132.71336365   349.39671703
 C     39  38  37     1.529027428727   112.03241645   109.07548551
 C     38  37  27     1.367695667428   108.24506497   178.38516136
 C     36  35  34     1.396562362732   131.12030160     1.78294883
 S     42  36  35     1.732852367543   139.20956348   356.70949397
 C     43  42  36     1.751631051477    88.90913426   177.13162622
 C     41  38  37     1.396249568165   137.47638752   177.98413138
 S     45  41  38     1.724539415641   136.92237624     1.33216199
 C     46  45  41     1.760156082767    90.47872726   180.10040000
 C     44  43  42     1.379820284928   133.29828093   180.45942428
 C     47  46  45     1.399440448965   126.35921400   180.04711719
 C     49  47  46     1.373911122635   130.68456187   359.22834450
 C     50  49  47     1.451901015703   124.87567318   180.37731599
 C     51  50  49     1.371645791121   128.99495407   358.40192216
 C     52  51  50     1.410025508067   121.05241678   180.10140104
 N     53  52  51     1.147801102543   179.17331905   186.47755208
 C     52  51  50     1.407462663377   126.34256108   359.89176849
 N     55  52  51     1.149159291395   176.31653707   180.22329328
 C     51  50  49     1.451094125272   106.85708340   178.65189973
 C     57  51  50     1.360418656554   138.30523276   180.57758532
 S     58  57  51     1.725802467521   110.87277053   179.93516524
 C     59  58  57     1.725389691084    92.49594572   359.97487617
 C     60  59  58     1.356596320392   110.67963672     0.00000000
 C     61  60  59     1.466659243315   137.57999020   180.14385168
 O     62  61  60     1.219258924511   127.05827175   359.46599506
 H      4   3   1     1.071447734096   129.09972406   359.62952960
 H      6   5   4     1.071611289741   119.54446325   180.18173947
 H     15  14   8     1.086130951313   114.66535655   192.02787104
 H     20  16  15     1.074709568116   123.40717643   359.42794213
 H     25  24  23     1.085480855934   109.58131326   154.44730124
 H     25  24  23     1.095558026487   107.27202379    37.98871958
 H     26  25  24     1.086278247320   109.79958500   186.08530887
 H     26  25  24     1.086714789584   110.17453006    66.76219138
 H     26  25  24     1.088189234508   111.58320415   306.96796672
 H     32  31  30     1.091102683481   106.77522903   167.55394451
 H     32  31  30     1.093062470081   108.17242114    49.18934406
 H     33  32  31     1.087274804914   110.39411984   298.48746030
 H     33  32  31     1.086103299001   109.89198969   178.45168696
 H     33  32  31     1.087054048058   109.81357651    58.57599118
 H     39  38  37     1.085937409753   109.49073120   344.18107091
 H     39  38  37     1.095395527515   107.25172122   227.68983771
 H     40  39  38     1.088258466588   111.68292086   308.58793725
 H     40  39  38     1.086187003144   109.74252971   187.53077565
 H     40  39  38     1.086334855282   110.08071155    68.53088733
 H     48  44  43     1.074984229187   124.80584966   359.45824592
 H     49  47  46     1.083684345416   112.89312956   179.52136671
 H     58  57  51     1.071437496124   129.75495779   359.96037800
 H     60  59  58     1.071468910888   120.16120085   180.00995472

---------------------------
INTERNAL COORDINATES (A.U.)
---------------------------
 C      0   0   0     0.000000000000     0.00000000     0.00000000
 O      1   0   0     2.285570622449     0.00000000     0.00000000
 C      1   2   0     2.778092875610   128.83583536     0.00000000
 C      3   1   2     2.563382794067   137.57829357     2.83254578
 S      4   3   1     3.260680717500   110.77765283   179.76973794
 C      5   4   3     3.260997526991    92.50489449     0.42507014
 C      6   5   4     2.569619607091   110.81611418   359.56423077
 C      7   6   5     2.743111093926   138.09059114   177.39601440
 C      8   7   6     2.594026333721   124.14884630   343.67864429
 C      9   8   7     2.662033564460   121.33615557     9.23958133
 N     10   9   8     2.169074686198   178.88496834   114.74234946
 C      9   8   7     2.656966822190   124.44081501   193.75825579
 N     12   9   8     2.169769456267   177.17387282   135.72863360
 C      8   7   6     2.734342986594   106.68842569   174.48062302
 C     14   8   7     2.580580170813   132.25406515   195.35488797
 C     15  14   8     2.661079303045   129.13611834    16.89529893
 S     16  15  14     3.323947459695   118.61241426   196.69196958
 C     17  16  15     3.253286513221    91.14711712   182.20274281
 C     18  17  16     2.659755091317   111.08571431     1.76520137
 C     16  15  14     2.619012309596   129.82053868    21.02017834
 S     19  18  17     3.299982107851   113.43833324   179.38574781
 C     21  19  18     3.272474260428    89.03879400     0.82757106
 C     18  17  16     2.638895591579   137.39701308   181.86849005
 N     23  18  17     2.583377939433   137.93259388     3.06952019
 C     24  23  18     2.729367067228   118.53397643     5.28194446
 C     25  24  23     2.889450814682   111.87591449   279.13076564
 C     24  23  18     2.620251524278   108.20311943   177.39543966
 C     22  21  19     2.640543668980   139.12503001   176.20329658
 C     28  22  21     2.662743562711   131.01918744   358.15755474
 N     29  28  22     2.520878455010   132.72938960     3.77456568
 N     30  29  28     2.475145230116   103.98432049   182.09875406
 C     31  30  29     2.710758502039   121.66800411   178.78895140
 C     32  31  30     2.881994606195   110.59099450   288.62143940
 N     31  30  29     2.474919405199   116.58799732     0.04388051
 C     34  31  30     2.521979703533   104.00936381   359.88593026
 C     35  34  31     2.663227130131   132.79414224   183.07220839
 C     27  24  23     2.689047831498   133.60577921   179.41455628
 N     37  27  24     2.616933158804   133.64825506   351.86807890
 C     38  37  27     2.729994888144   132.71336365   349.39671703
 C     39  38  37     2.889443091548   112.03241645   109.07548551
 C     38  37  27     2.584570245989   108.24506497   178.38516136
 C     36  35  34     2.639120394506   131.12030160     1.78294883
 S     42  36  35     3.274616405174   139.20956348   356.70949397
 C     43  42  36     3.310102974965    88.90913426   177.13162622
 C     41  38  37     2.638529298437   137.47638752   177.98413138
 S     45  41  38     3.258907202714   136.92237624     1.33216199
 C     46  45  41     3.326212949384    90.47872726   180.10040000
 C     44  43  42     2.607482452544   133.29828093   180.45942428
 C     47  46  45     2.644559189276   126.35921400   180.04711719
 C     49  47  46     2.596315754128   130.68456187   359.22834450
 C     50  49  47     2.743695293241   124.87567318   180.37731599
 C     51  50  49     2.592034897964   128.99495407   358.40192216
 C     52  51  50     2.664562052090   121.05241678   180.10140104
 N     53  52  51     2.169029740020   179.17331905   186.47755208
 C     52  51  50     2.659718977502   126.34256108   359.89176849
 N     55  52  51     2.171596344988   176.31653707   180.22329328
 C     51  50  49     2.742170491307   106.85708340   178.65189973
 C     57  51  50     2.570818688364   138.30523276   180.57758532
 S     58  57  51     3.261294024859   110.87277053   179.93516524
 C     59  58  57     3.260513990440    92.49594572   359.97487617
 C     60  59  58     2.563595519825   110.67963672     0.00000000
 C     61  60  59     2.771584301649   137.57999020   180.14385168
 O     62  61  60     2.304065453665   127.05827175   359.46599506
 H      4   3   1     2.024742784252   129.09972406   359.62952960
 H      6   5   4     2.025051859628   119.54446325   180.18173947
 H     15  14   8     2.052490043557   114.66535655   192.02787104
 H     20  16  15     2.030906757244   123.40717643   359.42794213
 H     25  24  23     2.051261541330   109.58131326   154.44730124
 H     25  24  23     2.070304633880   107.27202379    37.98871958
 H     26  25  24     2.052768392670   109.79958500   186.08530887
 H     26  25  24     2.053593337995   110.17453006    66.76219138
 H     26  25  24     2.056379635102   111.58320415   306.96796672
 H     32  31  30     2.061885255766   106.77522903   167.55394451
 H     32  31  30     2.065588715721   108.17242114    49.18934406
 H     33  32  31     2.054651613599   110.39411984   298.48746030
 H     33  32  31     2.052437788260   109.89198969   178.45168696
 H     33  32  31     2.054234443601   109.81357651    58.57599118
 H     39  38  37     2.052124303012   109.49073120   344.18107091
 H     39  38  37     2.069997555326   107.25172122   227.68983771
 H     40  39  38     2.056510464772   111.68292086   308.58793725
 H     40  39  38     2.052595966168   109.74252971   187.53077565
 H     40  39  38     2.052875366215   110.08071155    68.53088733
 H     48  44  43     2.031425791447   124.80584966   359.45824592
 H     49  47  46     2.047866628454   112.89312956   179.52136671
 H     58  57  51     2.024723437288   129.75495779   359.96037800
 H     60  59  58     2.024782802590   120.16120085   180.00995472

---------------------
BASIS SET INFORMATION
---------------------
There are 5 groups of distinct atoms

 Group   1 Type C   : 7s4p1d contracted to 3s2p1d pattern {511/31/1}
 Group   2 Type O   : 7s4p1d contracted to 3s2p1d pattern {511/31/1}
 Group   3 Type S   : 10s7p1d contracted to 4s3p1d pattern {5311/511/1}
 Group   4 Type N   : 7s4p1d contracted to 3s2p1d pattern {511/31/1}
 Group   5 Type H   : 4s1p contracted to 2s1p pattern {31/1}

Atom   0C    basis set group =>   1
Atom   1O    basis set group =>   2
Atom   2C    basis set group =>   1
Atom   3C    basis set group =>   1
Atom   4S    basis set group =>   3
Atom   5C    basis set group =>   1
Atom   6C    basis set group =>   1
Atom   7C    basis set group =>   1
Atom   8C    basis set group =>   1
Atom   9C    basis set group =>   1
Atom  10N    basis set group =>   4
Atom  11C    basis set group =>   1
Atom  12N    basis set group =>   4
Atom  13C    basis set group =>   1
Atom  14C    basis set group =>   1
Atom  15C    basis set group =>   1
Atom  16S    basis set group =>   3
Atom  17C    basis set group =>   1
Atom  18C    basis set group =>   1
Atom  19C    basis set group =>   1
Atom  20S    basis set group =>   3
Atom  21C    basis set group =>   1
Atom  22C    basis set group =>   1
Atom  23N    basis set group =>   4
Atom  24C    basis set group =>   1
Atom  25C    basis set group =>   1
Atom  26C    basis set group =>   1
Atom  27C    basis set group =>   1
Atom  28C    basis set group =>   1
Atom  29N    basis set group =>   4
Atom  30N    basis set group =>   4
Atom  31C    basis set group =>   1
Atom  32C    basis set group =>   1
Atom  33N    basis set group =>   4
Atom  34C    basis set group =>   1
Atom  35C    basis set group =>   1
Atom  36C    basis set group =>   1
Atom  37N    basis set group =>   4
Atom  38C    basis set group =>   1
Atom  39C    basis set group =>   1
Atom  40C    basis set group =>   1
Atom  41C    basis set group =>   1
Atom  42S    basis set group =>   3
Atom  43C    basis set group =>   1
Atom  44C    basis set group =>   1
Atom  45S    basis set group =>   3
Atom  46C    basis set group =>   1
Atom  47C    basis set group =>   1
Atom  48C    basis set group =>   1
Atom  49C    basis set group =>   1
Atom  50C    basis set group =>   1
Atom  51C    basis set group =>   1
Atom  52C    basis set group =>   1
Atom  53N    basis set group =>   4
Atom  54C    basis set group =>   1
Atom  55N    basis set group =>   4
Atom  56C    basis set group =>   1
Atom  57C    basis set group =>   1
Atom  58S    basis set group =>   3
Atom  59C    basis set group =>   1
Atom  60C    basis set group =>   1
Atom  61C    basis set group =>   1
Atom  62O    basis set group =>   2
Atom  63H    basis set group =>   5
Atom  64H    basis set group =>   5
Atom  65H    basis set group =>   5
Atom  66H    basis set group =>   5
Atom  67H    basis set group =>   5
Atom  68H    basis set group =>   5
Atom  69H    basis set group =>   5
Atom  70H    basis set group =>   5
Atom  71H    basis set group =>   5
Atom  72H    basis set group =>   5
Atom  73H    basis set group =>   5
Atom  74H    basis set group =>   5
Atom  75H    basis set group =>   5
Atom  76H    basis set group =>   5
Atom  77H    basis set group =>   5
Atom  78H    basis set group =>   5
Atom  79H    basis set group =>   5
Atom  80H    basis set group =>   5
Atom  81H    basis set group =>   5
Atom  82H    basis set group =>   5
Atom  83H    basis set group =>   5
Atom  84H    basis set group =>   5
Atom  85H    basis set group =>   5
------------------------------------------------------------------------------
                           ORCA GTO INTEGRAL CALCULATION
------------------------------------------------------------------------------

                         BASIS SET STATISTICS AND STARTUP INFO

 # of primitive gaussian shells          ...  907
 # of primitive gaussian functions       ... 1745
 # of contracted shells                  ...  459
 # of contracted basis functions         ... 1021
 Highest angular momentum                ...    2
 Maximum contraction depth               ...    5
 Integral package used                   ... LIBINT
 Integral threshhold            Thresh   ...  2.500e-11
 Primitive cut-off              TCut     ...  2.500e-12


------------------------------ INTEGRAL EVALUATION ----------------------------


 * One electron integrals 
 Pre-screening matrix                    ... done
 Shell pair data                         ... done (   0.014 sec)

-------------------------------------------------------------------------------
                                 ORCA SCF
-------------------------------------------------------------------------------

------------
SCF SETTINGS
------------
Hamiltonian:
 Ab initio Hamiltonian  Method          .... Hartree-Fock(GTOs)


General Settings:
 Integral files         IntName         .... Y2
 Hartree-Fock type      HFTyp           .... RHF
 Total Charge           Charge          ....    0
 Multiplicity           Mult            ....    1
 Number of Electrons    NEL             ....  474
 Basis Dimension        Dim             .... 1021
 Nuclear Repulsion      ENuc            ....   9260.5282471130 Eh

Convergence Acceleration:
 DIIS                   CNVDIIS         .... on
   Start iteration      DIISMaxIt       ....    12
   Startup error        DIISStart       ....  0.200000
   # of expansion vecs  DIISMaxEq       ....     5
   Bias factor          DIISBfac        ....   1.050
   Max. coefficient     DIISMaxC        ....  10.000
 Newton-Raphson         CNVNR           .... off
 SOSCF                  CNVSOSCF        .... on
   Start iteration      SOSCFMaxIt      ....   150
   Startup grad/error   SOSCFStart      ....  0.003300
 Level Shifting         CNVShift        .... on
   Level shift para.    LevelShift      ....    0.2500
   Turn off err/grad.   ShiftErr        ....    0.0010
 Zerner damping         CNVZerner       .... off
 Static damping         CNVDamp         .... on
   Fraction old density DampFac         ....    0.7000
   Max. Damping (<1)    DampMax         ....    0.9800
   Min. Damping (>=0)   DampMin         ....    0.0000
   Turn off err/grad.   DampErr         ....    0.1000
 Fernandez-Rico         CNVRico         .... off

SCF Procedure:
 Maximum # iterations   MaxIter         ....   125
 SCF integral mode      SCFMode         .... Direct
   Integral package                     .... LIBINT
 Reset frequency        DirectResetFreq ....    20
 Integral Threshold     Thresh          ....  2.500e-11 Eh
 Primitive CutOff       TCut            ....  2.500e-12 Eh

Convergence Tolerance:
 Convergence Check Mode ConvCheckMode   .... Total+1el-Energy
 Convergence forced     ConvForced      .... 1
 Energy Change          TolE            ....  1.000e-08 Eh
 1-El. energy change                    ....  1.000e-05 Eh
 Orbital Gradient       TolG            ....  1.000e-05
 Orbital Rotation angle TolX            ....  1.000e-05
 DIIS Error             TolErr          ....  5.000e-07


Diagonalization of the overlap matrix:
Smallest eigenvalue                        ... 8.717e-05
Time for diagonalization                   ...    0.292 sec
Threshold for overlap eigenvalues          ... 1.000e-08
Number of eigenvalues below threshold      ... 0
Time for construction of square roots      ...    0.107 sec
Total time needed                          ...    0.403 sec

-------------------
DFT GRID GENERATION
-------------------

General Integration Accuracy     IntAcc      ...  4.340
Radial Grid Type                 RadialGrid  ... Gauss-Chebyshev
Angular Grid (max. acc.)         AngularGrid ... Lebedev-110
Angular grid pruning method      GridPruning ... 3 (G Style)
Weight generation scheme         WeightScheme... Becke
Basis function cutoff            BFCut       ...    1.0000e-11
Integration weight cutoff        WCut        ...    1.0000e-14
Grids for H and He will be reduced by one unit

# of grid points (after initial pruning)     ... 124024 (   0.2 sec)
# of grid points (after weights+screening)   ... 109280 (   4.1 sec)
nearest neighbour list constructed           ...    0.0 sec
Grid point re-assignment to atoms done       ...    0.0 sec
Grid point division into batches done        ...    0.1 sec
Reduced shell lists constructed in    1.7 sec

Total number of grid points                  ...   109280
Total number of batches                      ...     1750
Average number of points per batch           ...       62
Average number of grid points per atom       ...     1271
Average number of shells per batch           ...   101.49 (22.11%)
Average number of basis functions per batch  ...   214.50 (21.01%)
Average number of large shells per batch     ...    62.43 (61.51%)
Average number of large basis fcns per batch ...   133.83 (62.39%)
Maximum spatial batch extension              ...  20.26, 19.20, 25.60 au
Average spatial batch extension              ...   3.09,  3.08,  4.01 au

Time for grid setup =    6.077 sec

------------------------------
INITIAL GUESS: MODEL POTENTIAL
------------------------------
Loading Hartree-Fock densities                     ... done
Calculating cut-offs                               ... done
Setting up the integral package                    ... done
Initializing the effective Hamiltonian             ... done
Starting the Coulomb interaction                   ... done (   6.3 sec)
Reading the grid                                   ... done
Mapping shells                                     ... done
Starting the XC term evaluation                    ... done (   1.7 sec)
Transforming the Hamiltonian                       ... done (   0.1 sec)
Diagonalizing the Hamiltonian                      ... done (   0.2 sec)
Back transforming the eigenvectors                 ... done (   0.0 sec)
Now organizing SCF variables                       ... done
                      ------------------
                      INITIAL GUESS DONE (  14.7 sec)
                      ------------------
--------------
SCF ITERATIONS
--------------
ITER       Energy         Delta-E        Max-DP      RMS-DP      [F,P]     Damp
               ***  Starting incremental Fock matrix formation  ***
  0  -4775.4789114421   0.000000000000 0.10510394  0.00160024  0.2455858 0.7000
  1  -4776.1565568881  -0.677645446045 0.07793759  0.00122314  0.1509038 0.7000
                               ***Turning on DIIS***
  2  -4776.5670100599  -0.410453171715 0.18682144  0.00284330  0.0875453 0.0000
  3  -4774.1742430103   2.392767049538 0.06681916  0.00060698  0.0501696 0.0000
  4  -4777.7094287603  -3.535185749974 0.01596956  0.00024755  0.0128849 0.0000
  5  -4777.5970370748   0.112391685532 0.00753637  0.00011892  0.0087112 0.0000
  6  -4777.3834214264   0.213615648354 0.00585522  0.00007692  0.0027609 0.0000
  7  -4777.4683492487  -0.084927822285 0.00433799  0.00004628  0.0020951 0.0000
                      *** Initiating the SOSCF procedure ***
                           *** Shutting down DIIS ***
                      *** Re-Reading the Fockian *** 
                      *** Removing any level shift *** 
ITER      Energy       Delta-E        Grad      Rot      Max-DP    RMS-DP
  8  -4777.45108086   0.0172683895  0.002719  0.002719  0.002956  0.000032
               *** Restarting incremental Fock matrix formation ***
  9  -4777.46015136  -0.0090705011  0.001372  0.005856  0.001517  0.000018
 10  -4777.46022187  -0.0000705134  0.000500  0.005906  0.001809  0.000024
 11  -4777.46024932  -0.0000274470  0.000182  0.000489  0.000490  0.000006
 12  -4777.46025373  -0.0000044110  0.000098  0.000526  0.000173  0.000002
 13  -4777.46025459  -0.0000008604  0.000022  0.000099  0.000092  0.000001
 14  -4777.46025473  -0.0000001400  0.000015  0.000102  0.000054  0.000001
 15  -4777.46025478  -0.0000000455  0.000010  0.000097  0.000036  0.000000
 16  -4777.46025481  -0.0000000301  0.000005  0.000060  0.000028  0.000000
                  ***Gradient check signals convergence***
              ***Rediagonalizing the Fockian in SOSCF/NRSCF***

               *****************************************************
               *                     SUCCESS                       *
               *           SCF CONVERGED AFTER  17 CYCLES          *
               *****************************************************


----------------
TOTAL SCF ENERGY
----------------

Total Energy       :        -4777.46025481 Eh         -130001.30267 eV

Components:
Nuclear Repulsion  :         9260.52824711 Eh          251991.78462 eV
Electronic Energy  :       -14037.98850193 Eh         -381993.08729 eV
One Electron Energy:       -24999.53935619 Eh         -680272.05024 eV
Two Electron Energy:        10961.55085427 Eh          298278.96295 eV

Virial components:
Potential Energy   :        -9545.74262838 Eh         -259752.86250 eV
Kinetic Energy     :         4768.28237357 Eh          129751.55983 eV
Virial Ratio       :            2.00192478


---------------
SCF CONVERGENCE
---------------

  Last Energy change         ...   -4.2983e-09  Tolerance :   1.0000e-08
  Last MAX-Density change    ...    1.2594e-05  Tolerance :   1.0000e-07
  Last RMS-Density change    ...    1.2532e-07  Tolerance :   5.0000e-09
  Last Orbital Gradient      ...    1.7920e-06  Tolerance :   1.0000e-05
  Last Orbital Rotation      ...    2.2696e-05  Tolerance :   1.0000e-05

             **** THE GBW FILE WAS UPDATED (Y2.gbw) ****
             **** DENSITY FILE WAS UPDATED (Y2.scfp) ****
             **** ENERGY FILE WAS UPDATED (Y2.en.tmp) ****
             **** THE GBW FILE WAS UPDATED (Y2.gbw) ****
             **** DENSITY FILE WAS UPDATED (Y2.scfp) ****
----------------
ORBITAL ENERGIES
----------------

  NO   OCC          E(Eh)            E(eV) 
   0   2.0000     -91.990195     -2503.1805 
   1   2.0000     -91.989329     -2503.1569 
   2   2.0000     -91.985634     -2503.0563 
   3   2.0000     -91.976496     -2502.8077 
   4   2.0000     -91.971634     -2502.6754 
   5   2.0000     -91.969731     -2502.6236 
   6   2.0000     -20.563801      -559.5695 
   7   2.0000     -20.558914      -559.4365 
   8   2.0000     -15.699489      -427.2048 
   9   2.0000     -15.647478      -425.7895 
  10   2.0000     -15.646386      -425.7598 
  11   2.0000     -15.615235      -424.9122 
  12   2.0000     -15.614106      -424.8814 
  13   2.0000     -15.586561      -424.1319 
  14   2.0000     -15.586442      -424.1286 
  15   2.0000     -15.586307      -424.1250 
  16   2.0000     -15.580148      -423.9574 
  17   2.0000     -11.365645      -309.2749 
  18   2.0000     -11.361138      -309.1523 
  19   2.0000     -11.339500      -308.5635 
  20   2.0000     -11.336340      -308.4775 
  21   2.0000     -11.325172      -308.1736 
  22   2.0000     -11.323362      -308.1243 
  23   2.0000     -11.319067      -308.0075 
  24   2.0000     -11.318881      -308.0024 
  25   2.0000     -11.315918      -307.9218 
  26   2.0000     -11.313045      -307.8436 
  27   2.0000     -11.310725      -307.7805 
  28   2.0000     -11.309385      -307.7440 
  29   2.0000     -11.309244      -307.7402 
  30   2.0000     -11.308848      -307.7294 
  31   2.0000     -11.308836      -307.7291 
  32   2.0000     -11.308441      -307.7183 
  33   2.0000     -11.308102      -307.7091 
  34   2.0000     -11.305815      -307.6469 
  35   2.0000     -11.303504      -307.5840 
  36   2.0000     -11.300048      -307.4899 
  37   2.0000     -11.299432      -307.4732 
  38   2.0000     -11.298080      -307.4364 
  39   2.0000     -11.297751      -307.4274 
  40   2.0000     -11.297399      -307.4179 
  41   2.0000     -11.296648      -307.3974 
  42   2.0000     -11.296592      -307.3959 
  43   2.0000     -11.295027      -307.3533 
  44   2.0000     -11.293308      -307.3065 
  45   2.0000     -11.292204      -307.2765 
  46   2.0000     -11.291374      -307.2539 
  47   2.0000     -11.289451      -307.2016 
  48   2.0000     -11.287034      -307.1358 
  49   2.0000     -11.285208      -307.0861 
  50   2.0000     -11.283861      -307.0495 
  51   2.0000     -11.281345      -306.9810 
  52   2.0000     -11.277844      -306.8857 
  53   2.0000     -11.276484      -306.8487 
  54   2.0000     -11.274478      -306.7942 
  55   2.0000     -11.270912      -306.6971 
  56   2.0000     -11.270909      -306.6970 
  57   2.0000     -11.270070      -306.6742 
  58   2.0000     -11.269697      -306.6640 
  59   2.0000     -11.268764      -306.6387 
  60   2.0000     -11.257404      -306.3295 
  61   2.0000     -11.252168      -306.1871 
  62   2.0000     -11.237876      -305.7982 
  63   2.0000      -9.026441      -245.6219 
  64   2.0000      -9.025613      -245.5994 
  65   2.0000      -9.020610      -245.4633 
  66   2.0000      -9.009873      -245.1711 
  67   2.0000      -9.006320      -245.0744 
  68   2.0000      -9.004413      -245.0225 
  69   2.0000      -6.713768      -182.6909 
  70   2.0000      -6.712946      -182.6686 
  71   2.0000      -6.712584      -182.6587 
  72   2.0000      -6.711755      -182.6361 
  73   2.0000      -6.711052      -182.6170 
  74   2.0000      -6.710221      -182.5944 
  75   2.0000      -6.708199      -182.5394 
  76   2.0000      -6.707188      -182.5119 
  77   2.0000      -6.705146      -182.4563 
  78   2.0000      -6.697007      -182.2348 
  79   2.0000      -6.695684      -182.1988 
  80   2.0000      -6.693880      -182.1497 
  81   2.0000      -6.693665      -182.1439 
  82   2.0000      -6.693054      -182.1272 
  83   2.0000      -6.691983      -182.0981 
  84   2.0000      -6.691158      -182.0757 
  85   2.0000      -6.690686      -182.0628 
  86   2.0000      -6.688773      -182.0108 
  87   2.0000      -1.468287       -39.9541 
  88   2.0000      -1.397849       -38.0374 
  89   2.0000      -1.392016       -37.8787 
  90   2.0000      -1.351153       -36.7667 
  91   2.0000      -1.336868       -36.3780 
  92   2.0000      -1.250481       -34.0273 
  93   2.0000      -1.247651       -33.9503 
  94   2.0000      -1.231154       -33.5014 
  95   2.0000      -1.229729       -33.4626 
  96   2.0000      -1.229566       -33.4582 
  97   2.0000      -1.226009       -33.3614 
  98   2.0000      -1.221942       -33.2507 
  99   2.0000      -1.219684       -33.1893 
 100   2.0000      -1.203127       -32.7388 
 101   2.0000      -1.188723       -32.3468 
 102   2.0000      -1.172455       -31.9041 
 103   2.0000      -1.170630       -31.8545 
 104   2.0000      -1.152796       -31.3692 
 105   2.0000      -1.149935       -31.2913 
 106   2.0000      -1.127286       -30.6750 
 107   2.0000      -1.108329       -30.1592 
 108   2.0000      -1.095600       -29.8128 
 109   2.0000      -1.088460       -29.6185 
 110   2.0000      -1.069206       -29.0946 
 111   2.0000      -1.064269       -28.9602 
 112   2.0000      -1.060414       -28.8553 
 113   2.0000      -1.048783       -28.5388 
 114   2.0000      -1.046172       -28.4678 
 115   2.0000      -1.027022       -27.9467 
 116   2.0000      -1.026091       -27.9213 
 117   2.0000      -1.024750       -27.8849 
 118   2.0000      -1.009641       -27.4737 
 119   2.0000      -1.002017       -27.2663 
 120   2.0000      -0.978245       -26.6194 
 121   2.0000      -0.972001       -26.4495 
 122   2.0000      -0.965254       -26.2659 
 123   2.0000      -0.943536       -25.6749 
 124   2.0000      -0.927257       -25.2319 
 125   2.0000      -0.921593       -25.0778 
 126   2.0000      -0.913494       -24.8574 
 127   2.0000      -0.912860       -24.8402 
 128   2.0000      -0.903083       -24.5741 
 129   2.0000      -0.878963       -23.9178 
 130   2.0000      -0.868834       -23.6422 
 131   2.0000      -0.856764       -23.3137 
 132   2.0000      -0.839137       -22.8341 
 133   2.0000      -0.836374       -22.7589 
 134   2.0000      -0.823738       -22.4150 
 135   2.0000      -0.812354       -22.1053 
 136   2.0000      -0.806600       -21.9487 
 137   2.0000      -0.805001       -21.9052 
 138   2.0000      -0.801595       -21.8125 
 139   2.0000      -0.786664       -21.4062 
 140   2.0000      -0.781989       -21.2790 
 141   2.0000      -0.776372       -21.1262 
 142   2.0000      -0.769483       -20.9387 
 143   2.0000      -0.761835       -20.7306 
 144   2.0000      -0.759979       -20.6801 
 145   2.0000      -0.754368       -20.5274 
 146   2.0000      -0.744238       -20.2517 
 147   2.0000      -0.739994       -20.1363 
 148   2.0000      -0.729068       -19.8389 
 149   2.0000      -0.725428       -19.7399 
 150   2.0000      -0.718424       -19.5493 
 151   2.0000      -0.709479       -19.3059 
 152   2.0000      -0.707759       -19.2591 
 153   2.0000      -0.697760       -18.9870 
 154   2.0000      -0.684745       -18.6329 
 155   2.0000      -0.679814       -18.4987 
 156   2.0000      -0.676292       -18.4029 
 157   2.0000      -0.670714       -18.2511 
 158   2.0000      -0.661411       -17.9979 
 159   2.0000      -0.655565       -17.8388 
 160   2.0000      -0.652005       -17.7420 
 161   2.0000      -0.648435       -17.6448 
 162   2.0000      -0.646022       -17.5792 
 163   2.0000      -0.641941       -17.4681 
 164   2.0000      -0.639066       -17.3899 
 165   2.0000      -0.631663       -17.1884 
 166   2.0000      -0.628639       -17.1061 
 167   2.0000      -0.626383       -17.0448 
 168   2.0000      -0.624286       -16.9877 
 169   2.0000      -0.622323       -16.9343 
 170   2.0000      -0.617899       -16.8139 
 171   2.0000      -0.615439       -16.7469 
 172   2.0000      -0.611908       -16.6509 
 173   2.0000      -0.604357       -16.4454 
 174   2.0000      -0.597007       -16.2454 
 175   2.0000      -0.588017       -16.0008 
 176   2.0000      -0.587631       -15.9902 
 177   2.0000      -0.586781       -15.9671 
 178   2.0000      -0.585221       -15.9247 
 179   2.0000      -0.581212       -15.8156 
 180   2.0000      -0.578112       -15.7312 
 181   2.0000      -0.577693       -15.7198 
 182   2.0000      -0.573627       -15.6092 
 183   2.0000      -0.572298       -15.5730 
 184   2.0000      -0.570958       -15.5365 
 185   2.0000      -0.570001       -15.5105 
 186   2.0000      -0.569171       -15.4879 
 187   2.0000      -0.567934       -15.4543 
 188   2.0000      -0.566338       -15.4108 
 189   2.0000      -0.564020       -15.3478 
 190   2.0000      -0.562140       -15.2966 
 191   2.0000      -0.555711       -15.1217 
 192   2.0000      -0.554402       -15.0861 
 193   2.0000      -0.550946       -14.9920 
 194   2.0000      -0.549651       -14.9568 
 195   2.0000      -0.544706       -14.8222 
 196   2.0000      -0.542216       -14.7545 
 197   2.0000      -0.539599       -14.6832 
 198   2.0000      -0.538452       -14.6520 
 199   2.0000      -0.530917       -14.4470 
 200   2.0000      -0.524958       -14.2848 
 201   2.0000      -0.523359       -14.2413 
 202   2.0000      -0.521377       -14.1874 
 203   2.0000      -0.520516       -14.1640 
 204   2.0000      -0.512782       -13.9535 
 205   2.0000      -0.504675       -13.7329 
 206   2.0000      -0.501083       -13.6352 
 207   2.0000      -0.496722       -13.5165 
 208   2.0000      -0.494396       -13.4532 
 209   2.0000      -0.494074       -13.4444 
 210   2.0000      -0.492802       -13.4098 
 211   2.0000      -0.487425       -13.2635 
 212   2.0000      -0.485236       -13.2039 
 213   2.0000      -0.482118       -13.1191 
 214   2.0000      -0.480026       -13.0622 
 215   2.0000      -0.475058       -12.9270 
 216   2.0000      -0.472696       -12.8627 
 217   2.0000      -0.468379       -12.7453 
 218   2.0000      -0.467297       -12.7158 
 219   2.0000      -0.455849       -12.4043 
 220   2.0000      -0.446153       -12.1405 
 221   2.0000      -0.439340       -11.9551 
 222   2.0000      -0.429392       -11.6843 
 223   2.0000      -0.416721       -11.3396 
 224   2.0000      -0.412546       -11.2259 
 225   2.0000      -0.390704       -10.6316 
 226   2.0000      -0.384486       -10.4624 
 227   2.0000      -0.376483       -10.2446 
 228   2.0000      -0.375963       -10.2305 
 229   2.0000      -0.358766        -9.7625 
 230   2.0000      -0.354629        -9.6499 
 231   2.0000      -0.348974        -9.4961 
 232   2.0000      -0.337575        -9.1859 
 233   2.0000      -0.327802        -8.9199 
 234   2.0000      -0.303590        -8.2611 
 235   2.0000      -0.301011        -8.1909 
 236   2.0000      -0.250297        -6.8109 
 237   0.0000      -0.031265        -0.8508 
 238   0.0000      -0.015289        -0.4160 
 239   0.0000       0.034786         0.9466 
 240   0.0000       0.043983         1.1968 
 241   0.0000       0.056338         1.5330 
 242   0.0000       0.073853         2.0096 
 243   0.0000       0.092603         2.5199 
 244   0.0000       0.123115         3.3501 
 245   0.0000       0.131748         3.5851 
 246   0.0000       0.134442         3.6584 
 247   0.0000       0.149759         4.0751 
 248   0.0000       0.150303         4.0899 
 249   0.0000       0.156049         4.2463 
 250   0.0000       0.163408         4.4465 
 251   0.0000       0.167200         4.5497 
 252   0.0000       0.170834         4.6486 
 253   0.0000       0.174805         4.7567 
 254   0.0000       0.175331         4.7710 
 255   0.0000       0.175517         4.7760 
 256   0.0000       0.179499         4.8844 
 257   0.0000       0.179703         4.8900 
 258   0.0000       0.181966         4.9515 
 259   0.0000       0.192224         5.2307 
 260   0.0000       0.200765         5.4631 
 261   0.0000       0.202999         5.5239 
 262   0.0000       0.203109         5.5269 
 263   0.0000       0.204432         5.5629 
 264   0.0000       0.212115         5.7719 
 265   0.0000       0.213755         5.8166 
 266   0.0000       0.214126         5.8267 
 267   0.0000       0.215374         5.8606 
 268   0.0000       0.217265         5.9121 
 269   0.0000       0.220283         5.9942 
 270   0.0000       0.223999         6.0953 
 271   0.0000       0.224656         6.1132 
 272   0.0000       0.224855         6.1186 
 273   0.0000       0.227249         6.1838 
 274   0.0000       0.230735         6.2786 
 275   0.0000       0.232324         6.3219 
 276   0.0000       0.235007         6.3949 
 277   0.0000       0.239116         6.5067 
 278   0.0000       0.241840         6.5808 
 279   0.0000       0.244365         6.6495 
 280   0.0000       0.249405         6.7867 
 281   0.0000       0.252257         6.8643 
 282   0.0000       0.254904         6.9363 
 283   0.0000       0.256697         6.9851 
 284   0.0000       0.258153         7.0247 
 285   0.0000       0.260736         7.0950 
 286   0.0000       0.263153         7.1608 
 287   0.0000       0.265976         7.2376 
 288   0.0000       0.269597         7.3361 
 289   0.0000       0.275029         7.4839 
 290   0.0000       0.277291         7.5455 
 291   0.0000       0.280225         7.6253 
 292   0.0000       0.284879         7.7519 
 293   0.0000       0.289630         7.8812 
 294   0.0000       0.293351         7.9825 
 295   0.0000       0.294168         8.0047 
 296   0.0000       0.301423         8.2021 
 297   0.0000       0.304212         8.2780 
 298   0.0000       0.309381         8.4187 
 299   0.0000       0.314979         8.5710 
 300   0.0000       0.322896         8.7864 
 301   0.0000       0.324972         8.8429 
 302   0.0000       0.332574         9.0498 
 303   0.0000       0.334349         9.0981 
 304   0.0000       0.338720         9.2170 
 305   0.0000       0.343712         9.3529 
 306   0.0000       0.346309         9.4236 
 307   0.0000       0.353245         9.6123 
 308   0.0000       0.357144         9.7184 
 309   0.0000       0.361462         9.8359 
 310   0.0000       0.363637         9.8951 
 311   0.0000       0.365719         9.9517 
 312   0.0000       0.366205         9.9649 
 313   0.0000       0.366837         9.9822 
 314   0.0000       0.373286        10.1576 
 315   0.0000       0.377556        10.2738 
 316   0.0000       0.377914        10.2836 
 317   0.0000       0.382930        10.4200 
 318   0.0000       0.386367        10.5136 
 319   0.0000       0.389438        10.5971 
 320   0.0000       0.390954        10.6384 
 321   0.0000       0.399009        10.8576 
 322   0.0000       0.399408        10.8684 
 323   0.0000       0.403332        10.9752 
 324   0.0000       0.405801        11.0424 
 325   0.0000       0.409263        11.1366 
 326   0.0000       0.415367        11.3027 
 327   0.0000       0.421508        11.4698 
 328   0.0000       0.429342        11.6830 
 329   0.0000       0.432271        11.7627 
 330   0.0000       0.432637        11.7727 
 331   0.0000       0.438521        11.9328 
 332   0.0000       0.444876        12.1057 
 333   0.0000       0.451727        12.2921 
 334   0.0000       0.453292        12.3347 
 335   0.0000       0.459046        12.4913 
 336   0.0000       0.461715        12.5639 
 337   0.0000       0.464722        12.6457 
 338   0.0000       0.468715        12.7544 
 339   0.0000       0.471377        12.8268 
 340   0.0000       0.473016        12.8714 
 341   0.0000       0.478382        13.0174 
 342   0.0000       0.484173        13.1750 
 343   0.0000       0.490439        13.3455 
 344   0.0000       0.493797        13.4369 
 345   0.0000       0.500463        13.6183 
 346   0.0000       0.501915        13.6578 
 347   0.0000       0.510712        13.8972 
 348   0.0000       0.518865        14.1190 
 349   0.0000       0.519543        14.1375 
 350   0.0000       0.526479        14.3262 
 351   0.0000       0.529387        14.4054 
 352   0.0000       0.534738        14.5510 
 353   0.0000       0.538380        14.6501 
 354   0.0000       0.542582        14.7644 
 355   0.0000       0.543924        14.8009 
 356   0.0000       0.549123        14.9424 
 357   0.0000       0.553548        15.0628 
 358   0.0000       0.556738        15.1496 
 359   0.0000       0.558047        15.1852 
 360   0.0000       0.564163        15.3517 
 361   0.0000       0.570678        15.5290 
 362   0.0000       0.575758        15.6672 
 363   0.0000       0.577626        15.7180 
 364   0.0000       0.583157        15.8685 
 365   0.0000       0.583848        15.8873 
 366   0.0000       0.586257        15.9529 
 367   0.0000       0.589756        16.0481 
 368   0.0000       0.592603        16.1255 
 369   0.0000       0.593071        16.1383 
 370   0.0000       0.594333        16.1726 
 371   0.0000       0.602574        16.3969 
 372   0.0000       0.609016        16.5722 
 373   0.0000       0.611117        16.6293 
 374   0.0000       0.615106        16.7379 
 375   0.0000       0.619300        16.8520 
 376   0.0000       0.623235        16.9591 
 377   0.0000       0.624399        16.9908 
 378   0.0000       0.629474        17.1288 
 379   0.0000       0.632550        17.2126 
 380   0.0000       0.634661        17.2700 
 381   0.0000       0.636493        17.3199 
 382   0.0000       0.642979        17.4963 
 383   0.0000       0.645371        17.5614 
 384   0.0000       0.647856        17.6290 
 385   0.0000       0.650442        17.6994 
 386   0.0000       0.653695        17.7880 
 387   0.0000       0.656798        17.8724 
 388   0.0000       0.658468        17.9178 
 389   0.0000       0.662859        18.0373 
 390   0.0000       0.665221        18.1016 
 391   0.0000       0.665753        18.1161 
 392   0.0000       0.671109        18.2618 
 393   0.0000       0.672378        18.2963 
 394   0.0000       0.673759        18.3339 
 395   0.0000       0.676958        18.4210 
 396   0.0000       0.677353        18.4317 
 397   0.0000       0.683565        18.6007 
 398   0.0000       0.687897        18.7186 
 399   0.0000       0.690218        18.7818 
 400   0.0000       0.693539        18.8722 
 401   0.0000       0.698138        18.9973 
 402   0.0000       0.702677        19.1208 
 403   0.0000       0.705011        19.1843 
 404   0.0000       0.708400        19.2765 
 405   0.0000       0.710514        19.3341 
 406   0.0000       0.713423        19.4132 
 407   0.0000       0.715873        19.4799 
 408   0.0000       0.718771        19.5587 
 409   0.0000       0.720427        19.6038 
 410   0.0000       0.721800        19.6412 
 411   0.0000       0.723323        19.6826 
 412   0.0000       0.727544        19.7975 
 413   0.0000       0.731163        19.8960 
 414   0.0000       0.734765        19.9940 
 415   0.0000       0.737795        20.0764 
 416   0.0000       0.741909        20.1884 
 417   0.0000       0.744846        20.2683 
 418   0.0000       0.746402        20.3106 
 419   0.0000       0.749635        20.3986 
 420   0.0000       0.755301        20.5528 
 421   0.0000       0.757988        20.6259 
 422   0.0000       0.763837        20.7851 
 423   0.0000       0.764994        20.8165 
 424   0.0000       0.768216        20.9042 
 425   0.0000       0.771907        21.0046 
 426   0.0000       0.775754        21.1093 
 427   0.0000       0.779705        21.2168 
 428   0.0000       0.780608        21.2414 
 429   0.0000       0.786285        21.3959 
 430   0.0000       0.790427        21.5086 
 431   0.0000       0.796055        21.6618 
 432   0.0000       0.797644        21.7050 
 433   0.0000       0.801926        21.8215 
 434   0.0000       0.805882        21.9292 
 435   0.0000       0.806430        21.9441 
 436   0.0000       0.808117        21.9900 
 437   0.0000       0.812003        22.0957 
 438   0.0000       0.813279        22.1304 
 439   0.0000       0.816813        22.2266 
 440   0.0000       0.822154        22.3719 
 441   0.0000       0.823813        22.4171 
 442   0.0000       0.826637        22.4939 
 443   0.0000       0.830143        22.5893 
 444   0.0000       0.835163        22.7259 
 445   0.0000       0.836554        22.7638 
 446   0.0000       0.839312        22.8388 
 447   0.0000       0.841048        22.8861 
 448   0.0000       0.842021        22.9126 
 449   0.0000       0.845329        23.0026 
 450   0.0000       0.846934        23.0462 
 451   0.0000       0.848971        23.1017 
 452   0.0000       0.851519        23.1710 
 453   0.0000       0.853469        23.2241 
 454   0.0000       0.854154        23.2427 
 455   0.0000       0.854575        23.2542 
 456   0.0000       0.857284        23.3279 
 457   0.0000       0.858187        23.3525 
 458   0.0000       0.859973        23.4011 
 459   0.0000       0.865307        23.5462 
 460   0.0000       0.867270        23.5996 
 461   0.0000       0.869414        23.6580 
 462   0.0000       0.870585        23.6898 
 463   0.0000       0.873807        23.7775 
 464   0.0000       0.876557        23.8523 
 465   0.0000       0.879274        23.9263 
 466   0.0000       0.880740        23.9662 
 467   0.0000       0.881712        23.9926 
 468   0.0000       0.882511        24.0143 
 469   0.0000       0.883918        24.0526 
 470   0.0000       0.886031        24.1101 
 471   0.0000       0.888236        24.1701 
 472   0.0000       0.890185        24.2232 
 473   0.0000       0.891772        24.2664 
 474   0.0000       0.893249        24.3065 
 475   0.0000       0.894890        24.3512 
 476   0.0000       0.900461        24.5028 
 477   0.0000       0.900927        24.5155 
 478   0.0000       0.904878        24.6230 
 479   0.0000       0.907217        24.6866 
 480   0.0000       0.910295        24.7704 
 481   0.0000       0.911683        24.8082 
 482   0.0000       0.913407        24.8551 
 483   0.0000       0.914774        24.8923 
 484   0.0000       0.916042        24.9268 
 485   0.0000       0.918973        25.0065 
 486   0.0000       0.919192        25.0125 
 487   0.0000       0.921178        25.0665 
 488   0.0000       0.924760        25.1640 
 489   0.0000       0.929787        25.3008 
 490   0.0000       0.930292        25.3145 
 491   0.0000       0.933043        25.3894 
 492   0.0000       0.933917        25.4132 
 493   0.0000       0.937520        25.5112 
 494   0.0000       0.940526        25.5930 
 495   0.0000       0.941936        25.6314 
 496   0.0000       0.946192        25.7472 
 497   0.0000       0.947981        25.7959 
 498   0.0000       0.952118        25.9084 
 499   0.0000       0.953477        25.9454 
 500   0.0000       0.954131        25.9632 
 501   0.0000       0.955156        25.9911 
 502   0.0000       0.956788        26.0355 
 503   0.0000       0.959716        26.1152 
 504   0.0000       0.961442        26.1622 
 505   0.0000       0.963687        26.2233 
 506   0.0000       0.967929        26.3387 
 507   0.0000       0.971640        26.4397 
 508   0.0000       0.973445        26.4888 
 509   0.0000       0.976658        26.5762 
 510   0.0000       0.978514        26.6267 
 511   0.0000       0.981807        26.7163 
 512   0.0000       0.983214        26.7546 
 513   0.0000       0.984975        26.8025 
 514   0.0000       0.990702        26.9584 
 515   0.0000       0.991928        26.9917 
 516   0.0000       0.995879        27.0993 
 517   0.0000       0.998041        27.1581 
 518   0.0000       0.999919        27.2092 
 519   0.0000       1.008627        27.4461 
 520   0.0000       1.010601        27.4999 
 521   0.0000       1.011890        27.5349 
 522   0.0000       1.013518        27.5792 
 523   0.0000       1.017014        27.6743 
 524   0.0000       1.019128        27.7319 
 525   0.0000       1.020479        27.7686 
 526   0.0000       1.020794        27.7772 
 527   0.0000       1.024376        27.8747 
 528   0.0000       1.028885        27.9974 
 529   0.0000       1.029228        28.0067 
 530   0.0000       1.035443        28.1758 
 531   0.0000       1.038057        28.2470 
 532   0.0000       1.042296        28.3623 
 533   0.0000       1.046954        28.4891 
 534   0.0000       1.049030        28.5456 
 535   0.0000       1.053568        28.6690 
 536   0.0000       1.057241        28.7690 
 537   0.0000       1.063195        28.9310 
 538   0.0000       1.066064        29.0091 
 539   0.0000       1.066337        29.0165 
 540   0.0000       1.071929        29.1687 
 541   0.0000       1.074044        29.2262 
 542   0.0000       1.080928        29.4135 
 543   0.0000       1.081826        29.4380 
 544   0.0000       1.085432        29.5361 
 545   0.0000       1.086739        29.5717 
 546   0.0000       1.093062        29.7437 
 547   0.0000       1.098436        29.8900 
 548   0.0000       1.100205        29.9381 
 549   0.0000       1.104892        30.0656 
 550   0.0000       1.108066        30.1520 
 551   0.0000       1.108531        30.1647 
 552   0.0000       1.110407        30.2157 
 553   0.0000       1.117483        30.4083 
 554   0.0000       1.120301        30.4849 
 555   0.0000       1.122771        30.5522 
 556   0.0000       1.126106        30.6429 
 557   0.0000       1.131078        30.7782 
 558   0.0000       1.131658        30.7940 
 559   0.0000       1.135109        30.8879 
 560   0.0000       1.136521        30.9263 
 561   0.0000       1.143324        31.1114 
 562   0.0000       1.145962        31.1832 
 563   0.0000       1.149814        31.2880 
 564   0.0000       1.152663        31.3656 
 565   0.0000       1.158731        31.5307 
 566   0.0000       1.163518        31.6609 
 567   0.0000       1.164577        31.6898 
 568   0.0000       1.169205        31.8157 
 569   0.0000       1.174808        31.9682 
 570   0.0000       1.184913        32.2431 
 571   0.0000       1.186646        32.2903 
 572   0.0000       1.188908        32.3518 
 573   0.0000       1.193474        32.4761 
 574   0.0000       1.195472        32.5304 
 575   0.0000       1.199539        32.6411 
 576   0.0000       1.206351        32.8265 
 577   0.0000       1.209424        32.9101 
 578   0.0000       1.221190        33.2303 
 579   0.0000       1.225569        33.3494 
 580   0.0000       1.232320        33.5331 
 581   0.0000       1.237173        33.6652 
 582   0.0000       1.241535        33.7839 
 583   0.0000       1.243728        33.8436 
 584   0.0000       1.246040        33.9065 
 585   0.0000       1.249190        33.9922 
 586   0.0000       1.257652        34.2224 
 587   0.0000       1.264115        34.3983 
 588   0.0000       1.267752        34.4973 
 589   0.0000       1.273726        34.6598 
 590   0.0000       1.279605        34.8198 
 591   0.0000       1.282375        34.8952 
 592   0.0000       1.286028        34.9946 
 593   0.0000       1.289191        35.0807 
 594   0.0000       1.302147        35.4332 
 595   0.0000       1.302620        35.4461 
 596   0.0000       1.313015        35.7290 
 597   0.0000       1.315899        35.8074 
 598   0.0000       1.318504        35.8783 
 599   0.0000       1.329902        36.1885 
 600   0.0000       1.333671        36.2910 
 601   0.0000       1.335086        36.3295 
 602   0.0000       1.340678        36.4817 
 603   0.0000       1.342849        36.5408 
 604   0.0000       1.344249        36.5789 
 605   0.0000       1.351594        36.7787 
 606   0.0000       1.353921        36.8421 
 607   0.0000       1.357954        36.9518 
 608   0.0000       1.361319        37.0434 
 609   0.0000       1.366479        37.1838 
 610   0.0000       1.368880        37.2491 
 611   0.0000       1.371961        37.3329 
 612   0.0000       1.372803        37.3559 
 613   0.0000       1.378736        37.5173 
 614   0.0000       1.380226        37.5579 
 615   0.0000       1.386703        37.7341 
 616   0.0000       1.387650        37.7599 
 617   0.0000       1.394181        37.9376 
 618   0.0000       1.397283        38.0220 
 619   0.0000       1.404674        38.2231 
 620   0.0000       1.409448        38.3530 
 621   0.0000       1.413827        38.4722 
 622   0.0000       1.417419        38.5699 
 623   0.0000       1.421814        38.6895 
 624   0.0000       1.425523        38.7905 
 625   0.0000       1.433548        39.0088 
 626   0.0000       1.439441        39.1692 
 627   0.0000       1.442821        39.2611 
 628   0.0000       1.445079        39.3226 
 629   0.0000       1.447770        39.3958 
 630   0.0000       1.449766        39.4501 
 631   0.0000       1.454601        39.5817 
 632   0.0000       1.458228        39.6804 
 633   0.0000       1.460789        39.7501 
 634   0.0000       1.464103        39.8403 
 635   0.0000       1.467898        39.9435 
 636   0.0000       1.471584        40.0438 
 637   0.0000       1.473699        40.1014 
 638   0.0000       1.480147        40.2768 
 639   0.0000       1.484286        40.3895 
 640   0.0000       1.484461        40.3943 
 641   0.0000       1.485765        40.4297 
 642   0.0000       1.491401        40.5831 
 643   0.0000       1.493061        40.6283 
 644   0.0000       1.496756        40.7288 
 645   0.0000       1.500139        40.8209 
 646   0.0000       1.505285        40.9609 
 647   0.0000       1.509166        41.0665 
 648   0.0000       1.511833        41.1391 
 649   0.0000       1.513806        41.1928 
 650   0.0000       1.518899        41.3313 
 651   0.0000       1.526893        41.5489 
 652   0.0000       1.529134        41.6098 
 653   0.0000       1.533305        41.7233 
 654   0.0000       1.535827        41.7920 
 655   0.0000       1.542050        41.9613 
 656   0.0000       1.546297        42.0769 
 657   0.0000       1.556910        42.3657 
 658   0.0000       1.564505        42.5723 
 659   0.0000       1.568300        42.6756 
 660   0.0000       1.569658        42.7126 
 661   0.0000       1.576991        42.9121 
 662   0.0000       1.582159        43.0527 
 663   0.0000       1.586441        43.1692 
 664   0.0000       1.592774        43.3416 
 665   0.0000       1.598740        43.5039 
 666   0.0000       1.601931        43.5907 
 667   0.0000       1.605404        43.6853 
 668   0.0000       1.610334        43.8194 
 669   0.0000       1.614716        43.9387 
 670   0.0000       1.617615        44.0175 
 671   0.0000       1.620618        44.0993 
 672   0.0000       1.627624        44.2899 
 673   0.0000       1.640496        44.6402 
 674   0.0000       1.648241        44.8509 
 675   0.0000       1.651538        44.9406 
 676   0.0000       1.655204        45.0404 
 677   0.0000       1.657156        45.0935 
 678   0.0000       1.660332        45.1799 
 679   0.0000       1.666267        45.3414 
 680   0.0000       1.667706        45.3806 
 681   0.0000       1.674952        45.5778 
 682   0.0000       1.680251        45.7219 
 683   0.0000       1.685912        45.8760 
 684   0.0000       1.699299        46.2403 
 685   0.0000       1.709694        46.5231 
 686   0.0000       1.711600        46.5750 
 687   0.0000       1.717443        46.7340 
 688   0.0000       1.731374        47.1131 
 689   0.0000       1.742680        47.4207 
 690   0.0000       1.743949        47.4553 
 691   0.0000       1.747912        47.5631 
 692   0.0000       1.749360        47.6025 
 693   0.0000       1.753641        47.7190 
 694   0.0000       1.755866        47.7796 
 695   0.0000       1.766748        48.0757 
 696   0.0000       1.774349        48.2825 
 697   0.0000       1.781958        48.4896 
 698   0.0000       1.791472        48.7484 
 699   0.0000       1.797928        48.9241 
 700   0.0000       1.801622        49.0246 
 701   0.0000       1.802124        49.0383 
 702   0.0000       1.803231        49.0684 
 703   0.0000       1.810262        49.2597 
 704   0.0000       1.813625        49.3513 
 705   0.0000       1.834707        49.9249 
 706   0.0000       1.846176        50.2370 
 707   0.0000       1.847955        50.2854 
 708   0.0000       1.855031        50.4780 
 709   0.0000       1.857672        50.5498 
 710   0.0000       1.858713        50.5781 
 711   0.0000       1.863245        50.7015 
 712   0.0000       1.864938        50.7475 
 713   0.0000       1.869591        50.8742 
 714   0.0000       1.883948        51.2648 
 715   0.0000       1.890275        51.4370 
 716   0.0000       1.903537        51.7979 
 717   0.0000       1.917357        52.1739 
 718   0.0000       1.920172        52.2506 
 719   0.0000       1.926213        52.4149 
 720   0.0000       1.938265        52.7429 
 721   0.0000       1.940631        52.8073 
 722   0.0000       1.943453        52.8841 
 723   0.0000       1.946720        52.9729 
 724   0.0000       1.952967        53.1429 
 725   0.0000       1.967239        53.5313 
 726   0.0000       1.969875        53.6030 
 727   0.0000       1.978531        53.8386 
 728   0.0000       1.991551        54.1928 
 729   0.0000       1.994479        54.2725 
[...]
   Maximum residual norm  :     0.000069615233

                       ****Iteration    9****
   Time for densities:     0.767
   Using LibInt in JK Direct
   Time for J+K (Direct):   954.251
   Time for Sigma-Completion:    13.097
   Size of expansion space: 9
   Lowest Energy          :     0.094958558030
   Maximum Energy change  :     0.000284255511 (vector 2)
   Maximum residual norm  :     0.000040327282

                       ****Iteration   10****
   Time for densities:     0.776
   Using LibInt in JK Direct
   Time for J+K (Direct):   956.468
   Time for Sigma-Completion:    13.111
   Size of expansion space: 12
   Lowest Energy          :     0.094958554331
   Maximum Energy change  :     0.000134303766 (vector 2)
   Maximum residual norm  :     0.000025399198

                       ****Iteration   11****
   Time for densities:     0.770
   Using LibInt in JK Direct
   Time for J+K (Direct):   961.921
   Time for Sigma-Completion:    13.150
   Size of expansion space: 15
   Lowest Energy          :     0.094958553510
   Maximum Energy change  :     0.000064524934 (vector 2)
   Maximum residual norm  :     0.000008476394

                       ****Iteration   12****
   Time for densities:     0.781
   Using LibInt in JK Direct
   Time for J+K (Direct):   952.645
   Time for Sigma-Completion:    13.066
   Size of expansion space: 18
   Lowest Energy          :     0.094958553352
   Maximum Energy change  :     0.000031888790 (vector 2)
   Maximum residual norm  :     0.000005598141

                       ****Iteration   13****
   Time for densities:     0.765
   Using LibInt in JK Direct
   Time for J+K (Direct):   957.502
   Time for Sigma-Completion:    12.984
   Size of expansion space: 21
   Lowest Energy          :     0.094958553322
   Maximum Energy change  :     0.000023927400 (vector 2)
   Maximum residual norm  :     0.000007029663

                       ****Iteration   14****
   Time for densities:     0.778
   Using LibInt in JK Direct
   Time for J+K (Direct):   956.456
   Time for Sigma-Completion:    12.897
   Size of expansion space: 24
   Lowest Energy          :     0.094958553318
   Maximum Energy change  :     0.000028286603 (vector 2)
   Maximum residual norm  :     0.000003929051

                       ****Iteration   15****
   Time for densities:     0.773
   Using LibInt in JK Direct
   Time for J+K (Direct):   955.028
   Time for Sigma-Completion:    12.714
   Size of expansion space: 27
   Lowest Energy          :     0.094958553317
   Maximum Energy change  :     0.000013120167 (vector 2)
   Maximum residual norm  :     0.000002090045

                       ****Iteration   16****
   Time for densities:     0.783
   Using LibInt in JK Direct
   Time for J+K (Direct):   947.486
   Time for Sigma-Completion:    12.843
   Size of expansion space: 30
   Lowest Energy          :     0.094958553317
   Maximum Energy change  :     0.000005193529 (vector 2)
   Maximum residual norm  :     0.000000716236
   Rebuilding the expansion space

                       ****Iteration   17****
   Time for densities:     1.528
   Using LibInt in JK Direct
   Time for J+K (Direct):  1804.339
   Time for Sigma-Completion:    25.296
   Size of expansion space: 6
   Lowest Energy          :     0.094958553321
   Maximum Energy change  :     0.000001395536 (vector 2)
   Maximum residual norm  :     0.000000259870

                       ****Iteration   18****
   Time for densities:     0.510
   Using LibInt in JK Direct
   Time for J+K (Direct):   678.365
   Time for Sigma-Completion:     8.620
   Size of expansion space: 8
   Lowest Energy          :     0.094958553321
   Maximum Energy change  :     0.000000751781 (vector 2)
   Maximum residual norm  :     0.000000093237

      *** CONVERGENCE OF RESIDUAL NORM REACHED ***

Storing the converged CI vectors               ... Y2.cis1

                 *** DAVIDSON DONE ***

Total time for solving the CIS problem: 21937.633sec

-----------------------------
CIS-EXCITED STATES (SINGLETS)
-----------------------------

the weight of the individual excitations are printed if larger than 1.0e-02

STATE  1:  E=   0.094959 au      2.584 eV    20841.0 cm**-1
   232a -> 237a  :     0.016004 (c= -0.12650625)
   234a -> 238a  :     0.127449 (c= -0.35700014)
   235a -> 238a  :     0.042085 (c= -0.20514620)
   236a -> 237a  :     0.685398 (c= -0.82788791)
   236a -> 239a  :     0.026802 (c= -0.16371236)

STATE  2:  E=   0.117323 au      3.193 eV    25749.5 cm**-1
   229a -> 238a  :     0.012124 (c=  0.11010754)
   232a -> 238a  :     0.058175 (c= -0.24119440)
   234a -> 237a  :     0.232417 (c= -0.48209655)
   235a -> 237a  :     0.090599 (c= -0.30099682)
   236a -> 238a  :     0.474031 (c= -0.68849905)
   236a -> 242a  :     0.015159 (c= -0.12312026)

STATE  3:  E=   0.158087 au      4.302 eV    34696.1 cm**-1
   225a -> 238a  :     0.012683 (c=  0.11261894)
   231a -> 238a  :     0.044952 (c=  0.21201955)
   232a -> 237a  :     0.179999 (c=  0.42426328)
   232a -> 239a  :     0.012972 (c= -0.11389687)
   233a -> 237a  :     0.034718 (c=  0.18632845)
   233a -> 238a  :     0.012280 (c= -0.11081563)
   234a -> 238a  :     0.060028 (c=  0.24500591)
   234a -> 240a  :     0.010247 (c= -0.10122889)
   234a -> 245a  :     0.010079 (c=  0.10039498)
   235a -> 237a  :     0.046305 (c= -0.21518670)
   235a -> 238a  :     0.131703 (c=  0.36290967)
   236a -> 237a  :     0.025256 (c= -0.15892058)
   236a -> 239a  :     0.186743 (c= -0.43213791)
   236a -> 241a  :     0.045731 (c= -0.21384785)
   236a -> 243a  :     0.024809 (c= -0.15750735)


----------------------
CIS-EXCITATION SPECTRA
----------------------

Center of mass = ( 18.2827,-12.8947, -0.4415)
Calculating the Dipole integrals                  ... done
Transforming integrals                            ... done
Calculating the Linear Momentum integrals         ... done
Transforming integrals                            ... done
Calculating angular momentum integrals            ... done
Transforming integrals                            ... done

-----------------------------------------------------------------------------
         ABSORPTION SPECTRUM VIA TRANSITION ELECTRIC DIPOLE MOMENTS
-----------------------------------------------------------------------------
State   Energy    Wavelength  fosc         T2        TX        TY        TZ  
        (cm-1)      (nm)                 (au**2)    (au)      (au)      (au) 
-----------------------------------------------------------------------------
   1   20841.0    479.8   2.788295224  44.04493  -5.00444   4.35554   0.17238
   2   25749.5    388.4   0.428049945   5.47269   2.16395   0.32661   0.82665
   3   34696.1    288.2   0.109484326   1.03884  -0.02277   0.83219  -0.58802

-----------------------------------------------------------------------------
         ABSORPTION SPECTRUM VIA TRANSITION VELOCITY DIPOLE MOMENTS
-----------------------------------------------------------------------------
State   Energy    Wavelength   fosc        P2         PX        PY        PZ  
        (cm-1)      (nm)                 (au**2)     (au)      (au)      (au) 
-----------------------------------------------------------------------------
   1   20841.0    479.8   1.626210573   0.23163   0.38001  -0.29534   0.00189
   2   25749.5    388.4   0.106205862   0.01869  -0.13353   0.01611  -0.02449
   3   34696.1    288.2   0.021841911   0.00518  -0.07185  -0.00306   0.00270

-------------------------------------------------------------------
                             CD SPECTRUM
-------------------------------------------------------------------
State  Energy     Wavelength     R         MX        MY        MZ   
       (cm-1)       (nm)     (1e40*cgs)   (au)      (au)      (au)  
-------------------------------------------------------------------
   1   20841.0    479.8    -663.73196   0.39986   0.16076  -0.62055
   2   25749.5    388.4    757.17335   0.26038   0.05564   1.23925
   3   34696.1    288.2     34.98316  -0.28531  -0.08628  -0.23725

Total run time:    22005.087 sec

           *** ORCA-CIS/TD-DFT FINISHED WITHOUT ERROR ***

-----------------------
CIS/TD-DFT TOTAL ENERGY
-----------------------

    E(SCF)  =  -4777.460254812 Eh
    DE(CIS) =      0.094958553 Eh (Root  1)
    ----------------------------- ---------
    E(tot)  =  -4777.365296259 Eh


-------------------------   --------------------
FINAL SINGLE POINT ENERGY     -4777.365296258792
-------------------------   --------------------

------------------------------------------------------------------------------
                         ORCA SCF GRADIENT CALCULATION
------------------------------------------------------------------------------


------------
CIS GRADIENT
------------

Reference wavefunction             ... RHF
State of interest                  ... 1
Basis dimension                    ... 1021
DFT-XC contribution needed         ... NO
RI-approximation                   ... OFF
CIS-vectors being read from        ... Y2.cis

 => Number of Vectors found: 3
 => Orbital Window: 87...236 -> 237...1020

Reading the CIS file                     ... done
Norm of the CI vector                    ... 1.000000000
Making the CIS (pseudo)densities         ... done
Making operators G(D) and Q(T)           ... done
Transforming the Fock operators          ... done
Making the frozen-core relaxed density   ... done
Constructing the G(H) operator           ... done
Transforming the G(H) operator           ... done
Calculating the CIS Lagrangian           ... done
Solving the Z-vector equations           ... done
Finalizing the relaxed density           ... done
Storing the relaxed density              ... done
Constructing the G(Z) operator           ... done
Transforming the G(Z) operator           ... done
Making the W-matrix                      ... done
Finalizing the W-matrix                  ... done
Transforming the W-matrix                ... done
Nuclear repulsion gradient               ... done
One-Electron gradient                    ... done
Prescreening matrices                    ... done
Two-Electron gradient (4-center)         ... done
                 ---------------------------
                 EXCITED STATE GRADIENT DONE
                 ---------------------------


------------------
CARTESIAN GRADIENT
------------------

   1   C   :   -0.032823538   -0.020049035    0.013453472
   2   O   :    0.029184667    0.021520878   -0.011127884
   3   C   :    0.018110763   -0.010886337    0.000815574
   4   C   :   -0.002911410    0.007474557   -0.002752219
   5   S   :   -0.005922687    0.002577618    0.000144687
   6   C   :   -0.005409551   -0.001042262    0.002354435
   7   C   :    0.015793879   -0.016889479    0.005452966
   8   C   :   -0.009915172    0.010028509   -0.011959096
   9   C   :   -0.002711047   -0.010221357    0.015746314
  10   C   :    0.051609700    0.008550712   -0.016325639
  11   N   :   -0.028500216   -0.005451284    0.009971649
  12   C   :   -0.037504505    0.031374743   -0.030714943
  13   N   :    0.022917105   -0.019901705    0.011457586
  14   C   :    0.005661817   -0.004559340    0.002653467
  15   C   :   -0.009833031    0.005889210    0.002037873
  16   C   :   -0.012075206   -0.007459154    0.001804842
  17   S   :   -0.000724295   -0.005015876   -0.002021351
  18   C   :    0.000117216    0.005390461    0.001086465
  19   C   :   -0.000886302   -0.007398683   -0.001203760
  20   C   :    0.001712281    0.014400751    0.009109921
  21   S   :    0.004598201    0.002856161    0.000818673
  22   C   :   -0.011335247    0.009816410   -0.001799062
  23   C   :    0.007877501    0.002769805    0.002403161
  24   N   :    0.006110289   -0.002789249    0.000630855
  25   C   :   -0.008934849   -0.006144145    0.001181816
  26   C   :    0.000710011    0.003040679   -0.003567007
  27   C   :   -0.000954861    0.003298454   -0.000151066
  28   C   :    0.007985999   -0.029654461    0.000524550
  29   C   :    0.010544419    0.043145493    0.000782070
  30   N   :   -0.022251891    0.007065702   -0.005051108
  31   N   :   -0.026942997   -0.017692457   -0.000167940
  32   C   :    0.015428333    0.007933319   -0.003334601
  33   C   :   -0.002364776    0.000456482    0.004163626
  34   N   :    0.001994232   -0.024053947    0.001637720
  35   C   :    0.043425515    0.001350141    0.008298622
  36   C   :   -0.026278075    0.011549262   -0.003349844
  37   C   :    0.003866054   -0.000732545    0.000579709
  38   N   :   -0.002347847    0.007938775    0.000065856
  39   C   :   -0.007302864   -0.007513976   -0.003668254
  40   C   :    0.002235403   -0.000237719    0.003692640
  41   C   :    0.011347599    0.004577080    0.000126999
  42   C   :    0.003045789   -0.013979926    0.000848498
  43   S   :    0.002346240    0.004406100    0.000144889
  44   C   :    0.000568738   -0.006837054    0.000339142
  45   C   :    0.000403312    0.010956418    0.000034935
  46   S   :    0.020504100   -0.002484753    0.001549494
  47   C   :    0.003390062   -0.007796159    0.000644776
  48   C   :    0.001064508   -0.001021928   -0.000018717
  49   C   :   -0.002346929    0.006811662   -0.000324044
  50   C   :    0.002727317    0.002996783   -0.000020841
  51   C   :    0.008220127    0.019397976   -0.000970600
  52   C   :   -0.000420983   -0.021706054    0.001360674
  53   C   :   -0.051472818    0.021761755   -0.002964327
  54   N   :    0.028502792   -0.013848055    0.001779107
  55   C   :    0.041539197    0.041565094   -0.001277903
  56   N   :   -0.021962446   -0.026210880    0.000945916
  57   C   :   -0.017907637   -0.015224983    0.000246837
  58   C   :    0.003974487   -0.003229737    0.000222758
  59   S   :    0.007391593    0.002352700    0.000171824
  60   C   :    0.004357803    0.007081859   -0.000346759
  61   C   :   -0.019494958   -0.004856537   -0.000349954
  62   C   :    0.024790044   -0.036810509    0.002388200
  63   O   :   -0.043691791    0.032437087   -0.003089434
  64   H   :   -0.003675811   -0.004701698    0.002109633
  65   H   :    0.002340770    0.003256392   -0.002140944
  66   H   :    0.001339073   -0.000528759   -0.001485495
  67   H   :    0.002387252   -0.000880106   -0.000074592
  68   H   :    0.004757119   -0.003625238    0.000277545
  69   H   :   -0.003507249    0.005765717   -0.000801786
  70   H   :   -0.002706042   -0.002744894   -0.000147862
  71   H   :   -0.001440144   -0.000960666    0.002128949
  72   H   :   -0.000653933   -0.000169556    0.001030487
  73   H   :    0.001215640   -0.004416226    0.001741938
  74   H   :   -0.003719061    0.002141425   -0.001430350
  75   H   :   -0.000441573    0.000594090   -0.002171346
  76   H   :    0.002670438    0.001826849   -0.000166676
  77   H   :    0.001723694   -0.000759294   -0.001084995
  78   H   :   -0.002592146    0.005326856   -0.000070173
  79   H   :    0.004907689   -0.004846217    0.001186830
  80   H   :    0.000088521   -0.000640078   -0.001034596
  81   H   :   -0.003109410   -0.002185454   -0.000777211
  82   H   :   -0.000686418   -0.001092092   -0.002446941
  83   H   :   -0.000816437    0.004383665   -0.000214335
  84   H   :    0.002082042   -0.005366054    0.000389154
  85   H   :   -0.001751219    0.004122616   -0.000297762
  86   H   :    0.002758041   -0.005574328    0.000364285

Difference to translation invariance:
           :   -0.0000000002   -0.0000000002    0.0000000000

Norm of the cartesian gradient     ...    0.2010565461
RMS gradient                       ...    0.0125172338
MAX gradient                       ...    0.0516096998

-------
TIMINGS
-------

Total CIS gradient time            ...    14976.168 sec

Fock matrix formation       ....    1122.150 sec  (  7.5%)
  Coulomb formation         ....    1122.150 sec  (100.0% of F)
Z-vector equation           ....   12486.081 sec  ( 83.4%)
One electron gradient       ....       8.490 sec  (  0.1%)
Prescreening matrices       ....       0.962 sec  (  0.0%)
Two electron gradient       ....    1356.550 sec  (  9.1%)

                            ***************************************
                            *     ORCA property calculations      *
                            ***************************************

                                    ---------------------
                                    Active property flags
                                    ---------------------
   (+) Dipole Moment


------------------------------------------------------------------------------
                       ORCA ELECTRIC PROPERTIES CALCULATION
------------------------------------------------------------------------------

Dipole Moment Calculation                       ... on
Quadrupole Moment Calculation                   ... off
Polarizability Calculation                      ... off
GBWName                                         ... Y2.gbw
Electron density file                           ... Y2.scfp
The origin for moment calculation is the CENTER OF MASS  = (18.282711, -12.894734 -0.441482)

-------------
DIPOLE MOMENT
-------------
                                X             Y             Z
Electronic contribution:      5.28891       3.91061       0.46525
Nuclear contribution   :     -5.64307      -1.21269      -2.01926
                        -----------------------------------------
Total Dipole Moment    :     -0.35416       2.69792      -1.55402
                        -----------------------------------------
Magnitude (a.u.)       :      3.13356
Magnitude (Debye)      :      7.96487



--------------------
Rotational spectrum 
--------------------
 
Rotational constants in cm-1:     0.002349     0.000322     0.000288 
Rotational constants in MHz :    70.428933     9.652594     8.620909 

 Dipole components along the rotational axes: 
x,y,z [a.u.] :    -2.040469     1.748882     1.611547 
x,y,z [Debye]:    -5.186460     4.445305     4.096228 

 

                        *** CIS RELAXED DENSITY ***

------------------------------------------------------------------------------
                       ORCA ELECTRIC PROPERTIES CALCULATION
------------------------------------------------------------------------------

Dipole Moment Calculation                       ... on
Quadrupole Moment Calculation                   ... off
Polarizability Calculation                      ... off
GBWName                                         ... Y2.gbw
Electron density file                           ... Y2.cisp
The origin for moment calculation is the CENTER OF MASS  = (18.282711, -12.894734 -0.441482)

-------------
DIPOLE MOMENT
-------------
                                X             Y             Z
Electronic contribution:      5.33499       2.77899       0.21138
Nuclear contribution   :     -5.64307      -1.21269      -2.01926
                        -----------------------------------------
Total Dipole Moment    :     -0.30808       1.56630      -1.80788
                        -----------------------------------------
Magnitude (a.u.)       :      2.41177
Magnitude (Debye)      :      6.13023



--------------------
Rotational spectrum 
--------------------
 
Rotational constants in cm-1:     0.002349     0.000322     0.000288 
Rotational constants in MHz :    70.428933     9.652594     8.620909 

 Dipole components along the rotational axes: 
x,y,z [a.u.] :    -1.276098     0.904698     1.835680 
x,y,z [Debye]:    -3.243584     2.299559     4.665927 

 

Timings for individual modules:

Sum of individual times         ...    41398.657 sec (= 689.978 min)
GTO integral calculation        ...        1.668 sec (=   0.028 min)   0.0 %
SCF iterations                  ...     4413.202 sec (=  73.553 min)  10.7 %
CIS module                      ...    22007.091 sec (= 366.785 min)  53.2 %
SCF Gradient evaluation         ...    14976.696 sec (= 249.612 min)  36.2 %
                             ****ORCA TERMINATED NORMALLY****
TOTAL RUN TIME: 0 days 11 hours 30 minutes 1 seconds 644 msec
