
                                 *****************
                                 * O   R   C   A *
                                 *****************

           --- An Ab Initio, DFT and Semiempirical electronic structure package ---

                  #######################################################
                  #                        -***-                        #
                  #          Department of theory and spectroscopy      #
                  #               Directorship: Frank Neese             #
                  #        Max Planck Institute fuer Kohlenforschung    #
                  #                Kaiser Wilhelm Platz 1               #
                  #                 D-45470 Muelheim/Ruhr               #
                  #                      Germany                        #
                  #                                                     #
                  #                  All rights reserved                #
                  #                        -***-                        #
                  #######################################################


                         Program Version 4.2.0 -  RELEASE  -


 With contributions from (in alphabetic order):
   Daniel Aravena         : Magnetic Suceptibility
   Michael Atanasov       : Ab Initio Ligand Field Theory (pilot matlab implementation)
   Alexander A. Auer      : GIAO ZORA, VPT2
   Ute Becker             : Parallelization
   Giovanni Bistoni       : ED, misc. LED, open-shell LED, HFLED
   Martin Brehm           : Molecular dynamics
   Dmytro Bykov           : SCF Hessian
   Vijay G. Chilkuri      : MRCI spin determinant printing, contributions to CSF-ICE
   Dipayan Datta          : RHF DLPNO-CCSD density
   Achintya Kumar Dutta   : EOM-CC, STEOM-CC
   Dmitry Ganyushin       : Spin-Orbit,Spin-Spin,Magnetic field MRCI
   Miquel Garcia          : C-PCM Hessian, Gaussian charge scheme
   Yang Guo               : DLPNO-NEVPT2, CIM, IAO-localization
   Andreas Hansen         : Spin unrestricted coupled pair/coupled cluster methods
   Benjamin Helmich-Paris : CASSCF linear response (MC-RPA)
   Lee Huntington         : MR-EOM, pCC
   Robert Izsak           : Overlap fitted RIJCOSX, COSX-SCS-MP3, EOM
   Christian Kollmar      : KDIIS, OOCD, Brueckner-CCSD(T), CCSD density
   Simone Kossmann        : Meta GGA functionals, TD-DFT gradient, OOMP2, MP2 Hessian
   Martin Krupicka        : AUTO-CI
   Lucas Lang             : DCDCAS
   Dagmar Lenk            : GEPOL surface, SMD
   Dimitrios Liakos       : Extrapolation schemes; Compound Job, initial MDCI parallelization
   Dimitrios Manganas     : Further ROCIS development; embedding schemes
   Dimitrios Pantazis     : SARC Basis sets
   Taras Petrenko         : DFT Hessian,TD-DFT gradient, ASA, ECA, R-Raman, ABS, FL, XAS/XES, NRVS
   Peter Pinski           : DLPNO-MP2, DLPNO-MP2 Gradient
   Christoph Reimann      : Effective Core Potentials
   Marius Retegan         : Local ZFS, SOC
   Christoph Riplinger    : Optimizer, TS searches, QM/MM, DLPNO-CCSD(T), (RO)-DLPNO pert. Triples
   Tobias Risthaus        : Range-separated hybrids, TD-DFT gradient, RPA, STAB
   Michael Roemelt        : Original ROCIS implementation
   Masaaki Saitow         : Open-shell DLPNO-CCSD energy and density
   Barbara Sandhoefer     : DKH picture change effects
   Avijit Sen             : IP-ROCIS
   Kantharuban Sivalingam : CASSCF convergence, NEVPT2, FIC-MRCI
   Bernardo de Souza      : ESD, SOC TD-DFT
   Georgi Stoychev        : AutoAux, RI-MP2 NMR
   Willem Van den Heuvel  : Paramagnetic NMR
   Boris Wezisla          : Elementary symmetry handling
   Frank Wennmohs         : Technical directorship


 We gratefully acknowledge several colleagues who have allowed us to
 interface, adapt or use parts of their codes:
   Stefan Grimme, W. Hujo, H. Kruse,             : VdW corrections, initial TS optimization,
                  C. Bannwarth                     DFT functionals, gCP, sTDA/sTD-DF
   Ed Valeev, F. Pavosevic, A. Kumar             : LibInt (2-el integral package), F12 methods
   Garnet Chan, S. Sharma, J. Yang, R. Olivares  : DMRG
   Ulf Ekstrom                                   : XCFun DFT Library
   Mihaly Kallay                                 : mrcc  (arbitrary order and MRCC methods)
   Andreas Klamt, Michael Diedenhofen            : otool_cosmo (COSMO solvation model)
   Jiri Pittner, Ondrej Demel                    : Mk-CCSD
   Frank Weinhold                                : gennbo (NPA and NBO analysis)
   Christopher J. Cramer and Donald G. Truhlar   : smd solvation model
   Lars Goerigk                                  : TD-DFT with DH, B97 family of functionals
   V. Asgeirsson, H. Jonsson                     : NEB implementation
   FAccTs GmbH                                   : IRC, NEB, NEB-TS, Multilevel, MM, QM/MM, CI optimization
   S Lehtola, MJT Oliveira, MAL Marques          : LibXC Library


 Your calculation uses the libint2 library for the computation of 2-el integrals
 For citations please refer to: http://libint.valeyev.net

 Your ORCA version has been built with support for libXC version: 4.2.3
 For citations please refer to: https://tddft.org/programs/libxc/

 This ORCA versions uses:
   CBLAS   interface :  Fast vector & matrix operations
   LAPACKE interface :  Fast linear algebra routines
   SCALAPACK package :  Parallel linear algebra routines


----- Orbital basis set information -----
Your calculation utilizes the basis: def2-SVP
   F. Weigend and R. Ahlrichs, Phys. Chem. Chem. Phys. 7, 3297 (2005).

================================================================================
                                        WARNINGS
                       Please study these warnings very carefully!
================================================================================

INFO   : Checking CIS options ...

WARNING: CIS/ROCIS methods need fully converged wavefunctions
  ===> : Setting SCFConvForced true
         You can overwrite this default with %scf ConvForced false 


INFO   : the flag for use of LIBINT has been found!

================================================================================
                                       INPUT FILE
================================================================================
NAME = Y2.inp
|  1> # ORCA input file
|  2> # Y2.out: Geometry 28
|  3> ! Engrad Keepdens
|  4> %maxcore 1000
|  5> %tddft
|  6>   nroots 3 
|  7>   # nroots is the number of states to be computed
|  8>   Iroot 1
|  9>   end
| 10> * xyz 0 1
| 11>    C        4.82402         1.98656        -0.92646
| 12>    O        5.93157         2.44528        -1.11345
| 13>    C        3.50424         2.60185        -1.20098
| 14>    C        3.03899         3.77639        -1.72452
| 15>    S        1.30401         3.78766        -1.71473
| 16>    C        1.20542         2.21048        -0.99684
| 17>    C        2.46596         1.69954        -0.78609
| 18>    C        3.07311         0.49685        -0.18881
| 19>    C        2.37557        -0.42636         0.57687
| 20>    C        0.94906        -0.38913         0.63306
| 21>    N       -0.21277        -0.34731         0.64076
| 22>    C        3.01685        -1.36752         1.43036
| 23>    N        3.54610        -2.11701         2.14453
| 24>    C        4.50856         0.60184        -0.40176
| 25>    C        5.57251        -0.27015        -0.33522
| 26>    C        5.69257        -1.68066        -0.29603
| 27>    S        7.32394        -2.32501        -0.02106
| 28>    C        6.77173        -3.94168        -0.27235
| 29>    C        5.38497        -3.97412        -0.56491
| 30>    C        4.78187        -2.70962        -0.57000
| 31>    S        4.78321        -5.60825        -0.85365
| 32>    C        6.39462        -6.23078        -0.58361
| 33>    C        7.33423        -5.23362        -0.28771
| 34>    N        8.57418        -5.79974        -0.06737
| 35>    C        9.62517        -4.98029         0.52995
| 36>    C       10.38743        -4.12056        -0.47647
| 37>    C        8.45533        -7.18761        -0.24949
| 38>    C        7.07350        -7.46516        -0.54987
| 39>    C        6.62692        -8.80727        -0.71827
| 40>    N        5.40019        -9.31456        -0.91895
| 41>    N        5.61568       -10.62511        -0.96163
| 42>    C        4.51178       -11.57607        -1.00298
| 43>    C        4.06414       -11.98959         0.39837
| 44>    N        6.87003       -11.03008        -0.79492
| 45>    C        7.54799        -9.88213        -0.63965
| 46>    C        8.93421        -9.62480        -0.43260
| 47>    C        9.40374        -8.27451        -0.23285
| 48>    N       10.79970        -8.33221        -0.11955
| 49>    C       11.80712        -7.30630         0.11551
| 50>    C       12.19492        -7.17422         1.58861
| 51>    C       11.18943        -9.65150        -0.22772
| 52>    C       10.06374       -10.46589        -0.42224
| 53>    S       10.46042       -12.15522        -0.64094
| 54>    C       12.17279       -11.75094        -0.46631
| 55>    C       12.40399       -10.37043        -0.24653
| 56>    S       14.09321        -9.99782        -0.09481
| 57>    C       14.51200       -11.70908        -0.34114
| 58>    C       13.35317       -12.49382        -0.51560
| 59>    C       15.79669       -12.30486        -0.40306
| 60>    C       17.08566       -11.82324        -0.28716
| 61>    C       18.31204       -12.62505        -0.38435
| 62>    C       18.46598       -13.96805        -0.68470
| 63>    C       19.76562       -14.55910        -0.72984
| 64>    N       20.82803       -15.02932        -0.76438
| 65>    C       17.39238       -14.85792        -0.99069
| 66>    N       16.53854       -15.60410        -1.24841
| 67>    C       19.43620       -11.71295        -0.12291
| 68>    C       20.80839       -11.77911        -0.02666
| 69>    S       21.46799       -10.20685         0.30083
| 70>    C       19.90529        -9.45292         0.31391
| 71>    C       18.93350       -10.38528         0.07847
| 72>    C       17.45720       -10.40278        -0.01948
| 73>    O       16.69822        -9.45517         0.09585
| 74>    H        3.60569         4.62486        -2.10415
| 75>    H        0.23592         1.77103        -0.77453
| 76>    H        6.52634         0.26576        -0.43834
| 77>    H        3.73900        -2.52298        -0.81725
| 78>    H       10.29075        -5.62653         1.10558
| 79>    H        9.13728        -4.32868         1.27261
| 80>    H       11.15107        -3.52325         0.04603
| 81>    H        9.71249        -3.42399        -0.99588
| 82>    H       10.88487        -4.72861        -1.24660
| 83>    H        4.86403       -12.44151        -1.58100
| 84>    H        3.70126       -11.08404        -1.55717
| 85>    H        4.89705       -12.45529         0.94656
| 86>    H        3.24009       -12.71665         0.33577
| 87>    H        3.71131       -11.11593         0.96696
| 88>    H       11.45845        -6.36579        -0.31311
| 89>    H       12.69158        -7.58469        -0.47761
| 90>    H       11.31589        -6.98464         2.22341
| 91>    H       12.91133        -6.35063         1.73053
| 92>    H       12.67079        -8.09849         1.94771
| 93>    H       13.41523       -13.56895        -0.69066
| 94>    H       15.71096       -13.37685        -0.58849
| 95>    H       21.46940       -12.63604        -0.13228
| 96>    H       19.79391        -8.38630         0.50150
| 97> *
| 98> 
| 99>                          ****END OF INPUT****
================================================================================

                     *******************************
                     * Energy+Gradient Calculation *
                     *******************************

---------------------------------
CARTESIAN COORDINATES (ANGSTROEM)
---------------------------------
  C      4.824020    1.986560   -0.926460
  O      5.931570    2.445280   -1.113450
  C      3.504240    2.601850   -1.200980
  C      3.038990    3.776390   -1.724520
  S      1.304010    3.787660   -1.714730
  C      1.205420    2.210480   -0.996840
  C      2.465960    1.699540   -0.786090
  C      3.073110    0.496850   -0.188810
  C      2.375570   -0.426360    0.576870
  C      0.949060   -0.389130    0.633060
  N     -0.212770   -0.347310    0.640760
  C      3.016850   -1.367520    1.430360
  N      3.546100   -2.117010    2.144530
  C      4.508560    0.601840   -0.401760
  C      5.572510   -0.270150   -0.335220
  C      5.692570   -1.680660   -0.296030
  S      7.323940   -2.325010   -0.021060
  C      6.771730   -3.941680   -0.272350
  C      5.384970   -3.974120   -0.564910
  C      4.781870   -2.709620   -0.570000
  S      4.783210   -5.608250   -0.853650
  C      6.394620   -6.230780   -0.583610
  C      7.334230   -5.233620   -0.287710
  N      8.574180   -5.799740   -0.067370
  C      9.625170   -4.980290    0.529950
  C     10.387430   -4.120560   -0.476470
  C      8.455330   -7.187610   -0.249490
  C      7.073500   -7.465160   -0.549870
  C      6.626920   -8.807270   -0.718270
  N      5.400190   -9.314560   -0.918950
  N      5.615680  -10.625110   -0.961630
  C      4.511780  -11.576070   -1.002980
  C      4.064140  -11.989590    0.398370
  N      6.870030  -11.030080   -0.794920
  C      7.547990   -9.882130   -0.639650
  C      8.934210   -9.624800   -0.432600
  C      9.403740   -8.274510   -0.232850
  N     10.799700   -8.332210   -0.119550
  C     11.807120   -7.306300    0.115510
  C     12.194920   -7.174220    1.588610
  C     11.189430   -9.651500   -0.227720
  C     10.063740  -10.465890   -0.422240
  S     10.460420  -12.155220   -0.640940
  C     12.172790  -11.750940   -0.466310
  C     12.403990  -10.370430   -0.246530
  S     14.093210   -9.997820   -0.094810
  C     14.512000  -11.709080   -0.341140
  C     13.353170  -12.493820   -0.515600
  C     15.796690  -12.304860   -0.403060
  C     17.085660  -11.823240   -0.287160
  C     18.312040  -12.625050   -0.384350
  C     18.465980  -13.968050   -0.684700
  C     19.765620  -14.559100   -0.729840
  N     20.828030  -15.029320   -0.764380
  C     17.392380  -14.857920   -0.990690
  N     16.538540  -15.604100   -1.248410
  C     19.436200  -11.712950   -0.122910
  C     20.808390  -11.779110   -0.026660
  S     21.467990  -10.206850    0.300830
  C     19.905290   -9.452920    0.313910
  C     18.933500  -10.385280    0.078470
  C     17.457200  -10.402780   -0.019480
  O     16.698220   -9.455170    0.095850
  H      3.605690    4.624860   -2.104150
  H      0.235920    1.771030   -0.774530
  H      6.526340    0.265760   -0.438340
  H      3.739000   -2.522980   -0.817250
  H     10.290750   -5.626530    1.105580
  H      9.137280   -4.328680    1.272610
  H     11.151070   -3.523250    0.046030
  H      9.712490   -3.423990   -0.995880
  H     10.884870   -4.728610   -1.246600
  H      4.864030  -12.441510   -1.581000
  H      3.701260  -11.084040   -1.557170
  H      4.897050  -12.455290    0.946560
  H      3.240090  -12.716650    0.335770
  H      3.711310  -11.115930    0.966960
  H     11.458450   -6.365790   -0.313110
  H     12.691580   -7.584690   -0.477610
  H     11.315890   -6.984640    2.223410
  H     12.911330   -6.350630    1.730530
  H     12.670790   -8.098490    1.947710
  H     13.415230  -13.568950   -0.690660
  H     15.710960  -13.376850   -0.588490
  H     21.469400  -12.636040   -0.132280
  H     19.793910   -8.386300    0.501500

----------------------------
CARTESIAN COORDINATES (A.U.)
----------------------------
  NO LB      ZA    FRAG     MASS         X           Y           Z
   0 C     6.0000    0    12.011    9.116077    3.754054   -1.750756
   1 O     8.0000    0    15.999   11.209043    4.620910   -2.104116
   2 C     6.0000    0    12.011    6.622054    4.916784   -2.269523
   3 C     6.0000    0    12.011    5.742859    7.136343   -3.258871
   4 S    16.0000    0    32.060    2.464222    7.157640   -3.240370
   5 C     6.0000    0    12.011    2.277914    4.177202   -1.883755
   6 C     6.0000    0    12.011    4.659989    3.211665   -1.485495
   7 C     6.0000    0    12.011    5.807336    0.938910   -0.356799
   8 C     6.0000    0    12.011    4.489177   -0.805704    1.090126
   9 C     6.0000    0    12.011    1.793463   -0.735349    1.196310
  10 N     7.0000    0    14.007   -0.402077   -0.656321    1.210861
  11 C     6.0000    0    12.011    5.701020   -2.584238    2.702989
  12 N     7.0000    0    14.007    6.701158   -4.000569    4.052574
  13 C     6.0000    0    12.011    8.519944    1.137313   -0.759216
  14 C     6.0000    0    12.011   10.530518   -0.510510   -0.633474
  15 C     6.0000    0    12.011   10.757398   -3.175987   -0.559416
  16 S    16.0000    0    32.060   13.840241   -4.393632   -0.039798
  17 C     6.0000    0    12.011   12.796715   -7.448696   -0.514667
  18 C     6.0000    0    12.011   10.176119   -7.509998   -1.067525
  19 C     6.0000    0    12.011    9.036425   -5.120440   -1.077144
  20 S    16.0000    0    32.060    9.038957  -10.598057   -1.613165
  21 C     6.0000    0    12.011   12.084081  -11.774468   -1.102863
  22 C     6.0000    0    12.011   13.859686   -9.890108   -0.543693
  23 N     7.0000    0    14.007   16.202852  -10.959920   -0.127311
  24 C     6.0000    0    12.011   18.188935   -9.411384    1.001460
  25 C     6.0000    0    12.011   19.629398   -7.786730   -0.900398
  26 C     6.0000    0    12.011   15.978258  -13.582614   -0.471468
  27 C     6.0000    0    12.011   13.366978  -14.107108   -1.039104
  28 C     6.0000    0    12.011   12.523064  -16.643328   -1.357334
  29 N     7.0000    0    14.007   10.204880  -17.601967   -1.736564
  30 N     7.0000    0    14.007   10.612097  -20.078548   -1.817217
  31 C     6.0000    0    12.011    8.526029  -21.875602   -1.895358
  32 C     6.0000    0    12.011    7.680112  -22.657042    0.752810
  33 N     7.0000    0    14.007   12.982475  -20.843830   -1.502181
  34 C     6.0000    0    12.011   14.263634  -18.674519   -1.208763
  35 C     6.0000    0    12.011   16.883210  -18.188236   -0.817496
  36 C     6.0000    0    12.011   17.770493  -15.636558   -0.440023
  37 N     7.0000    0    14.007   20.408475  -15.745595   -0.225917
  38 C     6.0000    0    12.011   22.312223  -13.806906    0.218282
  39 C     6.0000    0    12.011   23.045059  -13.557311    3.002038
  40 C     6.0000    0    12.011   21.144958  -18.238692   -0.430328
  41 C     6.0000    0    12.011   19.017712  -19.777666   -0.797918
  42 S    16.0000    0    32.060   19.767329  -22.970037   -1.211201
  43 C     6.0000    0    12.011   23.003239  -22.206058   -0.881198
  44 C     6.0000    0    12.011   23.440144  -19.597273   -0.465874
  45 S    16.0000    0    32.060   26.632307  -18.893142   -0.179165
  46 C     6.0000    0    12.011   27.423706  -22.126954   -0.644661
  47 C     6.0000    0    12.011   25.233834  -23.609898   -0.974343
  48 C     6.0000    0    12.011   29.851418  -23.252816   -0.761673
  49 C     6.0000    0    12.011   32.287218  -22.342686   -0.542654
  50 C     6.0000    0    12.011   34.604741  -23.857887   -0.726316
  51 C     6.0000    0    12.011   34.895645  -26.395789   -1.293895
  52 C     6.0000    0    12.011   37.351609  -27.512712   -1.379198
  53 N     7.0000    0    14.007   39.359273  -28.401299   -1.444469
  54 C     6.0000    0    12.011   32.866835  -28.077400   -1.872133
  55 N     7.0000    0    14.007   31.253311  -29.487476   -2.359153
  56 C     6.0000    0    12.011   36.729095  -22.134268   -0.232266
  57 C     6.0000    0    12.011   39.322158  -22.259292   -0.050380
  58 S    16.0000    0    32.060   40.568622  -19.288151    0.568486
  59 C     6.0000    0    12.011   37.615547  -17.863430    0.593204
  60 C     6.0000    0    12.011   35.779130  -19.625335    0.148287
  61 C     6.0000    0    12.011   32.989327  -19.658405   -0.036812
  62 O     8.0000    0    15.999   31.555063  -17.867682    0.181130
  63 H     1.0000    0     1.008    6.813767    8.739719   -3.976267
  64 H     1.0000    0     1.008    0.445824    3.346762   -1.463650
  65 H     1.0000    0     1.008   12.332995    0.502214   -0.828343
  66 H     1.0000    0     1.008    7.065686   -4.767741   -1.544379
  67 H     1.0000    0     1.008   19.446699  -10.632601    2.089243
  68 H     1.0000    0     1.008   17.266957   -8.180020    2.404884
  69 H     1.0000    0     1.008   21.072468   -6.657978    0.086984
  70 H     1.0000    0     1.008   18.353946   -6.470403   -1.881940
  71 H     1.0000    0     1.008   20.569423   -8.935778   -2.355733
  72 H     1.0000    0     1.008    9.191685  -23.511047   -2.987657
  73 H     1.0000    0     1.008    6.994368  -20.945800   -2.942625
  74 H     1.0000    0     1.008    9.254083  -23.537087    1.788739
  75 H     1.0000    0     1.008    6.122883  -24.030986    0.634513
  76 H     1.0000    0     1.008    7.013359  -21.006063    1.827290
  77 H     1.0000    0     1.008   21.653332  -12.029600   -0.591692
  78 H     1.0000    0     1.008   23.983610  -14.332987   -0.902552
  79 H     1.0000    0     1.008   21.383933  -13.199057    4.201636
  80 H     1.0000    0     1.008   24.398878  -12.000951    3.270228
  81 H     1.0000    0     1.008   23.944323  -15.303928    3.680638
  82 H     1.0000    0     1.008   25.351111  -25.641599   -1.305158
  83 H     1.0000    0     1.008   29.689412  -25.278583   -1.112085
  84 H     1.0000    0     1.008   40.571286  -23.878655   -0.249973
  85 H     1.0000    0     1.008   37.405069  -15.847810    0.947698

--------------------------------
INTERNAL COORDINATES (ANGSTROEM)
--------------------------------
 C      0   0   0     0.000000000000     0.00000000     0.00000000
 O      1   0   0     1.213283273189     0.00000000     0.00000000
 C      1   2   0     1.481810467941   128.86548583     0.00000000
 C      3   1   2     1.367514499265   136.93451048     0.95113037
 S      4   3   1     1.735044223471   110.09769446   180.48924598
 C      5   4   3     1.735679346135    93.05137074     0.26190128
 C      6   5   4     1.376385243200   110.40350952   359.56714041
 C      7   6   5     1.473715629625   137.92916071   176.75667443
 C      8   7   6     1.387495808318   124.02454562   348.55022674
 C      9   8   7     1.428101596211   120.43359539    11.48754589
 N     10   9   8     1.162607909529   178.04090678    35.06456794
 C      9   8   7     1.423189152608   122.98575712   197.30249281
 N     12   9   8     1.162703578519   178.70488923    73.88983831
 C      8   7   6     1.454952681396   106.75350827   176.45916751
 C     14   8   7     1.377237718842   135.18693968   195.58571459
 C     15  14   8     1.416152788297   134.22294960    15.35031274
 S     16  15  14     1.775433327472   116.33796466   186.83786253
 C     17  16  15     1.726761256544    91.34096958   186.02898392
 C     18  17  16     1.417655460540   111.36339931     0.37256712
 C     19  18  17     1.400969581433   113.65332875   359.36059648
 S     19  18  17     1.765181787267   112.85601981   179.11934868
 C     21  19  18     1.748458575603    89.43640789   359.87294639
 C     22  21  19     1.401696053965   113.39762457     0.06613539
 N     23  22  21     1.380767023252   110.11990675   179.07782027
 C     24  23  22     1.460434683579   118.78105202   192.87415919
 C     25  24  23     1.527434842113   113.92027491   275.94525686
 C     24  23  22     1.404804667489   107.96279162     1.27780762
 C     22  21  19     1.409152378701   139.42778269   178.91369220
 C     28  22  21     1.424447790725   132.18062721   358.34821059
 N     29  28  22     1.342565491661   131.31076239   357.42351628
 N     30  29  28     1.328833633304   103.25467866   181.63627019
 C     31  30  29     1.457611043489   121.43503410   172.38099198
 C     32  31  30     1.528123745807   111.86252853   270.30988336
 N     31  30  29     1.328603344682   116.72356644     0.61782774
 C     34  31  30     1.342210019706   103.33827742   359.42023595
 C     35  34  31     1.425024322529   131.49883809   180.57245397
 C     27  24  23     1.442605291721   133.41128617   175.81616147
 N     37  27  24     1.401738385577   133.36663869   354.83929769
 C     38  37  27     1.456928134158   132.27374011     4.86076114
 C     39  38  37     1.529005420657   113.05684383    95.34759187
 C     38  37  27     1.379897215701   108.31789129   182.81884568
 C     41  38  37     1.402942293396   109.83065456     0.46447873
 S     42  41  38     1.749005592129   113.33063768   177.50554808
 C     43  42  41     1.768091901514    89.22382362     0.00000000
 C     41  38  37     1.411513427000   136.97295938   177.30869740
 S     45  41  38     1.736468075981   136.60188094     2.34696062
 C     46  45  41     1.778896939286    90.60139770   181.60039025
 C     44  43  42     1.395563378317   133.94352496   181.19279689
 C     47  46  45     1.417468268040   128.59044851   178.01523774
 C     49  47  46     1.380881709380   134.08621138     0.97813514
 C     50  49  47     1.468452612991   125.70187283   179.98290432
 C     51  50  49     1.384758695983   129.55026121     4.42915807
 C     52  51  50     1.428440356368   120.61674674   179.90321557
 N     53  52  51     1.162331651509   179.40928910   357.02951130
 C     52  51  50     1.427625811268   124.57005686     1.03601678
 N     55  52  51     1.162861529332   178.47816031   170.30614887
 C     51  50  49     1.471058458798   106.73203472   183.18444645
 C     57  51  50     1.377151627164   138.07888627   178.28829027
 S     58  57  51     1.736180684059   110.37869179   179.24564105
 C     59  58  57     1.735111760464    93.02362186     0.12092800
 C     60  59  58     1.367151406136   110.03279687     0.14234166
 C     61  60  59     1.479649330923   136.77506414   179.08078135
 O     62  61  60     1.219555804955   127.26357874     0.69029183
 H      4   3   1     1.088654751425   128.74072195     0.10175644
 H      6   5   4     1.087413577532   120.16026101   179.21299168
 H     15  14   8     1.098919893077   110.93015252   188.02892150
 H     20  19  18     1.087908492935   124.63443596   177.04163300
 H     25  24  23     1.091775055082   108.79810672   150.08074658
 H     25  24  23     1.101896601229   106.78795517    36.83646424
 H     26  25  24     1.101331710113   109.79760952   179.25251493
 H     26  25  24     1.100245661932   111.17796988    60.03078665
 H     26  25  24     1.100123435347   112.07421356   299.98978626
 H     32  31  30     1.098714510917   106.61947760   148.42757170
 H     32  31  30     1.098254409233   106.31673947    32.34131703
 H     33  32  31     1.100512532505   110.46319344   300.50819237
 H     33  32  31     1.100724037214   110.23632980   180.74793193
 H     33  32  31     1.100484162812   110.66461588    60.98465178
 H     39  38  37     1.090800134488   108.82741610   329.37514801
 H     39  38  37     1.100709688383   106.89308535   216.16241809
 H     40  39  38     1.100729465991   111.58953965   304.28776984
 H     40  39  38     1.100765671067   110.72695587   183.37665506
 H     40  39  38     1.099854581206   110.59158065    63.99607730
 H     48  44  43     1.091055435851   125.33266200     0.02480962
 H     49  47  46     1.091282034077   110.43257528   181.32064185
 H     58  57  51     1.087390835624   129.55116222   359.73798663
 H     60  59  58     1.088702777116   121.27449909   179.50189378

---------------------------
INTERNAL COORDINATES (A.U.)
---------------------------
 C      0   0   0     0.000000000000     0.00000000     0.00000000
 O      1   0   0     2.292773109195     0.00000000     0.00000000
 C      1   2   0     2.800215966786   128.86548583     0.00000000
 C      3   1   2     2.584227887777   136.93451048     0.95113037
 S      4   3   1     3.278758412602   110.09769446   180.48924598
 C      5   4   3     3.279958620499    93.05137074     0.26190128
 C      6   5   4     2.600991164419   110.40350952   359.56714041
 C      7   6   5     2.784918939270   137.92916071   176.75667443
 C      8   7   6     2.621987089685   124.02454562   348.55022674
 C      9   8   7     2.698720908254   120.43359539    11.48754589
 N     10   9   8     2.197010550141   178.04090678    35.06456794
 C      9   8   7     2.689437735196   122.98575712   197.30249281
 N     12   9   8     2.197191338330   178.70488923    73.88983831
 C      8   7   6     2.749462105652   106.75350827   176.45916751
 C     14   8   7     2.602602109917   135.18693968   195.58571459
 C     15  14   8     2.676140933669   134.22294960    15.35031274
 S     16  15  14     3.355082757960   116.33796466   186.83786253
 C     17  16  15     3.263105873533    91.34096958   186.02898392
 C     18  17  16     2.678980572679   111.36339931     0.37256712
 C     19  18  17     2.647448830862   113.65332875   359.36059648
 S     19  18  17     3.335710154521   112.85601981   179.11934868
 C     21  19  18     3.304107864396    89.43640789   359.87294639
 C     22  21  19     2.648821664991   113.39762457     0.06613539
 N     23  22  21     2.609271528696   110.11990675   179.07782027
 C     24  23  22     2.759821588444   118.78105202   192.87415919
 C     25  24  23     2.886433539002   113.92027491   275.94525686
 C     24  23  22     2.654696093209   107.96279162     1.27780762
 C     22  21  19     2.662912076709   139.42778269   178.91369220
 C     28  22  21     2.691816216539   132.18062721   358.34821059
 N     29  28  22     2.537081096093   131.31076239   357.42351628
 N     30  29  28     2.511131644488   103.25467866   181.63627019
 C     31  30  29     2.754485681973   121.43503410   172.38099198
 C     32  31  30     2.887735378318   111.86252853   270.30988336
 N     31  30  29     2.510696462061   116.72356644     0.61782774
 C     34  31  30     2.536409351450   103.33827742   359.42023595
 C     35  34  31     2.692905703757   131.49883809   180.57245397
 C     27  24  23     2.726128920697   133.41128617   175.81616147
 N     37  27  24     2.648901660145   133.36663869   354.83929769
 C     38  37  27     2.753195170363   132.27374011     4.86076114
 C     39  38  37     2.889401502324   113.05684383    95.34759187
 C     38  37  27     2.607627830636   108.31789129   182.81884568
 C     41  38  37     2.651176716214   109.83065456     0.46447873
 S     42  41  38     3.305141575821   113.33063768   177.50554808
 C     43  42  41     3.341209473466    89.22382362     0.00000000
 C     41  38  37     2.667373811382   136.97295938   177.30869740
 S     45  41  38     3.281449103901   136.60188094     2.34696062
 C     46  45  41     3.361628035721    90.60139770   181.60039025
 C     44  43  42     2.637232587549   133.94352496   181.19279689
 C     47  46  45     2.678626830119   128.59044851   178.01523774
 C     49  47  46     2.609488254069   134.08621138     0.97813514
 C     50  49  47     2.774973279194   125.70187283   179.98290432
 C     51  50  49     2.616814696973   129.55026121     4.42915807
 C     52  51  50     2.699361072176   120.61674674   179.90321557
 N     53  52  51     2.196488498141   179.40928910   357.02951130
 C     52  51  50     2.697821805015   124.57005686     1.03601678
 N     55  52  51     2.197489822110   178.47816031   170.30614887
 C     51  50  49     2.779897614116   106.73203472   183.18444645
 C     57  51  50     2.602439420224   138.07888627   178.28829027
 S     58  57  51     3.280906011876   110.37869179   179.24564105
 C     59  58  57     3.278886039023    93.02362186     0.12092800
 C     60  59  58     2.583541741203   110.03279687     0.14234166
 C     61  60  59     2.796132009684   136.77506414   179.08078135
 O     62  61  60     2.304626476399   127.26357874     0.69029183
 H      4   3   1     2.057259334585   128.74072195     0.10175644
 H      6   5   4     2.054913855842   120.16026101   179.21299168
 H     15  14   8     2.076657641033   110.93015252   188.02892150
 H     20  19  18     2.055849110414   124.63443596   177.04163300
 H     25  24  23     2.063155853952   108.79810672   150.08074658
 H     25  24  23     2.082282804221   106.78795517    36.83646424
 H     26  25  24     2.081215314716   109.79760952   179.25251493
 H     26  25  24     2.079162981086   111.17796988    60.03078665
 H     26  25  24     2.078932006315   112.07421356   299.98978626
 H     32  31  30     2.076269524999   106.61947760   148.42757170
 H     32  31  30     2.075400058822   106.31673947    32.34131703
 H     33  32  31     2.079667293382   110.46319344   300.50819237
 H     33  32  31     2.080066979358   110.23632980   180.74793193
 H     33  32  31     2.079613682432   110.66461588    60.98465178
 H     39  38  37     2.061313521028   108.82741610   329.37514801
 H     39  38  37     2.080039863998   106.89308535   216.16241809
 H     40  39  38     2.080077238260   111.58953965   304.28776984
 H     40  39  38     2.080145655939   110.72695587   183.37665506
 H     40  39  38     2.078423945618   110.59158065    63.99607730
 H     48  44  43     2.061795970684   125.33266200     0.02480962
 H     49  47  46     2.062224179275   110.43257528   181.32064185
 H     58  57  51     2.054870879866   129.55116222   359.73798663
 H     60  59  58     2.057350089989   121.27449909   179.50189378

---------------------
BASIS SET INFORMATION
---------------------
There are 5 groups of distinct atoms

 Group   1 Type C   : 7s4p1d contracted to 3s2p1d pattern {511/31/1}
 Group   2 Type O   : 7s4p1d contracted to 3s2p1d pattern {511/31/1}
 Group   3 Type S   : 10s7p1d contracted to 4s3p1d pattern {5311/511/1}
 Group   4 Type N   : 7s4p1d contracted to 3s2p1d pattern {511/31/1}
 Group   5 Type H   : 4s1p contracted to 2s1p pattern {31/1}

Atom   0C    basis set group =>   1
Atom   1O    basis set group =>   2
Atom   2C    basis set group =>   1
Atom   3C    basis set group =>   1
Atom   4S    basis set group =>   3
Atom   5C    basis set group =>   1
Atom   6C    basis set group =>   1
Atom   7C    basis set group =>   1
Atom   8C    basis set group =>   1
Atom   9C    basis set group =>   1
Atom  10N    basis set group =>   4
Atom  11C    basis set group =>   1
Atom  12N    basis set group =>   4
Atom  13C    basis set group =>   1
Atom  14C    basis set group =>   1
Atom  15C    basis set group =>   1
Atom  16S    basis set group =>   3
Atom  17C    basis set group =>   1
Atom  18C    basis set group =>   1
Atom  19C    basis set group =>   1
Atom  20S    basis set group =>   3
Atom  21C    basis set group =>   1
Atom  22C    basis set group =>   1
Atom  23N    basis set group =>   4
Atom  24C    basis set group =>   1
Atom  25C    basis set group =>   1
Atom  26C    basis set group =>   1
Atom  27C    basis set group =>   1
Atom  28C    basis set group =>   1
Atom  29N    basis set group =>   4
Atom  30N    basis set group =>   4
Atom  31C    basis set group =>   1
Atom  32C    basis set group =>   1
Atom  33N    basis set group =>   4
Atom  34C    basis set group =>   1
Atom  35C    basis set group =>   1
Atom  36C    basis set group =>   1
Atom  37N    basis set group =>   4
Atom  38C    basis set group =>   1
Atom  39C    basis set group =>   1
Atom  40C    basis set group =>   1
Atom  41C    basis set group =>   1
Atom  42S    basis set group =>   3
Atom  43C    basis set group =>   1
Atom  44C    basis set group =>   1
Atom  45S    basis set group =>   3
Atom  46C    basis set group =>   1
Atom  47C    basis set group =>   1
Atom  48C    basis set group =>   1
Atom  49C    basis set group =>   1
Atom  50C    basis set group =>   1
Atom  51C    basis set group =>   1
Atom  52C    basis set group =>   1
Atom  53N    basis set group =>   4
Atom  54C    basis set group =>   1
Atom  55N    basis set group =>   4
Atom  56C    basis set group =>   1
Atom  57C    basis set group =>   1
Atom  58S    basis set group =>   3
Atom  59C    basis set group =>   1
Atom  60C    basis set group =>   1
Atom  61C    basis set group =>   1
Atom  62O    basis set group =>   2
Atom  63H    basis set group =>   5
Atom  64H    basis set group =>   5
Atom  65H    basis set group =>   5
Atom  66H    basis set group =>   5
Atom  67H    basis set group =>   5
Atom  68H    basis set group =>   5
Atom  69H    basis set group =>   5
Atom  70H    basis set group =>   5
Atom  71H    basis set group =>   5
Atom  72H    basis set group =>   5
Atom  73H    basis set group =>   5
Atom  74H    basis set group =>   5
Atom  75H    basis set group =>   5
Atom  76H    basis set group =>   5
Atom  77H    basis set group =>   5
Atom  78H    basis set group =>   5
Atom  79H    basis set group =>   5
Atom  80H    basis set group =>   5
Atom  81H    basis set group =>   5
Atom  82H    basis set group =>   5
Atom  83H    basis set group =>   5
Atom  84H    basis set group =>   5
Atom  85H    basis set group =>   5
------------------------------------------------------------------------------
                           ORCA GTO INTEGRAL CALCULATION
------------------------------------------------------------------------------

                         BASIS SET STATISTICS AND STARTUP INFO

 # of primitive gaussian shells          ...  907
 # of primitive gaussian functions       ... 1745
 # of contracted shells                  ...  459
 # of contracted basis functions         ... 1021
 Highest angular momentum                ...    2
 Maximum contraction depth               ...    5
 Integral package used                   ... LIBINT
 Integral threshhold            Thresh   ...  2.500e-11
 Primitive cut-off              TCut     ...  2.500e-12


------------------------------ INTEGRAL EVALUATION ----------------------------


 * One electron integrals 
 Pre-screening matrix                    ... done
 Shell pair data                         ... done (   0.014 sec)

-------------------------------------------------------------------------------
                                 ORCA SCF
-------------------------------------------------------------------------------

------------
SCF SETTINGS
------------
Hamiltonian:
 Ab initio Hamiltonian  Method          .... Hartree-Fock(GTOs)


General Settings:
 Integral files         IntName         .... Y2
 Hartree-Fock type      HFTyp           .... RHF
 Total Charge           Charge          ....    0
 Multiplicity           Mult            ....    1
 Number of Electrons    NEL             ....  474
 Basis Dimension        Dim             .... 1021
 Nuclear Repulsion      ENuc            ....   9110.5440964861 Eh

Convergence Acceleration:
 DIIS                   CNVDIIS         .... on
   Start iteration      DIISMaxIt       ....    12
   Startup error        DIISStart       ....  0.200000
   # of expansion vecs  DIISMaxEq       ....     5
   Bias factor          DIISBfac        ....   1.050
   Max. coefficient     DIISMaxC        ....  10.000
 Newton-Raphson         CNVNR           .... off
 SOSCF                  CNVSOSCF        .... on
   Start iteration      SOSCFMaxIt      ....   150
   Startup grad/error   SOSCFStart      ....  0.003300
 Level Shifting         CNVShift        .... on
   Level shift para.    LevelShift      ....    0.2500
   Turn off err/grad.   ShiftErr        ....    0.0010
 Zerner damping         CNVZerner       .... off
 Static damping         CNVDamp         .... on
   Fraction old density DampFac         ....    0.7000
   Max. Damping (<1)    DampMax         ....    0.9800
   Min. Damping (>=0)   DampMin         ....    0.0000
   Turn off err/grad.   DampErr         ....    0.1000
 Fernandez-Rico         CNVRico         .... off

SCF Procedure:
 Maximum # iterations   MaxIter         ....   125
 SCF integral mode      SCFMode         .... Direct
   Integral package                     .... LIBINT
 Reset frequency        DirectResetFreq ....    20
 Integral Threshold     Thresh          ....  2.500e-11 Eh
 Primitive CutOff       TCut            ....  2.500e-12 Eh

Convergence Tolerance:
 Convergence Check Mode ConvCheckMode   .... Total+1el-Energy
 Convergence forced     ConvForced      .... 1
 Energy Change          TolE            ....  1.000e-08 Eh
 1-El. energy change                    ....  1.000e-05 Eh
 Orbital Gradient       TolG            ....  1.000e-05
 Orbital Rotation angle TolX            ....  1.000e-05
 DIIS Error             TolErr          ....  5.000e-07


Diagonalization of the overlap matrix:
Smallest eigenvalue                        ... 9.829e-05
Time for diagonalization                   ...    0.236 sec
Threshold for overlap eigenvalues          ... 1.000e-08
Number of eigenvalues below threshold      ... 0
Time for construction of square roots      ...    0.106 sec
Total time needed                          ...    0.345 sec

-------------------
DFT GRID GENERATION
-------------------

General Integration Accuracy     IntAcc      ...  4.340
Radial Grid Type                 RadialGrid  ... Gauss-Chebyshev
Angular Grid (max. acc.)         AngularGrid ... Lebedev-110
Angular grid pruning method      GridPruning ... 3 (G Style)
Weight generation scheme         WeightScheme... Becke
Basis function cutoff            BFCut       ...    1.0000e-11
Integration weight cutoff        WCut        ...    1.0000e-14
Grids for H and He will be reduced by one unit

# of grid points (after initial pruning)     ... 124024 (   0.2 sec)
# of grid points (after weights+screening)   ... 109476 (   4.6 sec)
nearest neighbour list constructed           ...    0.0 sec
Grid point re-assignment to atoms done       ...    0.0 sec
Grid point division into batches done        ...    0.1 sec
Reduced shell lists constructed in    1.8 sec

Total number of grid points                  ...   109476
Total number of batches                      ...     1752
Average number of points per batch           ...       62
Average number of grid points per atom       ...     1273
Average number of shells per batch           ...    99.54 (21.69%)
Average number of basis functions per batch  ...   210.31 (20.60%)
Average number of large shells per batch     ...    61.34 (61.63%)
Average number of large basis fcns per batch ...   131.47 (62.51%)
Maximum spatial batch extension              ...  20.80, 21.35, 23.68 au
Average spatial batch extension              ...   3.09,  3.19,  4.00 au

Time for grid setup =    6.561 sec

------------------------------
INITIAL GUESS: MODEL POTENTIAL
------------------------------
Loading Hartree-Fock densities                     ... done
Calculating cut-offs                               ... done
Setting up the integral package                    ... done
Initializing the effective Hamiltonian             ... done
Starting the Coulomb interaction                   ... done (   6.6 sec)
Reading the grid                                   ... done
Mapping shells                                     ... done
Starting the XC term evaluation                    ... done (   1.9 sec)
Transforming the Hamiltonian                       ... done (   0.1 sec)
Diagonalizing the Hamiltonian                      ... done (   0.2 sec)
Back transforming the eigenvectors                 ... done (   0.0 sec)
Now organizing SCF variables                       ... done
                      ------------------
                      INITIAL GUESS DONE (  15.7 sec)
                      ------------------
--------------
SCF ITERATIONS
--------------
ITER       Energy         Delta-E        Max-DP      RMS-DP      [F,P]     Damp
               ***  Starting incremental Fock matrix formation  ***
  0  -4775.5431243922   0.000000000000 0.08718298  0.00146583  0.2454987 0.7000
  1  -4776.1996332104  -0.656508818232 0.06494791  0.00112573  0.1505651 0.7000
                               ***Turning on DIIS***
  2  -4776.5956806600  -0.396047449583 0.15568228  0.00261928  0.0871065 0.0000
  3  -4774.3534921732   2.242188486796 0.06392933  0.00057813  0.0509726 0.0000
  4  -4777.7518324910  -3.398340317839 0.01575892  0.00023798  0.0150131 0.0000
  5  -4777.6178715190   0.133960972018 0.00717716  0.00011521  0.0082412 0.0000
  6  -4777.3839783531   0.233893165894 0.00556166  0.00007464  0.0027806 0.0000
  7  -4777.4709148625  -0.086936509433 0.00413324  0.00004504  0.0020713 0.0000
                      *** Initiating the SOSCF procedure ***
                           *** Shutting down DIIS ***
                      *** Re-Reading the Fockian *** 
                      *** Removing any level shift *** 
ITER      Energy       Delta-E        Grad      Rot      Max-DP    RMS-DP
  8  -4777.45145906   0.0194558040  0.002699  0.002699  0.002817  0.000031
               *** Restarting incremental Fock matrix formation ***
  9  -4777.46103565  -0.0095765963  0.001352  0.005718  0.001485  0.000017
 10  -4777.46110490  -0.0000692439  0.000488  0.005728  0.001760  0.000022
 11  -4777.46113156  -0.0000266628  0.000212  0.000461  0.000434  0.000005
 12  -4777.46113583  -0.0000042671  0.000099  0.000510  0.000166  0.000002
 13  -4777.46113659  -0.0000007648  0.000018  0.000056  0.000095  0.000001
 14  -4777.46113670  -0.0000001040  0.000010  0.000040  0.000044  0.000000
 15  -4777.46113672  -0.0000000187  0.000004  0.000022  0.000019  0.000000
                  ***Gradient check signals convergence***
              ***Rediagonalizing the Fockian in SOSCF/NRSCF***

               *****************************************************
               *                     SUCCESS                       *
               *           SCF CONVERGED AFTER  16 CYCLES          *
               *****************************************************


----------------
TOTAL SCF ENERGY
----------------

Total Energy       :        -4777.46113673 Eh         -130001.32667 eV

Components:
Nuclear Repulsion  :         9110.54409649 Eh          247910.50839 eV
Electronic Energy  :       -13888.00523322 Eh         -377911.83506 eV
One Electron Energy:       -24699.59376024 Eh         -672110.11563 eV
Two Electron Energy:        10811.58852702 Eh          294198.28057 eV

Virial components:
Potential Energy   :        -9542.82193109 Eh         -259673.38628 eV
Kinetic Energy     :         4765.36079436 Eh          129672.05961 eV
Virial Ratio       :            2.00253923


---------------
SCF CONVERGENCE
---------------

  Last Energy change         ...   -1.5314e-08  Tolerance :   1.0000e-08
  Last MAX-Density change    ...    1.1657e-05  Tolerance :   1.0000e-07
  Last RMS-Density change    ...    1.0938e-07  Tolerance :   5.0000e-09
  Last Orbital Gradient      ...    1.6164e-06  Tolerance :   1.0000e-05
  Last Orbital Rotation      ...    1.3695e-05  Tolerance :   1.0000e-05

             **** THE GBW FILE WAS UPDATED (Y2.gbw) ****
             **** DENSITY FILE WAS UPDATED (Y2.scfp) ****
             **** ENERGY FILE WAS UPDATED (Y2.en.tmp) ****
             **** THE GBW FILE WAS UPDATED (Y2.gbw) ****
             **** DENSITY FILE WAS UPDATED (Y2.scfp) ****
----------------
ORBITAL ENERGIES
----------------

  NO   OCC          E(Eh)            E(eV) 
   0   2.0000     -91.991473     -2503.2152 
   1   2.0000     -91.990884     -2503.1992 
   2   2.0000     -91.987951     -2503.1194 
   3   2.0000     -91.983467     -2502.9974 
   4   2.0000     -91.975288     -2502.7748 
   5   2.0000     -91.973950     -2502.7384 
   6   2.0000     -20.564886      -559.5990 
   7   2.0000     -20.560705      -559.4852 
   8   2.0000     -15.699820      -427.2138 
   9   2.0000     -15.650896      -425.8825 
  10   2.0000     -15.650379      -425.8685 
  11   2.0000     -15.621043      -425.0702 
  12   2.0000     -15.620315      -425.0504 
  13   2.0000     -15.593266      -424.3143 
  14   2.0000     -15.591755      -424.2732 
  15   2.0000     -15.591273      -424.2601 
  16   2.0000     -15.587878      -424.1677 
  17   2.0000     -11.367698      -309.3308 
  18   2.0000     -11.364512      -309.2441 
  19   2.0000     -11.345738      -308.7332 
  20   2.0000     -11.344755      -308.7065 
  21   2.0000     -11.332212      -308.3652 
  22   2.0000     -11.331186      -308.3373 
  23   2.0000     -11.324341      -308.1510 
  24   2.0000     -11.323001      -308.1145 
  25   2.0000     -11.322327      -308.0962 
  26   2.0000     -11.320158      -308.0372 
  27   2.0000     -11.318522      -307.9927 
  28   2.0000     -11.315751      -307.9172 
  29   2.0000     -11.315034      -307.8977 
  30   2.0000     -11.313672      -307.8607 
  31   2.0000     -11.313233      -307.8487 
  32   2.0000     -11.312995      -307.8422 
  33   2.0000     -11.312851      -307.8383 
  34   2.0000     -11.312827      -307.8377 
  35   2.0000     -11.309301      -307.7417 
  36   2.0000     -11.307625      -307.6961 
  37   2.0000     -11.306709      -307.6712 
  38   2.0000     -11.306338      -307.6611 
  39   2.0000     -11.306297      -307.6600 
  40   2.0000     -11.305438      -307.6366 
  41   2.0000     -11.304991      -307.6244 
  42   2.0000     -11.304292      -307.6054 
  43   2.0000     -11.301186      -307.5209 
  44   2.0000     -11.300925      -307.5138 
  45   2.0000     -11.300815      -307.5108 
  46   2.0000     -11.297225      -307.4131 
  47   2.0000     -11.297092      -307.4095 
  48   2.0000     -11.292967      -307.2973 
  49   2.0000     -11.292858      -307.2943 
  50   2.0000     -11.288223      -307.1682 
  51   2.0000     -11.287134      -307.1385 
  52   2.0000     -11.284594      -307.0694 
  53   2.0000     -11.283467      -307.0388 
  54   2.0000     -11.278895      -306.9143 
  55   2.0000     -11.278751      -306.9104 
  56   2.0000     -11.278118      -306.8932 
  57   2.0000     -11.277094      -306.8653 
  58   2.0000     -11.274244      -306.7878 
  59   2.0000     -11.273943      -306.7796 
  60   2.0000     -11.263937      -306.5073 
  61   2.0000     -11.261280      -306.4350 
  62   2.0000     -11.245257      -305.9990 
  63   2.0000      -9.027079      -245.6393 
  64   2.0000      -9.026506      -245.6237 
  65   2.0000      -9.022568      -245.5166 
  66   2.0000      -9.016335      -245.3469 
  67   2.0000      -9.009149      -245.1514 
  68   2.0000      -9.007824      -245.1154 
  69   2.0000      -6.714386      -182.7077 
  70   2.0000      -6.713815      -182.6922 
  71   2.0000      -6.713219      -182.6760 
  72   2.0000      -6.712648      -182.6604 
  73   2.0000      -6.711712      -182.6350 
  74   2.0000      -6.711136      -182.6193 
  75   2.0000      -6.710123      -182.5917 
  76   2.0000      -6.709064      -182.5629 
  77   2.0000      -6.707072      -182.5087 
  78   2.0000      -6.703512      -182.4118 
  79   2.0000      -6.702404      -182.3817 
  80   2.0000      -6.700435      -182.3281 
  81   2.0000      -6.696659      -182.2254 
  82   2.0000      -6.695825      -182.2027 
  83   2.0000      -6.695357      -182.1899 
  84   2.0000      -6.694519      -182.1671 
  85   2.0000      -6.693469      -182.1385 
  86   2.0000      -6.692146      -182.1026 
  87   2.0000      -1.453607       -39.5547 
  88   2.0000      -1.393324       -37.9143 
  89   2.0000      -1.390630       -37.8410 
  90   2.0000      -1.341647       -36.5081 
  91   2.0000      -1.327883       -36.1335 
  92   2.0000      -1.241170       -33.7740 
  93   2.0000      -1.240922       -33.7672 
  94   2.0000      -1.224613       -33.3234 
  95   2.0000      -1.223415       -33.2908 
  96   2.0000      -1.221590       -33.2412 
  97   2.0000      -1.220328       -33.2068 
  98   2.0000      -1.216104       -33.0919 
  99   2.0000      -1.215648       -33.0795 
 100   2.0000      -1.198038       -32.6003 
 101   2.0000      -1.181847       -32.1597 
 102   2.0000      -1.164261       -31.6811 
 103   2.0000      -1.163938       -31.6724 
 104   2.0000      -1.147287       -31.2193 
 105   2.0000      -1.144429       -31.1415 
 106   2.0000      -1.120206       -30.4824 
 107   2.0000      -1.102829       -30.0095 
 108   2.0000      -1.089042       -29.6343 
 109   2.0000      -1.081854       -29.4387 
 110   2.0000      -1.064478       -28.9659 
 111   2.0000      -1.060526       -28.8584 
 112   2.0000      -1.057092       -28.7649 
 113   2.0000      -1.044997       -28.4358 
 114   2.0000      -1.041850       -28.3502 
 115   2.0000      -1.023989       -27.8642 
 116   2.0000      -1.019598       -27.7447 
 117   2.0000      -1.019525       -27.7427 
 118   2.0000      -1.006597       -27.3909 
 119   2.0000      -1.000481       -27.2245 
 120   2.0000      -0.976153       -26.5625 
 121   2.0000      -0.969246       -26.3745 
 122   2.0000      -0.963317       -26.2132 
 123   2.0000      -0.939538       -25.5661 
 124   2.0000      -0.922895       -25.1132 
 125   2.0000      -0.918474       -24.9929 
 126   2.0000      -0.908727       -24.7277 
 127   2.0000      -0.905645       -24.6438 
 128   2.0000      -0.898062       -24.4375 
 129   2.0000      -0.876708       -23.8564 
 130   2.0000      -0.866433       -23.5768 
 131   2.0000      -0.852934       -23.2095 
 132   2.0000      -0.836454       -22.7611 
 133   2.0000      -0.832266       -22.6471 
 134   2.0000      -0.818774       -22.2800 
 135   2.0000      -0.808958       -22.0129 
 136   2.0000      -0.803488       -21.8640 
 137   2.0000      -0.799655       -21.7597 
 138   2.0000      -0.797150       -21.6916 
 139   2.0000      -0.783619       -21.3234 
 140   2.0000      -0.779085       -21.2000 
 141   2.0000      -0.773556       -21.0495 
 142   2.0000      -0.767037       -20.8721 
 143   2.0000      -0.759259       -20.6605 
 144   2.0000      -0.754338       -20.5266 
 145   2.0000      -0.750005       -20.4087 
 146   2.0000      -0.738630       -20.0991 
 147   2.0000      -0.735876       -20.0242 
 148   2.0000      -0.724249       -19.7078 
 149   2.0000      -0.720666       -19.6103 
 150   2.0000      -0.713177       -19.4065 
 151   2.0000      -0.707347       -19.2479 
 152   2.0000      -0.702260       -19.1095 
 153   2.0000      -0.692381       -18.8406 
 154   2.0000      -0.681069       -18.5328 
 155   2.0000      -0.676515       -18.4089 
 156   2.0000      -0.671876       -18.2827 
 157   2.0000      -0.665050       -18.0969 
 158   2.0000      -0.659323       -17.9411 
 159   2.0000      -0.651669       -17.7328 
 160   2.0000      -0.648056       -17.6345 
 161   2.0000      -0.645087       -17.5537 
 162   2.0000      -0.644031       -17.5250 
 163   2.0000      -0.639417       -17.3994 
 164   2.0000      -0.637096       -17.3363 
 165   2.0000      -0.628149       -17.0928 
 166   2.0000      -0.623629       -16.9698 
 167   2.0000      -0.620670       -16.8893 
 168   2.0000      -0.618084       -16.8189 
 169   2.0000      -0.617854       -16.8127 
 170   2.0000      -0.613211       -16.6863 
 171   2.0000      -0.611828       -16.6487 
 172   2.0000      -0.608445       -16.5566 
 173   2.0000      -0.600351       -16.3364 
 174   2.0000      -0.591617       -16.0987 
 175   2.0000      -0.588397       -16.0111 
 176   2.0000      -0.587011       -15.9734 
 177   2.0000      -0.585498       -15.9322 
 178   2.0000      -0.585402       -15.9296 
 179   2.0000      -0.580996       -15.8097 
 180   2.0000      -0.577630       -15.7181 
 181   2.0000      -0.577124       -15.7043 
 182   2.0000      -0.574123       -15.6227 
 183   2.0000      -0.571316       -15.5463 
 184   2.0000      -0.570047       -15.5118 
 185   2.0000      -0.568451       -15.4683 
 186   2.0000      -0.567550       -15.4438 
 187   2.0000      -0.567224       -15.4349 
 188   2.0000      -0.566284       -15.4094 
 189   2.0000      -0.562818       -15.3151 
 190   2.0000      -0.559356       -15.2208 
 191   2.0000      -0.554559       -15.0903 
 192   2.0000      -0.552887       -15.0448 
 193   2.0000      -0.549926       -14.9643 
 194   2.0000      -0.546585       -14.8733 
 195   2.0000      -0.542059       -14.7502 
 196   2.0000      -0.540370       -14.7042 
 197   2.0000      -0.538920       -14.6647 
 198   2.0000      -0.537333       -14.6216 
 199   2.0000      -0.529250       -14.4016 
 200   2.0000      -0.523972       -14.2580 
 201   2.0000      -0.520579       -14.1657 
 202   2.0000      -0.518728       -14.1153 
 203   2.0000      -0.518135       -14.0992 
 204   2.0000      -0.512262       -13.9394 
 205   2.0000      -0.500131       -13.6093 
 206   2.0000      -0.498538       -13.5659 
 207   2.0000      -0.495498       -13.4832 
 208   2.0000      -0.493035       -13.4162 
 209   2.0000      -0.492569       -13.4035 
 210   2.0000      -0.490802       -13.3554 
 211   2.0000      -0.490032       -13.3345 
 212   2.0000      -0.484603       -13.1867 
 213   2.0000      -0.484075       -13.1724 
 214   2.0000      -0.481430       -13.1004 
 215   2.0000      -0.474881       -12.9222 
 216   2.0000      -0.473567       -12.8864 
 217   2.0000      -0.467286       -12.7155 
 218   2.0000      -0.465564       -12.6686 
 219   2.0000      -0.455170       -12.3858 
 220   2.0000      -0.444654       -12.0997 
 221   2.0000      -0.438602       -11.9350 
 222   2.0000      -0.436924       -11.8893 
 223   2.0000      -0.417583       -11.3630 
 224   2.0000      -0.412767       -11.2320 
 225   2.0000      -0.390251       -10.6193 
 226   2.0000      -0.384907       -10.4739 
 227   2.0000      -0.374733       -10.1970 
 228   2.0000      -0.373885       -10.1739 
 229   2.0000      -0.357607        -9.7310 
 230   2.0000      -0.356569        -9.7027 
 231   2.0000      -0.348175        -9.4743 
 232   2.0000      -0.338082        -9.1997 
 233   2.0000      -0.330519        -8.9939 
 234   2.0000      -0.307353        -8.3635 
 235   2.0000      -0.304137        -8.2760 
 236   2.0000      -0.254523        -6.9259 
 237   0.0000      -0.033331        -0.9070 
 238   0.0000      -0.017324        -0.4714 
 239   0.0000       0.031650         0.8612 
 240   0.0000       0.042794         1.1645 
 241   0.0000       0.055018         1.4971 
 242   0.0000       0.070583         1.9207 
 243   0.0000       0.086604         2.3566 
 244   0.0000       0.119247         3.2449 
 245   0.0000       0.127444         3.4679 
 246   0.0000       0.131037         3.5657 
 247   0.0000       0.142873         3.8878 
 248   0.0000       0.145691         3.9644 
 249   0.0000       0.152259         4.1432 
 250   0.0000       0.157986         4.2990 
 251   0.0000       0.162976         4.4348 
 252   0.0000       0.168171         4.5762 
 253   0.0000       0.170361         4.6358 
 254   0.0000       0.173795         4.7292 
 255   0.0000       0.174342         4.7441 
 256   0.0000       0.175584         4.7779 
 257   0.0000       0.177771         4.8374 
 258   0.0000       0.178343         4.8530 
 259   0.0000       0.187175         5.0933 
 260   0.0000       0.194171         5.2837 
 261   0.0000       0.196391         5.3441 
 262   0.0000       0.199691         5.4339 
 263   0.0000       0.200063         5.4440 
 264   0.0000       0.201798         5.4912 
 265   0.0000       0.203789         5.5454 
 266   0.0000       0.205950         5.6042 
 267   0.0000       0.209090         5.6896 
 268   0.0000       0.210746         5.7347 
 269   0.0000       0.213355         5.8057 
 270   0.0000       0.216462         5.8902 
 271   0.0000       0.220475         5.9994 
 272   0.0000       0.221057         6.0153 
 273   0.0000       0.222805         6.0628 
 274   0.0000       0.228139         6.2080 
 275   0.0000       0.228424         6.2157 
 276   0.0000       0.229522         6.2456 
 277   0.0000       0.233019         6.3408 
 278   0.0000       0.236402         6.4328 
 279   0.0000       0.239870         6.5272 
 280   0.0000       0.247025         6.7219 
 281   0.0000       0.249183         6.7806 
 282   0.0000       0.251475         6.8430 
 283   0.0000       0.251718         6.8496 
 284   0.0000       0.256059         6.9677 
 285   0.0000       0.258775         7.0416 
 286   0.0000       0.260533         7.0895 
 287   0.0000       0.263690         7.1754 
 288   0.0000       0.264424         7.1953 
 289   0.0000       0.268693         7.3115 
 290   0.0000       0.271595         7.3905 
 291   0.0000       0.277560         7.5528 
 292   0.0000       0.279548         7.6069 
 293   0.0000       0.281170         7.6510 
 294   0.0000       0.284760         7.7487 
 295   0.0000       0.288427         7.8485 
 296   0.0000       0.293660         7.9909 
 297   0.0000       0.298096         8.1116 
 298   0.0000       0.305484         8.3127 
 299   0.0000       0.306539         8.3413 
 300   0.0000       0.318763         8.6740 
 301   0.0000       0.320887         8.7318 
 302   0.0000       0.329193         8.9578 
 303   0.0000       0.334371         9.0987 
 304   0.0000       0.338870         9.2211 
 305   0.0000       0.340796         9.2735 
 306   0.0000       0.345639         9.4053 
 307   0.0000       0.350098         9.5266 
 308   0.0000       0.352115         9.5815 
 309   0.0000       0.357127         9.7179 
 310   0.0000       0.358669         9.7599 
 311   0.0000       0.359692         9.7877 
 312   0.0000       0.364473         9.9178 
 313   0.0000       0.366187         9.9645 
 314   0.0000       0.368753        10.0343 
 315   0.0000       0.371329        10.1044 
 316   0.0000       0.372379        10.1329 
 317   0.0000       0.376447        10.2436 
 318   0.0000       0.379279        10.3207 
 319   0.0000       0.384757        10.4698 
 320   0.0000       0.386191        10.5088 
 321   0.0000       0.392352        10.6764 
 322   0.0000       0.394934        10.7467 
 323   0.0000       0.398704        10.8493 
 324   0.0000       0.403133        10.9698 
 325   0.0000       0.405926        11.0458 
 326   0.0000       0.411896        11.2083 
 327   0.0000       0.416223        11.3260 
 328   0.0000       0.425753        11.5853 
 329   0.0000       0.428467        11.6592 
 330   0.0000       0.432595        11.7715 
 331   0.0000       0.434925        11.8349 
 332   0.0000       0.436604        11.8806 
 333   0.0000       0.445016        12.1095 
 334   0.0000       0.450511        12.2590 
 335   0.0000       0.454251        12.3608 
 336   0.0000       0.457512        12.4495 
 337   0.0000       0.458868        12.4864 
 338   0.0000       0.464262        12.6332 
 339   0.0000       0.465550        12.6683 
 340   0.0000       0.467945        12.7334 
 341   0.0000       0.472855        12.8670 
 342   0.0000       0.477241        12.9864 
 343   0.0000       0.485419        13.2089 
 344   0.0000       0.488889        13.3033 
 345   0.0000       0.494283        13.4501 
 346   0.0000       0.494891        13.4667 
 347   0.0000       0.500248        13.6124 
 348   0.0000       0.514636        14.0040 
 349   0.0000       0.517559        14.0835 
 350   0.0000       0.519907        14.1474 
 351   0.0000       0.522912        14.2292 
 352   0.0000       0.527423        14.3519 
 353   0.0000       0.530353        14.4316 
 354   0.0000       0.531683        14.4678 
 355   0.0000       0.534874        14.5547 
 356   0.0000       0.542231        14.7549 
 357   0.0000       0.544800        14.8248 
 358   0.0000       0.552716        15.0402 
 359   0.0000       0.553583        15.0637 
 360   0.0000       0.557083        15.1590 
 361   0.0000       0.564606        15.3637 
 362   0.0000       0.569311        15.4917 
 363   0.0000       0.571772        15.5587 
 364   0.0000       0.575683        15.6651 
 365   0.0000       0.578026        15.7289 
 366   0.0000       0.580033        15.7835 
 367   0.0000       0.583342        15.8735 
 368   0.0000       0.587083        15.9754 
 369   0.0000       0.588371        16.0104 
 370   0.0000       0.595215        16.1966 
 371   0.0000       0.597244        16.2518 
 372   0.0000       0.602444        16.3933 
 373   0.0000       0.604813        16.4578 
 374   0.0000       0.613734        16.7006 
 375   0.0000       0.615051        16.7364 
 376   0.0000       0.615779        16.7562 
 377   0.0000       0.618829        16.8392 
 378   0.0000       0.624014        16.9803 
 379   0.0000       0.626486        17.0475 
 380   0.0000       0.629765        17.1368 
 381   0.0000       0.632653        17.2154 
 382   0.0000       0.637682        17.3522 
 383   0.0000       0.640073        17.4173 
 384   0.0000       0.645731        17.5712 
 385   0.0000       0.646979        17.6052 
 386   0.0000       0.649296        17.6682 
 387   0.0000       0.650092        17.6899 
 388   0.0000       0.653872        17.7928 
 389   0.0000       0.658299        17.9132 
 390   0.0000       0.659796        17.9540 
 391   0.0000       0.661119        17.9900 
 392   0.0000       0.665038        18.0966 
 393   0.0000       0.666329        18.1317 
 394   0.0000       0.670611        18.2483 
 395   0.0000       0.673896        18.3376 
 396   0.0000       0.675035        18.3686 
 397   0.0000       0.680438        18.5157 
 398   0.0000       0.681516        18.5450 
 399   0.0000       0.686609        18.6836 
 400   0.0000       0.690136        18.7796 
 401   0.0000       0.692401        18.8412 
 402   0.0000       0.698371        19.0036 
 403   0.0000       0.700479        19.0610 
 404   0.0000       0.702883        19.1264 
 405   0.0000       0.705686        19.2027 
 406   0.0000       0.708922        19.2907 
 407   0.0000       0.710180        19.3250 
 408   0.0000       0.710509        19.3339 
 409   0.0000       0.715633        19.4734 
 410   0.0000       0.716075        19.4854 
 411   0.0000       0.719645        19.5825 
 412   0.0000       0.724719        19.7206 
 413   0.0000       0.726449        19.7677 
 414   0.0000       0.731550        19.9065 
 415   0.0000       0.733988        19.9728 
 416   0.0000       0.735329        20.0093 
 417   0.0000       0.736763        20.0483 
 418   0.0000       0.739196        20.1145 
 419   0.0000       0.747266        20.3341 
 420   0.0000       0.750065        20.4103 
 421   0.0000       0.754254        20.5243 
 422   0.0000       0.759038        20.6545 
 423   0.0000       0.762553        20.7501 
 424   0.0000       0.764335        20.7986 
 425   0.0000       0.769209        20.9312 
 426   0.0000       0.773220        21.0404 
 427   0.0000       0.774045        21.0628 
 428   0.0000       0.778089        21.1729 
 429   0.0000       0.781657        21.2700 
 430   0.0000       0.782809        21.3013 
 431   0.0000       0.788264        21.4498 
 432   0.0000       0.788733        21.4625 
 433   0.0000       0.797774        21.7085 
 434   0.0000       0.800431        21.7808 
 435   0.0000       0.803082        21.8530 
 436   0.0000       0.804044        21.8792 
 437   0.0000       0.810640        22.0586 
 438   0.0000       0.811396        22.0792 
 439   0.0000       0.812673        22.1140 
 440   0.0000       0.816071        22.2064 
 441   0.0000       0.817251        22.2385 
 442   0.0000       0.820428        22.3250 
 443   0.0000       0.823887        22.4191 
 444   0.0000       0.825560        22.4646 
 445   0.0000       0.826570        22.4921 
 446   0.0000       0.829027        22.5590 
 447   0.0000       0.833798        22.6888 
 448   0.0000       0.837325        22.7848 
 449   0.0000       0.840097        22.8602 
 450   0.0000       0.841217        22.8907 
 451   0.0000       0.843875        22.9630 
 452   0.0000       0.844977        22.9930 
 453   0.0000       0.845623        23.0106 
 454   0.0000       0.846588        23.0368 
 455   0.0000       0.847200        23.0535 
 456   0.0000       0.849118        23.1057 
 457   0.0000       0.850885        23.1538 
 458   0.0000       0.853505        23.2250 
 459   0.0000       0.857618        23.3370 
 460   0.0000       0.858441        23.3594 
 461   0.0000       0.862445        23.4683 
 462   0.0000       0.865751        23.5583 
 463   0.0000       0.866663        23.5831 
 464   0.0000       0.868392        23.6301 
 465   0.0000       0.873327        23.7644 
 466   0.0000       0.874710        23.8021 
 467   0.0000       0.875849        23.8331 
 468   0.0000       0.877060        23.8660 
 469   0.0000       0.878181        23.8965 
 470   0.0000       0.879495        23.9323 
 471   0.0000       0.882407        24.0115 
 472   0.0000       0.885163        24.0865 
 473   0.0000       0.886028        24.1101 
 474   0.0000       0.887722        24.1561 
 475   0.0000       0.888794        24.1853 
 476   0.0000       0.893290        24.3077 
 477   0.0000       0.895275        24.3617 
 478   0.0000       0.897035        24.4096 
 479   0.0000       0.897462        24.4212 
 480   0.0000       0.900467        24.5030 
 481   0.0000       0.903581        24.5877 
 482   0.0000       0.906549        24.6685 
 483   0.0000       0.906865        24.6770 
 484   0.0000       0.908301        24.7161 
 485   0.0000       0.908499        24.7215 
 486   0.0000       0.912736        24.8368 
 487   0.0000       0.913757        24.8646 
 488   0.0000       0.917604        24.9693 
 489   0.0000       0.918874        25.0038 
 490   0.0000       0.921857        25.0850 
 491   0.0000       0.921943        25.0873 
 492   0.0000       0.925825        25.1930 
 493   0.0000       0.928920        25.2772 
 494   0.0000       0.929656        25.2972 
 495   0.0000       0.931736        25.3538 
 496   0.0000       0.932722        25.3806 
 497   0.0000       0.936675        25.4882 
 498   0.0000       0.940213        25.5845 
 499   0.0000       0.942843        25.6561 
 500   0.0000       0.944303        25.6958 
 501   0.0000       0.947834        25.7919 
 502   0.0000       0.950231        25.8571 
 503   0.0000       0.952098        25.9079 
 504   0.0000       0.952502        25.9189 
 505   0.0000       0.954503        25.9733 
 506   0.0000       0.957199        26.0467 
 507   0.0000       0.958230        26.0748 
 508   0.0000       0.963570        26.2201 
 509   0.0000       0.964848        26.2548 
 510   0.0000       0.968461        26.3532 
 511   0.0000       0.970445        26.4072 
 512   0.0000       0.972355        26.4591 
 513   0.0000       0.976570        26.5738 
 514   0.0000       0.978000        26.6127 
 515   0.0000       0.980571        26.6827 
 516   0.0000       0.984275        26.7835 
 517   0.0000       0.987878        26.8815 
 518   0.0000       0.992263        27.0008 
 519   0.0000       0.994668        27.0663 
 520   0.0000       0.996523        27.1168 
 521   0.0000       1.004977        27.3468 
 522   0.0000       1.005563        27.3628 
 523   0.0000       1.007398        27.4127 
 524   0.0000       1.011204        27.5163 
 525   0.0000       1.013073        27.5671 
 526   0.0000       1.014376        27.6026 
 527   0.0000       1.017013        27.6743 
 528   0.0000       1.017593        27.6901 
 529   0.0000       1.020629        27.7727 
 530   0.0000       1.025332        27.9007 
 531   0.0000       1.029229        28.0067 
 532   0.0000       1.031221        28.0610 
 533   0.0000       1.036243        28.1976 
 534   0.0000       1.037447        28.2304 
 535   0.0000       1.042415        28.3655 
 536   0.0000       1.047388        28.5009 
 537   0.0000       1.050278        28.5795 
 538   0.0000       1.055372        28.7181 
 539   0.0000       1.057314        28.7710 
 540   0.0000       1.058927        28.8149 
 541   0.0000       1.063166        28.9302 
 542   0.0000       1.067104        29.0374 
 543   0.0000       1.068500        29.0754 
 544   0.0000       1.073047        29.1991 
 545   0.0000       1.076654        29.2973 
 546   0.0000       1.081485        29.4287 
 547   0.0000       1.084722        29.5168 
 548   0.0000       1.092312        29.7233 
 549   0.0000       1.094530        29.7837 
 550   0.0000       1.100720        29.9521 
 551   0.0000       1.102735        30.0069 
 552   0.0000       1.105561        30.0839 
 553   0.0000       1.107901        30.1475 
 554   0.0000       1.112405        30.2701 
 555   0.0000       1.112777        30.2802 
 556   0.0000       1.119222        30.4556 
 557   0.0000       1.122328        30.5401 
 558   0.0000       1.123794        30.5800 
 559   0.0000       1.126536        30.6546 
 560   0.0000       1.129310        30.7301 
 561   0.0000       1.131749        30.7965 
 562   0.0000       1.137124        30.9427 
 563   0.0000       1.139840        31.0166 
 564   0.0000       1.142521        31.0896 
 565   0.0000       1.144102        31.1326 
 566   0.0000       1.147059        31.2131 
 567   0.0000       1.153945        31.4005 
 568   0.0000       1.155843        31.4521 
 569   0.0000       1.156451        31.4686 
 570   0.0000       1.165667        31.7194 
 571   0.0000       1.178632        32.0722 
 572   0.0000       1.185349        32.2550 
 573   0.0000       1.190352        32.3911 
 574   0.0000       1.196770        32.5658 
 575   0.0000       1.202756        32.7287 
 576   0.0000       1.205571        32.8053 
 577   0.0000       1.207150        32.8482 
 578   0.0000       1.212227        32.9864 
 579   0.0000       1.217191        33.1214 
 580   0.0000       1.221935        33.2506 
 581   0.0000       1.226627        33.3782 
 582   0.0000       1.234154        33.5830 
 583   0.0000       1.238639        33.7051 
 584   0.0000       1.240239        33.7486 
 585   0.0000       1.248531        33.9743 
 586   0.0000       1.249706        34.0062 
 587   0.0000       1.254043        34.1243 
 588   0.0000       1.257835        34.2274 
 589   0.0000       1.264630        34.4123 
 590   0.0000       1.272021        34.6134 
 591   0.0000       1.275117        34.6977 
 592   0.0000       1.275846        34.7175 
 593   0.0000       1.279131        34.8069 
 594   0.0000       1.283578        34.9279 
 595   0.0000       1.294213        35.2173 
 596   0.0000       1.298609        35.3370 
 597   0.0000       1.303854        35.4797 
 598   0.0000       1.313186        35.7336 
 599   0.0000       1.316486        35.8234 
 600   0.0000       1.319767        35.9127 
 601   0.0000       1.326991        36.1093 
 602   0.0000       1.330667        36.2093 
 603   0.0000       1.331151        36.2224 
 604   0.0000       1.333301        36.2810 
 605   0.0000       1.338964        36.4351 
 606   0.0000       1.345452        36.6116 
 607   0.0000       1.346896        36.6509 
 608   0.0000       1.353135        36.8207 
 609   0.0000       1.359739        37.0004 
 610   0.0000       1.363390        37.0997 
 611   0.0000       1.363715        37.1086 
 612   0.0000       1.364983        37.1431 
 613   0.0000       1.367181        37.2029 
 614   0.0000       1.368098        37.2278 
 615   0.0000       1.375057        37.4172 
 616   0.0000       1.380420        37.5631 
 617   0.0000       1.386626        37.7320 
 618   0.0000       1.392936        37.9037 
 619   0.0000       1.395204        37.9654 
 620   0.0000       1.401578        38.1389 
 621   0.0000       1.405201        38.2375 
 622   0.0000       1.408616        38.3304 
 623   0.0000       1.412516        38.4365 
 624   0.0000       1.418957        38.6118 
 625   0.0000       1.426519        38.8175 
 626   0.0000       1.431763        38.9602 
 627   0.0000       1.432266        38.9739 
 628   0.0000       1.438928        39.1552 
 629   0.0000       1.439799        39.1789 
 630   0.0000       1.444179        39.2981 
 631   0.0000       1.446682        39.3662 
 632   0.0000       1.450566        39.4719 
 633   0.0000       1.452338        39.5201 
 634   0.0000       1.456438        39.6317 
 635   0.0000       1.463270        39.8176 
 636   0.0000       1.465030        39.8655 
 637   0.0000       1.468648        39.9640 
 638   0.0000       1.473332        40.0914 
 639   0.0000       1.480138        40.2766 
 640   0.0000       1.482583        40.3431 
 641   0.0000       1.484269        40.3890 
 642   0.0000       1.485884        40.4330 
 643   0.0000       1.487527        40.4777 
 644   0.0000       1.491231        40.5785 
 645   0.0000       1.495955        40.7070 
 646   0.0000       1.499332        40.7989 
 647   0.0000       1.502289        40.8794 
 648   0.0000       1.505081        40.9553 
 649   0.0000       1.506067        40.9822 
 650   0.0000       1.511287        41.1242 
 651   0.0000       1.514817        41.2203 
 652   0.0000       1.516183        41.2574 
 653   0.0000       1.525754        41.5179 
 654   0.0000       1.529541        41.6209 
 655   0.0000       1.536056        41.7982 
 656   0.0000       1.538875        41.8749 
 657   0.0000       1.545164        42.0461 
 658   0.0000       1.553113        42.2623 
 659   0.0000       1.556600        42.3572 
 660   0.0000       1.557764        42.3889 
 661   0.0000       1.562788        42.5256 
 662   0.0000       1.570530        42.7363 
 663   0.0000       1.579581        42.9826 
 664   0.0000       1.586784        43.1786 
 665   0.0000       1.589278        43.2464 
 666   0.0000       1.591818        43.3156 
 667   0.0000       1.596548        43.4443 
 668   0.0000       1.604659        43.6650 
 669   0.0000       1.608691        43.7747 
 670   0.0000       1.614831        43.9418 
 671   0.0000       1.618824        44.0504 
 672   0.0000       1.623783        44.1854 
 673   0.0000       1.635943        44.5163 
 674   0.0000       1.640386        44.6372 
 675   0.0000       1.643312        44.7168 
 676   0.0000       1.651541        44.9407 
 677   0.0000       1.654630        45.0248 
 678   0.0000       1.654792        45.0292 
 679   0.0000       1.660718        45.1904 
 680   0.0000       1.662321        45.2340 
 681   0.0000       1.665372        45.3171 
 682   0.0000       1.674588        45.5679 
 683   0.0000       1.684231        45.8302 
 684   0.0000       1.690420        45.9987 
 685   0.0000       1.695613        46.1400 
 686   0.0000       1.708678        46.4955 
 687   0.0000       1.714328        46.6492 
 688   0.0000       1.717668        46.7401 
 689   0.0000       1.732868        47.1537 
 690   0.0000       1.734224        47.1906 
 691   0.0000       1.736011        47.2393 
 692   0.0000       1.743671        47.4477 
 693   0.0000       1.747093        47.5408 
 694   0.0000       1.750122        47.6232 
 695   0.0000       1.759931        47.8902 
 696   0.0000       1.765317        48.0367 
 697   0.0000       1.772599        48.2349 
 698   0.0000       1.780877        48.4601 
 699   0.0000       1.784777        48.5663 
 700   0.0000       1.793296        48.7981 
 701   0.0000       1.794333        48.8263 
 702   0.0000       1.796444        48.8837 
 703   0.0000       1.801546        49.0226 
 704   0.0000       1.807982        49.1977 
 705   0.0000       1.834895        49.9300 
 706   0.0000       1.846471        50.2450 
 707   0.0000       1.849634        50.3311 
 708   0.0000       1.851748        50.3886 
 709   0.0000       1.854587        50.4659 
 710   0.0000       1.859196        50.5913 
 711   0.0000       1.863081        50.6970 
 712   0.0000       1.865408        50.7603 
 713   0.0000       1.866253        50.7833 
 714   0.0000       1.880506        51.1712 
 715   0.0000       1.882410        51.2230 
 716   0.0000       1.893419        51.5225 
 717   0.0000       1.896513        51.6067 
 718   0.0000       1.902432        51.7678 
 719   0.0000       1.905262        51.8448 
 720   0.0000       1.909686        51.9652 
 721   0.0000       1.926167        52.4137 
 722   0.0000       1.935012        52.6544 
 723   0.0000       1.941470        52.8301 
 724   0.0000       1.953579        53.1596 
 725   0.0000       1.961654        53.3793 
 726   0.0000       1.964924        53.4683 
 727   0.0000       1.966833        53.5202 
 728   0.0000       1.968644        53.5695 
 729   0.0000       1.983979        53.9868 
 730   0.0000       1.986067        54.0436 
[...]

                       ****Iteration    9****
   Time for densities:     0.969
   Using LibInt in JK Direct
   Time for J+K (Direct):   961.249
   Time for Sigma-Completion:     9.097
   Size of expansion space: 9
   Lowest Energy          :     0.096654218873
   Maximum Energy change  :     0.000568348881 (vector 2)
   Maximum residual norm  :     0.000086049546

                       ****Iteration   10****
   Time for densities:     0.784
   Using LibInt in JK Direct
   Time for J+K (Direct):   932.724
   Time for Sigma-Completion:    15.724
   Size of expansion space: 12
   Lowest Energy          :     0.096654215104
   Maximum Energy change  :     0.000293210355 (vector 2)
   Maximum residual norm  :     0.000054376868

                       ****Iteration   11****
   Time for densities:     0.864
   Using LibInt in JK Direct
   Time for J+K (Direct):   969.897
   Time for Sigma-Completion:     8.915
   Size of expansion space: 15
   Lowest Energy          :     0.096654214245
   Maximum Energy change  :     0.000151668674 (vector 2)
   Maximum residual norm  :     0.000020057872

                       ****Iteration   12****
   Time for densities:     0.862
   Using LibInt in JK Direct
   Time for J+K (Direct):   959.943
   Time for Sigma-Completion:    14.190
   Size of expansion space: 18
   Lowest Energy          :     0.096654214067
   Maximum Energy change  :     0.000070679565 (vector 2)
   Maximum residual norm  :     0.000011763442

                       ****Iteration   13****
   Time for densities:     0.792
   Using LibInt in JK Direct
   Time for J+K (Direct):   938.967
   Time for Sigma-Completion:    13.391
   Size of expansion space: 21
   Lowest Energy          :     0.096654214030
   Maximum Energy change  :     0.000045455332 (vector 2)
   Maximum residual norm  :     0.000011585864

                       ****Iteration   14****
   Time for densities:     0.798
   Using LibInt in JK Direct
   Time for J+K (Direct):   985.891
   Time for Sigma-Completion:     8.589
   Size of expansion space: 24
   Lowest Energy          :     0.096654214024
   Maximum Energy change  :     0.000040820998 (vector 2)
   Maximum residual norm  :     0.000004962567

                       ****Iteration   15****
   Time for densities:     0.805
   Using LibInt in JK Direct
   Time for J+K (Direct):   939.019
   Time for Sigma-Completion:    12.099
   Size of expansion space: 27
   Lowest Energy          :     0.096654214023
   Maximum Energy change  :     0.000016982036 (vector 2)
   Maximum residual norm  :     0.000002796984

                       ****Iteration   16****
   Time for densities:     0.817
   Using LibInt in JK Direct
   Time for J+K (Direct):   933.583
   Time for Sigma-Completion:    13.722
   Size of expansion space: 30
   Lowest Energy          :     0.096654214023
   Maximum Energy change  :     0.000007689694 (vector 2)
   Maximum residual norm  :     0.000001191078
   Rebuilding the expansion space

                       ****Iteration   17****
   Time for densities:     1.765
   Using LibInt in JK Direct
   Time for J+K (Direct):  1828.719
   Time for Sigma-Completion:    20.225
   Size of expansion space: 6
   Lowest Energy          :     0.096654214023
   Maximum Energy change  :     0.000002337653 (vector 2)
   Maximum residual norm  :     0.000000482000

                       ****Iteration   18****
   Time for densities:     0.595
   Using LibInt in JK Direct
   Time for J+K (Direct):   687.231
   Time for Sigma-Completion:     7.749
   Size of expansion space: 8
   Lowest Energy          :     0.096654214023
   Maximum Energy change  :     0.000001574422 (vector 2)
   Maximum residual norm  :     0.000000211499

      *** CONVERGENCE OF RESIDUAL NORM REACHED ***

Storing the converged CI vectors               ... Y2.cis1

                 *** DAVIDSON DONE ***

Total time for solving the CIS problem: 22049.762sec

-----------------------------
CIS-EXCITED STATES (SINGLETS)
-----------------------------

the weight of the individual excitations are printed if larger than 1.0e-02

STATE  1:  E=   0.096654 au      2.630 eV    21213.1 cm**-1
   232a -> 237a  :     0.013383 (c= -0.11568412)
   232a -> 239a  :     0.010168 (c=  0.10083780)
   234a -> 238a  :     0.080068 (c= -0.28296351)
   235a -> 238a  :     0.089583 (c= -0.29930446)
   236a -> 237a  :     0.686152 (c=  0.82834307)
   236a -> 239a  :     0.032551 (c=  0.18042011)

STATE  2:  E=   0.119737 au      3.258 eV    26279.2 cm**-1
   229a -> 238a  :     0.014206 (c=  0.11918990)
   232a -> 238a  :     0.060437 (c= -0.24583879)
   234a -> 237a  :     0.144879 (c= -0.38062975)
   235a -> 237a  :     0.191481 (c= -0.43758522)
   236a -> 238a  :     0.457716 (c=  0.67654723)
   236a -> 240a  :     0.010160 (c=  0.10079747)
   236a -> 242a  :     0.015287 (c= -0.12363982)

STATE  3:  E=   0.158511 au      4.313 eV    34789.1 cm**-1
   225a -> 238a  :     0.015493 (c=  0.12446936)
   231a -> 238a  :     0.051951 (c=  0.22792681)
   232a -> 237a  :     0.204194 (c=  0.45187776)
   232a -> 239a  :     0.016207 (c= -0.12730759)
   233a -> 237a  :     0.037739 (c=  0.19426419)
   234a -> 238a  :     0.026165 (c=  0.16175532)
   234a -> 240a  :     0.011400 (c= -0.10676957)
   234a -> 245a  :     0.010282 (c= -0.10139880)
   235a -> 237a  :     0.013505 (c= -0.11621299)
   235a -> 238a  :     0.165704 (c=  0.40706788)
   236a -> 237a  :     0.026673 (c=  0.16331887)
   236a -> 239a  :     0.192110 (c=  0.43830299)
   236a -> 241a  :     0.040825 (c= -0.20205187)
   236a -> 243a  :     0.026971 (c=  0.16422725)


----------------------
CIS-EXCITATION SPECTRA
----------------------

Center of mass = ( 18.2955,-12.8181, -0.6264)
Calculating the Dipole integrals                  ... done
Transforming integrals                            ... done
Calculating the Linear Momentum integrals         ... done
Transforming integrals                            ... done
Calculating angular momentum integrals            ... done
Transforming integrals                            ... done

-----------------------------------------------------------------------------
         ABSORPTION SPECTRUM VIA TRANSITION ELECTRIC DIPOLE MOMENTS
-----------------------------------------------------------------------------
State   Energy    Wavelength  fosc         T2        TX        TY        TZ  
        (cm-1)      (nm)                 (au**2)    (au)      (au)      (au) 
-----------------------------------------------------------------------------
   1   21213.1    471.4   3.017540937  46.82994   5.15193  -4.50173  -0.14822
   2   26279.2    380.5   0.350653076   4.39280  -1.88547  -0.88511  -0.23325
   3   34789.1    287.4   0.097404457   0.92175  -0.34021  -0.59170   0.67520

-----------------------------------------------------------------------------
         ABSORPTION SPECTRUM VIA TRANSITION VELOCITY DIPOLE MOMENTS
-----------------------------------------------------------------------------
State   Energy    Wavelength   fosc        P2         PX        PY        PZ  
        (cm-1)      (nm)                 (au**2)     (au)      (au)      (au) 
-----------------------------------------------------------------------------
   1   21213.1    471.4   1.766129252   0.25606  -0.39365   0.31791  -0.00573
   2   26279.2    380.5   0.091114670   0.01636   0.12289   0.03419  -0.00972
   3   34789.1    287.4   0.059545849   0.01416   0.10767  -0.03998  -0.03109

-------------------------------------------------------------------
                             CD SPECTRUM
-------------------------------------------------------------------
State  Energy     Wavelength     R         MX        MY        MZ   
       (cm-1)       (nm)     (1e40*cgs)   (au)      (au)      (au)  
-------------------------------------------------------------------
   1   21213.1    471.4    -170.16860  -0.03594   0.00927   0.90468
   2   26279.2    380.5    249.41422  -0.14737  -0.00457  -1.05949
   3   34789.1    287.4     80.72391   0.21304   0.06008   0.41359

Total run time:    22128.977 sec

           *** ORCA-CIS/TD-DFT FINISHED WITHOUT ERROR ***

-----------------------
CIS/TD-DFT TOTAL ENERGY
-----------------------

    E(SCF)  =  -4777.461136731 Eh
    DE(CIS) =      0.096654214 Eh (Root  1)
    ----------------------------- ---------
    E(tot)  =  -4777.364482517 Eh


-------------------------   --------------------
FINAL SINGLE POINT ENERGY     -4777.364482517332
-------------------------   --------------------

------------------------------------------------------------------------------
                         ORCA SCF GRADIENT CALCULATION
------------------------------------------------------------------------------


------------
CIS GRADIENT
------------

Reference wavefunction             ... RHF
State of interest                  ... 1
Basis dimension                    ... 1021
DFT-XC contribution needed         ... NO
RI-approximation                   ... OFF
CIS-vectors being read from        ... Y2.cis

 => Number of Vectors found: 3
 => Orbital Window: 87...236 -> 237...1020

Reading the CIS file                     ... done
Norm of the CI vector                    ... 1.000000000
Making the CIS (pseudo)densities         ... done
Making operators G(D) and Q(T)           ... done
Transforming the Fock operators          ... done
Making the frozen-core relaxed density   ... done
Constructing the G(H) operator           ... done
Transforming the G(H) operator           ... done
Calculating the CIS Lagrangian           ... done
Solving the Z-vector equations           ... done
Finalizing the relaxed density           ... done
Storing the relaxed density              ... done
Constructing the G(Z) operator           ... done
Transforming the G(Z) operator           ... done
Making the W-matrix                      ... done
Finalizing the W-matrix                  ... done
Transforming the W-matrix                ... done
Nuclear repulsion gradient               ... done
One-Electron gradient                    ... done
Prescreening matrices                    ... done
Two-Electron gradient (4-center)         ... done
                 ---------------------------
                 EXCITED STATE GRADIENT DONE
                 ---------------------------


------------------
CARTESIAN GRADIENT
------------------

   1   C   :   -0.036047367   -0.009231994    0.005776737
   2   O   :    0.043458064    0.016629189   -0.007535385
   3   C   :    0.010613350   -0.015377282    0.006305685
   4   C   :   -0.004367336    0.011867191   -0.005788650
   5   S   :   -0.008747594    0.007844332   -0.002966907
   6   C   :   -0.013522851    0.004974374   -0.001949199
   7   C   :    0.016428400   -0.015756161    0.007237230
   8   C   :    0.001128118    0.010907140   -0.010979654
   9   C   :   -0.008098459   -0.010466317    0.011203271
  10   C   :    0.073627989   -0.002471524   -0.000620931
  11   N   :   -0.069348401    0.003375083   -0.000529488
  12   C   :   -0.033556706    0.047375393   -0.048796413
  13   N   :    0.034087634   -0.045368022    0.041178556
  14   C   :    0.003269212   -0.008973551    0.004704515
  15   C   :   -0.008354371    0.002088568    0.001680110
  16   C   :   -0.007027664   -0.001831840    0.000910526
  17   S   :    0.006552290   -0.001813454   -0.000019737
  18   C   :    0.004332159    0.012222630    0.002323164
  19   C   :   -0.004846323   -0.008910787   -0.002361151
  20   C   :   -0.001251870    0.009743002    0.004963553
  21   S   :   -0.002903284   -0.001693320   -0.000629003
  22   C   :   -0.010346631    0.010514103   -0.001955852
  23   C   :    0.000355201    0.000446027    0.000227730
  24   N   :    0.007328450    0.000449819    0.002878193
  25   C   :   -0.001428259   -0.000675833   -0.008867716
  26   C   :   -0.001980775   -0.002814730    0.004687865
  27   C   :   -0.002054681    0.001569311   -0.000160756
  28   C   :    0.001985010   -0.025550821   -0.002039914
  29   C   :    0.018146219    0.031116452    0.004326485
  30   N   :   -0.040224433    0.025385843   -0.004430950
  31   N   :   -0.021565966   -0.019318696   -0.006311030
  32   C   :    0.002429682    0.002471596    0.005515408
  33   C   :    0.000485583    0.000462597   -0.003080694
  34   N   :    0.018844140   -0.042766762    0.000607277
  35   C   :    0.033147670    0.013167328    0.005542081
  36   C   :   -0.024756287    0.003266472   -0.001770636
  37   C   :    0.001203653   -0.001825857    0.001362830
  38   N   :    0.001323930    0.009492048   -0.000496411
  39   C   :   -0.003946346   -0.004582206    0.005908854
  40   C   :   -0.000804305    0.000517236   -0.005195013
  41   C   :    0.005794295   -0.001864493    0.001283273
  42   C   :    0.006166950   -0.012626373   -0.000210834
  43   S   :   -0.003235961   -0.002627562   -0.001318365
  44   C   :   -0.006360855   -0.007594538   -0.001729471
  45   C   :    0.007758907    0.007188772    0.001910609
  46   S   :    0.006440468    0.008066404    0.001955727
  47   C   :    0.005921041   -0.004270127    0.000110718
  48   C   :    0.001539694   -0.002513003    0.000703919
  49   C   :    0.000460736    0.008649505    0.001773291
  50   C   :   -0.000144542   -0.003721729   -0.000892371
  51   C   :    0.004553027    0.016467255    0.004299911
  52   C   :    0.002267999   -0.018414679   -0.004296825
  53   C   :   -0.068088545    0.030430372    0.002309592
  54   N   :    0.064113067   -0.027576481   -0.002032082
  55   C   :    0.053596739    0.049159169    0.016769265
  56   N   :   -0.050921983   -0.045149793   -0.015775258
  57   C   :   -0.022535703   -0.008124493   -0.003429997
  58   C   :    0.013423694   -0.002151296    0.001514362
  59   S   :    0.012393029    0.004493469    0.001646337
  60   C   :    0.009531366    0.009258915    0.001458496
  61   C   :   -0.016180702   -0.009017416   -0.002875104
  62   C   :    0.027080874   -0.032759486   -0.003815957
  63   O   :   -0.033705517    0.038666786    0.004203623
  64   H   :    0.003254810    0.006262907   -0.002905728
  65   H   :   -0.007327587   -0.003093334    0.002133310
  66   H   :    0.007982980    0.005727681   -0.002310648
  67   H   :   -0.007625706    0.002581872   -0.001767875
  68   H   :    0.006713790   -0.006741547    0.005000452
  69   H   :   -0.003987383    0.005054034    0.005322766
  70   H   :    0.004736415    0.003928477    0.003380190
  71   H   :   -0.005762561    0.005285044   -0.003786360
  72   H   :    0.003593196   -0.004926227   -0.004740976
  73   H   :    0.002953983   -0.006422235   -0.004278453
  74   H   :   -0.006040357    0.004043718   -0.004203838
  75   H   :    0.005810476   -0.003045405    0.003537850
  76   H   :   -0.005293056   -0.004661330    0.000503870
  77   H   :   -0.002457559    0.005707463    0.003700474
  78   H   :   -0.003942608    0.009157799   -0.004020276
  79   H   :    0.007057766   -0.002539332   -0.004344625
  80   H   :   -0.006403641    0.001700034    0.003651279
  81   H   :    0.004216578    0.004973882    0.001804956
  82   H   :    0.003097486   -0.006397378    0.002098826
  83   H   :    0.001351531   -0.007568895   -0.001561481
  84   H   :   -0.000214377   -0.010397535   -0.002361261
  85   H   :    0.005066398   -0.006587094   -0.000912040
  86   H   :   -0.000215499    0.007531652    0.001642147

Difference to translation invariance:
           :   -0.0000000003    0.0000000004    0.0000000000

Norm of the cartesian gradient     ...    0.2590169936
RMS gradient                       ...    0.0161256937
MAX gradient                       ...    0.0736279893

-------
TIMINGS
-------

Total CIS gradient time            ...    14884.961 sec

Fock matrix formation       ....    1135.146 sec  (  7.6%)
  Coulomb formation         ....    1135.146 sec  (100.0% of F)
Z-vector equation           ....   12374.179 sec  ( 83.1%)
One electron gradient       ....       8.436 sec  (  0.1%)
Prescreening matrices       ....       1.091 sec  (  0.0%)
Two electron gradient       ....    1363.980 sec  (  9.2%)

                            ***************************************
                            *     ORCA property calculations      *
                            ***************************************

                                    ---------------------
                                    Active property flags
                                    ---------------------
   (+) Dipole Moment


------------------------------------------------------------------------------
                       ORCA ELECTRIC PROPERTIES CALCULATION
------------------------------------------------------------------------------

Dipole Moment Calculation                       ... on
Quadrupole Moment Calculation                   ... off
Polarizability Calculation                      ... off
GBWName                                         ... Y2.gbw
Electron density file                           ... Y2.scfp
The origin for moment calculation is the CENTER OF MASS  = (18.295547, -12.818084 -0.626432)

-------------
DIPOLE MOMENT
-------------
                                X             Y             Z
Electronic contribution:      5.47727       6.73493      -6.94315
Nuclear contribution   :     -5.24028      -4.47981       6.58182
                        -----------------------------------------
Total Dipole Moment    :      0.23699       2.25512      -0.36133
                        -----------------------------------------
Magnitude (a.u.)       :      2.29615
Magnitude (Debye)      :      5.83635



--------------------
Rotational spectrum 
--------------------
 
Rotational constants in cm-1:     0.002161     0.000311     0.000276 
Rotational constants in MHz :    64.784682     9.310306     8.260349 

 Dipole components along the rotational axes: 
x,y,z [a.u.] :    -1.295220     1.854777     0.393075 
x,y,z [Debye]:    -3.292187     4.714469     0.999117 

 

                        *** CIS RELAXED DENSITY ***

------------------------------------------------------------------------------
                       ORCA ELECTRIC PROPERTIES CALCULATION
------------------------------------------------------------------------------

Dipole Moment Calculation                       ... on
Quadrupole Moment Calculation                   ... off
Polarizability Calculation                      ... off
GBWName                                         ... Y2.gbw
Electron density file                           ... Y2.cisp
The origin for moment calculation is the CENTER OF MASS  = (18.295547, -12.818084 -0.626432)

-------------
DIPOLE MOMENT
-------------
                                X             Y             Z
Electronic contribution:      5.25388       5.75055      -7.00794
Nuclear contribution   :     -5.24028      -4.47981       6.58182
                        -----------------------------------------
Total Dipole Moment    :      0.01361       1.27075      -0.42612
                        -----------------------------------------
Magnitude (a.u.)       :      1.34036
Magnitude (Debye)      :      3.40692



--------------------
Rotational spectrum 
--------------------
 
Rotational constants in cm-1:     0.002161     0.000311     0.000276 
Rotational constants in MHz :    64.784682     9.310306     8.260349 

 Dipole components along the rotational axes: 
x,y,z [a.u.] :    -0.823322     0.961402     0.440916 
x,y,z [Debye]:    -2.092717     2.443690     1.120720 

 

Timings for individual modules:

Sum of individual times         ...    41384.357 sec (= 689.739 min)
GTO integral calculation        ...        1.196 sec (=   0.020 min)   0.0 %
SCF iterations                  ...     4369.073 sec (=  72.818 min)  10.6 %
CIS module                      ...    22129.072 sec (= 368.818 min)  53.5 %
SCF Gradient evaluation         ...    14885.016 sec (= 248.084 min)  36.0 %
                             ****ORCA TERMINATED NORMALLY****
TOTAL RUN TIME: 0 days 11 hours 29 minutes 45 seconds 4 msec
