
                                 *****************
                                 * O   R   C   A *
                                 *****************

           --- An Ab Initio, DFT and Semiempirical electronic structure package ---

                  #######################################################
                  #                        -***-                        #
                  #          Department of theory and spectroscopy      #
                  #               Directorship: Frank Neese             #
                  #        Max Planck Institute fuer Kohlenforschung    #
                  #                Kaiser Wilhelm Platz 1               #
                  #                 D-45470 Muelheim/Ruhr               #
                  #                      Germany                        #
                  #                                                     #
                  #                  All rights reserved                #
                  #                        -***-                        #
                  #######################################################


                         Program Version 4.2.0 -  RELEASE  -


 With contributions from (in alphabetic order):
   Daniel Aravena         : Magnetic Suceptibility
   Michael Atanasov       : Ab Initio Ligand Field Theory (pilot matlab implementation)
   Alexander A. Auer      : GIAO ZORA, VPT2
   Ute Becker             : Parallelization
   Giovanni Bistoni       : ED, misc. LED, open-shell LED, HFLED
   Martin Brehm           : Molecular dynamics
   Dmytro Bykov           : SCF Hessian
   Vijay G. Chilkuri      : MRCI spin determinant printing, contributions to CSF-ICE
   Dipayan Datta          : RHF DLPNO-CCSD density
   Achintya Kumar Dutta   : EOM-CC, STEOM-CC
   Dmitry Ganyushin       : Spin-Orbit,Spin-Spin,Magnetic field MRCI
   Miquel Garcia          : C-PCM Hessian, Gaussian charge scheme
   Yang Guo               : DLPNO-NEVPT2, CIM, IAO-localization
   Andreas Hansen         : Spin unrestricted coupled pair/coupled cluster methods
   Benjamin Helmich-Paris : CASSCF linear response (MC-RPA)
   Lee Huntington         : MR-EOM, pCC
   Robert Izsak           : Overlap fitted RIJCOSX, COSX-SCS-MP3, EOM
   Christian Kollmar      : KDIIS, OOCD, Brueckner-CCSD(T), CCSD density
   Simone Kossmann        : Meta GGA functionals, TD-DFT gradient, OOMP2, MP2 Hessian
   Martin Krupicka        : AUTO-CI
   Lucas Lang             : DCDCAS
   Dagmar Lenk            : GEPOL surface, SMD
   Dimitrios Liakos       : Extrapolation schemes; Compound Job, initial MDCI parallelization
   Dimitrios Manganas     : Further ROCIS development; embedding schemes
   Dimitrios Pantazis     : SARC Basis sets
   Taras Petrenko         : DFT Hessian,TD-DFT gradient, ASA, ECA, R-Raman, ABS, FL, XAS/XES, NRVS
   Peter Pinski           : DLPNO-MP2, DLPNO-MP2 Gradient
   Christoph Reimann      : Effective Core Potentials
   Marius Retegan         : Local ZFS, SOC
   Christoph Riplinger    : Optimizer, TS searches, QM/MM, DLPNO-CCSD(T), (RO)-DLPNO pert. Triples
   Tobias Risthaus        : Range-separated hybrids, TD-DFT gradient, RPA, STAB
   Michael Roemelt        : Original ROCIS implementation
   Masaaki Saitow         : Open-shell DLPNO-CCSD energy and density
   Barbara Sandhoefer     : DKH picture change effects
   Avijit Sen             : IP-ROCIS
   Kantharuban Sivalingam : CASSCF convergence, NEVPT2, FIC-MRCI
   Bernardo de Souza      : ESD, SOC TD-DFT
   Georgi Stoychev        : AutoAux, RI-MP2 NMR
   Willem Van den Heuvel  : Paramagnetic NMR
   Boris Wezisla          : Elementary symmetry handling
   Frank Wennmohs         : Technical directorship


 We gratefully acknowledge several colleagues who have allowed us to
 interface, adapt or use parts of their codes:
   Stefan Grimme, W. Hujo, H. Kruse,             : VdW corrections, initial TS optimization,
                  C. Bannwarth                     DFT functionals, gCP, sTDA/sTD-DF
   Ed Valeev, F. Pavosevic, A. Kumar             : LibInt (2-el integral package), F12 methods
   Garnet Chan, S. Sharma, J. Yang, R. Olivares  : DMRG
   Ulf Ekstrom                                   : XCFun DFT Library
   Mihaly Kallay                                 : mrcc  (arbitrary order and MRCC methods)
   Andreas Klamt, Michael Diedenhofen            : otool_cosmo (COSMO solvation model)
   Jiri Pittner, Ondrej Demel                    : Mk-CCSD
   Frank Weinhold                                : gennbo (NPA and NBO analysis)
   Christopher J. Cramer and Donald G. Truhlar   : smd solvation model
   Lars Goerigk                                  : TD-DFT with DH, B97 family of functionals
   V. Asgeirsson, H. Jonsson                     : NEB implementation
   FAccTs GmbH                                   : IRC, NEB, NEB-TS, Multilevel, MM, QM/MM, CI optimization
   S Lehtola, MJT Oliveira, MAL Marques          : LibXC Library


 Your calculation uses the libint2 library for the computation of 2-el integrals
 For citations please refer to: http://libint.valeyev.net

 Your ORCA version has been built with support for libXC version: 4.2.3
 For citations please refer to: https://tddft.org/programs/libxc/

 This ORCA versions uses:
   CBLAS   interface :  Fast vector & matrix operations
   LAPACKE interface :  Fast linear algebra routines
   SCALAPACK package :  Parallel linear algebra routines


----- Orbital basis set information -----
Your calculation utilizes the basis: def2-SVP
   F. Weigend and R. Ahlrichs, Phys. Chem. Chem. Phys. 7, 3297 (2005).

================================================================================
                                        WARNINGS
                       Please study these warnings very carefully!
================================================================================

INFO   : Checking CIS options ...

WARNING: CIS/ROCIS methods need fully converged wavefunctions
  ===> : Setting SCFConvForced true
         You can overwrite this default with %scf ConvForced false 


INFO   : the flag for use of LIBINT has been found!

================================================================================
                                       INPUT FILE
================================================================================
NAME = Y5.inp
|  1> # ORCA input file
|  2> # Y5.out: Geometry 23
|  3> ! Engrad Keepdens
|  4> %maxcore 1000
|  5> %tddft
|  6>   nroots 3 
|  7>   # nroots is the number of states to be computed
|  8>   Iroot 1
|  9>   end
| 10> * xyz 0 1
| 11>    C        0.76977        -1.75245        -1.34083
| 12>    O        1.24595        -1.57613        -2.44432
| 13>    C        1.49621        -1.92168        -0.05351
| 14>    C        2.86792        -1.97264         0.16100
| 15>    C        3.32491        -2.13666         1.47316
| 16>    C        2.41107        -2.23529         2.53110
| 17>    C        1.02827        -2.17980         2.31484
| 18>    C        0.56390        -2.03143         1.00272
| 19>    C       -0.80636        -1.89844         0.44334
| 20>    C       -1.94894        -1.58564         1.16282
| 21>    C       -3.12015        -1.07338         0.52429
| 22>    N       -4.05023        -0.60604         0.00701
| 23>    C       -1.99392        -1.62101         2.58964
| 24>    N       -2.04122        -1.67553         3.74999
| 25>    C       -0.68161        -1.90323        -1.00289
| 26>    C       -1.55795        -2.10232        -2.04178
| 27>    C       -2.83594        -2.70316        -2.13698
| 28>    S       -3.47587        -3.83302        -0.93077
| 29>    C       -4.84484        -4.16990        -1.93568
| 30>    C       -4.79717        -3.43512        -3.14170
| 31>    C       -3.67018        -2.60445        -3.26725
| 32>    C       -3.39770        -1.66669        -4.40793
| 33>    C       -3.53516        -0.19063        -4.00416
| 34>    S       -6.12108        -3.82192        -4.24376
| 35>    C       -6.71142        -4.98732        -3.09028
| 36>    C       -5.96628        -5.02589        -1.90204
| 37>    N       -6.48290        -5.98931        -1.04945
| 38>    C       -5.57273        -6.62928        -0.09597
| 39>    C       -4.66529        -7.65709        -0.76333
| 40>    C       -7.56058        -6.59287        -1.71099
| 41>    C       -7.69353        -5.99990        -3.00361
| 42>    C       -8.58550        -6.54866        -3.98271
| 43>    N       -8.74365        -6.14535        -5.23636
| 44>    S       -9.79199        -7.20710        -5.95481
| 45>    N      -10.06346        -8.21040        -4.66521
| 46>    C       -9.34959        -7.73935        -3.65116
| 47>    C       -9.30754        -8.24090        -2.30809
| 48>    C       -8.47116        -7.63226        -1.31817
| 49>    N       -8.77181        -8.20294        -0.08188
| 50>    C       -8.37393        -7.79571         1.26165
| 51>    C       -7.42246        -8.78857         1.92576
| 52>    C       -9.73574        -9.17305        -0.28179
| 53>    C      -10.06382        -9.23153        -1.64567
| 54>    S      -11.28126       -10.42209        -2.01196
| 55>    C      -11.37233       -10.83550        -0.29699
| 56>    C      -10.51589       -10.05400         0.50385
| 57>    S      -10.72629       -10.42414         2.18073
| 58>    C      -11.91619       -11.67972         1.79242
| 59>    C      -12.15305       -11.77939         0.41236
| 60>    C      -13.17322       -12.65898        -0.25805
| 61>    C      -12.57996       -13.59221        -1.32320
| 62>    C      -12.55344       -12.31941         2.90097
| 63>    C      -13.05018       -13.58686         3.06213
| 64>    C      -12.85895       -14.84815         2.35606
| 65>    C      -11.76303       -15.20629         1.59309
| 66>    C      -11.65277       -16.47396         0.94165
| 67>    N      -11.55123       -17.48677         0.38062
| 68>    C      -10.60931       -14.37414         1.45776
| 69>    N       -9.64237       -13.73914         1.34817
| 70>    C      -13.93353       -15.77031         2.80278
| 71>    C      -14.31626       -17.04193         2.35952
| 72>    C      -15.35744       -17.69567         3.03076
| 73>    C      -16.00093       -17.11425         4.13333
| 74>    C      -15.62541       -15.84302         4.57857
| 75>    C      -14.60699       -15.18525         3.89812
| 76>    C      -14.06399       -13.82361         4.14739
| 77>    O      -14.40307       -13.04049         5.01007
| 78>    H        3.55205        -1.88090        -0.68526
| 79>    H        4.39680        -2.18628         1.67980
| 80>    H        2.78469        -2.36312         3.54966
| 81>    H        0.34629        -2.25956         3.15931
| 82>    H       -1.11937        -1.82456        -3.00896
| 83>    H       -4.08592        -1.89978        -5.23526
| 84>    H       -2.38063        -1.85129        -4.79581
| 85>    H       -4.54361         0.02031        -3.61647
| 86>    H       -3.34132         0.46653        -4.86536
| 87>    H       -2.82242         0.06948        -3.20868
| 88>    H       -6.14848        -7.08760         0.70632
| 89>    H       -4.98322        -5.82794         0.37421
| 90>    H       -4.00888        -8.13045        -0.01695
| 91>    H       -4.03153        -7.18161        -1.52679
| 92>    H       -5.26163        -8.44518        -1.24872
| 93>    H       -9.29283        -7.69553         1.86206
| 94>    H       -7.94672        -6.78703         1.19749
| 95>    H       -7.92705        -9.74273         2.13678
| 96>    H       -7.04997        -8.38223         2.87880
| 97>    H       -6.56155        -9.00864         1.27902
| 98>    H      -13.91363       -11.99667        -0.74239
| 99>    H      -13.72340       -13.23924         0.49375
|100>    H      -11.82577       -14.26891        -0.90163
|101>    H      -12.08814       -13.02478        -2.12714
|102>    H      -13.37217       -14.20503        -1.77875
|103>    H      -12.74419       -11.67880         3.77392
|104>    H      -13.83343       -17.52388         1.51167
|105>    H      -15.67631       -18.68015         2.68159
|106>    H      -16.79818       -17.65967         4.64325
|107>    H      -16.10895       -15.36167         5.43062
|108> *
|109> 
|110>                          ****END OF INPUT****
================================================================================

                     *******************************
                     * Energy+Gradient Calculation *
                     *******************************

---------------------------------
CARTESIAN COORDINATES (ANGSTROEM)
---------------------------------
  C      0.769770   -1.752450   -1.340830
  O      1.245950   -1.576130   -2.444320
  C      1.496210   -1.921680   -0.053510
  C      2.867920   -1.972640    0.161000
  C      3.324910   -2.136660    1.473160
  C      2.411070   -2.235290    2.531100
  C      1.028270   -2.179800    2.314840
  C      0.563900   -2.031430    1.002720
  C     -0.806360   -1.898440    0.443340
  C     -1.948940   -1.585640    1.162820
  C     -3.120150   -1.073380    0.524290
  N     -4.050230   -0.606040    0.007010
  C     -1.993920   -1.621010    2.589640
  N     -2.041220   -1.675530    3.749990
  C     -0.681610   -1.903230   -1.002890
  C     -1.557950   -2.102320   -2.041780
  C     -2.835940   -2.703160   -2.136980
  S     -3.475870   -3.833020   -0.930770
  C     -4.844840   -4.169900   -1.935680
  C     -4.797170   -3.435120   -3.141700
  C     -3.670180   -2.604450   -3.267250
  C     -3.397700   -1.666690   -4.407930
  C     -3.535160   -0.190630   -4.004160
  S     -6.121080   -3.821920   -4.243760
  C     -6.711420   -4.987320   -3.090280
  C     -5.966280   -5.025890   -1.902040
  N     -6.482900   -5.989310   -1.049450
  C     -5.572730   -6.629280   -0.095970
  C     -4.665290   -7.657090   -0.763330
  C     -7.560580   -6.592870   -1.710990
  C     -7.693530   -5.999900   -3.003610
  C     -8.585500   -6.548660   -3.982710
  N     -8.743650   -6.145350   -5.236360
  S     -9.791990   -7.207100   -5.954810
  N    -10.063460   -8.210400   -4.665210
  C     -9.349590   -7.739350   -3.651160
  C     -9.307540   -8.240900   -2.308090
  C     -8.471160   -7.632260   -1.318170
  N     -8.771810   -8.202940   -0.081880
  C     -8.373930   -7.795710    1.261650
  C     -7.422460   -8.788570    1.925760
  C     -9.735740   -9.173050   -0.281790
  C    -10.063820   -9.231530   -1.645670
  S    -11.281260  -10.422090   -2.011960
  C    -11.372330  -10.835500   -0.296990
  C    -10.515890  -10.054000    0.503850
  S    -10.726290  -10.424140    2.180730
  C    -11.916190  -11.679720    1.792420
  C    -12.153050  -11.779390    0.412360
  C    -13.173220  -12.658980   -0.258050
  C    -12.579960  -13.592210   -1.323200
  C    -12.553440  -12.319410    2.900970
  C    -13.050180  -13.586860    3.062130
  C    -12.858950  -14.848150    2.356060
  C    -11.763030  -15.206290    1.593090
  C    -11.652770  -16.473960    0.941650
  N    -11.551230  -17.486770    0.380620
  C    -10.609310  -14.374140    1.457760
  N     -9.642370  -13.739140    1.348170
  C    -13.933530  -15.770310    2.802780
  C    -14.316260  -17.041930    2.359520
  C    -15.357440  -17.695670    3.030760
  C    -16.000930  -17.114250    4.133330
  C    -15.625410  -15.843020    4.578570
  C    -14.606990  -15.185250    3.898120
  C    -14.063990  -13.823610    4.147390
  O    -14.403070  -13.040490    5.010070
  H      3.552050   -1.880900   -0.685260
  H      4.396800   -2.186280    1.679800
  H      2.784690   -2.363120    3.549660
  H      0.346290   -2.259560    3.159310
  H     -1.119370   -1.824560   -3.008960
  H     -4.085920   -1.899780   -5.235260
  H     -2.380630   -1.851290   -4.795810
  H     -4.543610    0.020310   -3.616470
  H     -3.341320    0.466530   -4.865360
  H     -2.822420    0.069480   -3.208680
  H     -6.148480   -7.087600    0.706320
  H     -4.983220   -5.827940    0.374210
  H     -4.008880   -8.130450   -0.016950
  H     -4.031530   -7.181610   -1.526790
  H     -5.261630   -8.445180   -1.248720
  H     -9.292830   -7.695530    1.862060
  H     -7.946720   -6.787030    1.197490
  H     -7.927050   -9.742730    2.136780
  H     -7.049970   -8.382230    2.878800
  H     -6.561550   -9.008640    1.279020
  H    -13.913630  -11.996670   -0.742390
  H    -13.723400  -13.239240    0.493750
  H    -11.825770  -14.268910   -0.901630
  H    -12.088140  -13.024780   -2.127140
  H    -13.372170  -14.205030   -1.778750
  H    -12.744190  -11.678800    3.773920
  H    -13.833430  -17.523880    1.511670
  H    -15.676310  -18.680150    2.681590
  H    -16.798180  -17.659670    4.643250
  H    -16.108950  -15.361670    5.430620

----------------------------
CARTESIAN COORDINATES (A.U.)
----------------------------
  NO LB      ZA    FRAG     MASS         X           Y           Z
   0 C     6.0000    0    12.011    1.454654   -3.311651   -2.533801
   1 O     8.0000    0    15.999    2.354504   -2.978454   -4.619095
   2 C     6.0000    0    12.011    2.827427   -3.631449   -0.101119
   3 C     6.0000    0    12.011    5.419583   -3.727749    0.304246
   4 C     6.0000    0    12.011    6.283169   -4.037702    2.783869
   5 C     6.0000    0    12.011    4.556262   -4.224086    4.783086
   6 C     6.0000    0    12.011    1.943149   -4.119225    4.374414
   7 C     6.0000    0    12.011    1.065617   -3.838846    1.894866
   8 C     6.0000    0    12.011   -1.523800   -3.587532    0.837791
   9 C     6.0000    0    12.011   -3.682963   -2.996425    2.197411
  10 C     6.0000    0    12.011   -5.896229   -2.028394    0.990765
  11 N     7.0000    0    14.007   -7.653825   -1.145250    0.013247
  12 C     6.0000    0    12.011   -3.767963   -3.063265    4.893710
  13 N     7.0000    0    14.007   -3.857347   -3.166293    7.086454
  14 C     6.0000    0    12.011   -1.288056   -3.596583   -1.895187
  15 C     6.0000    0    12.011   -2.944099   -3.972809   -3.858405
  16 C     6.0000    0    12.011   -5.359150   -5.108232   -4.038307
  17 S    16.0000    0    32.060   -6.568442   -7.243358   -1.758900
  18 C     6.0000    0    12.011   -9.155421   -7.879969   -3.657905
  19 C     6.0000    0    12.011   -9.065338   -6.491436   -5.936953
  20 C     6.0000    0    12.011   -6.935635   -4.921697   -6.174208
  21 C     6.0000    0    12.011   -6.420722   -3.149588   -8.329781
  22 C     6.0000    0    12.011   -6.680484   -0.360238   -7.566766
  23 S    16.0000    0    32.060  -11.567165   -7.222382   -8.019544
  24 C     6.0000    0    12.011  -12.682746   -9.424669   -5.839783
  25 C     6.0000    0    12.011  -11.274635   -9.497556   -3.594335
  26 N     7.0000    0    14.007  -12.250906  -11.318156   -1.983173
  27 C     6.0000    0    12.011  -10.530934  -12.527524   -0.181357
  28 C     6.0000    0    12.011   -8.816120  -14.469803   -1.442485
  29 C     6.0000    0    12.011  -14.287426  -12.458719   -3.233303
  30 C     6.0000    0    12.011  -14.538665  -11.338168   -5.676000
  31 C     6.0000    0    12.011  -16.224244  -12.375174   -7.526231
  32 N     7.0000    0    14.007  -16.523104  -11.613028   -9.895286
  33 S    16.0000    0    32.060  -18.504179  -13.619445  -11.252960
  34 N     7.0000    0    14.007  -19.017183  -15.515407   -8.815969
  35 C     6.0000    0    12.011  -17.668165  -14.625252   -6.899692
  36 C     6.0000    0    12.011  -17.588702  -15.573044   -4.361658
  37 C     6.0000    0    12.011  -16.008172  -14.422881   -2.490980
  38 N     7.0000    0    14.007  -16.576319  -15.501310   -0.154731
  39 C     6.0000    0    12.011  -15.824434  -14.731757    2.384173
  40 C     6.0000    0    12.011  -14.026417  -16.607990    3.639159
  41 C     6.0000    0    12.011  -18.397882  -17.334552   -0.532506
  42 C     6.0000    0    12.011  -19.017864  -17.445063   -3.109866
  43 S    16.0000    0    32.060  -21.318492  -19.694896   -3.802053
  44 C     6.0000    0    12.011  -21.490589  -20.476128   -0.561230
  45 C     6.0000    0    12.011  -19.872152  -18.999307    0.952139
  46 S    16.0000    0    32.060  -20.269751  -19.698770    4.120982
  47 C     6.0000    0    12.011  -22.518336  -22.071472    3.387183
  48 C     6.0000    0    12.011  -22.965936  -22.259821    0.779247
  49 C     6.0000    0    12.011  -24.893778  -23.922005   -0.487644
  50 C     6.0000    0    12.011  -23.772679  -25.685554   -2.500486
  51 C     6.0000    0    12.011  -23.722564  -23.280311    5.482039
  52 C     6.0000    0    12.011  -24.661266  -25.675444    5.786587
  53 C     6.0000    0    12.011  -24.299894  -28.058937    4.452308
  54 C     6.0000    0    12.011  -22.228905  -28.735724    3.010504
  55 C     6.0000    0    12.011  -22.020544  -31.131273    1.779461
  56 N     7.0000    0    14.007  -21.828661  -33.045206    0.719268
  57 C     6.0000    0    12.011  -20.048690  -27.163188    2.754767
  58 N     7.0000    0    14.007  -18.221439  -25.963212    2.547672
  59 C     6.0000    0    12.011  -26.330556  -29.801567    5.296487
  60 C     6.0000    0    12.011  -27.053811  -32.204580    4.458847
  61 C     6.0000    0    12.011  -29.021356  -33.439970    5.727306
  62 C     6.0000    0    12.011  -30.237376  -32.341245    7.810862
  63 C     6.0000    0    12.011  -29.527746  -29.938969    8.652243
  64 C     6.0000    0    12.011  -27.603211  -28.695964    7.366379
  65 C     6.0000    0    12.011  -26.577089  -26.122837    7.837431
  66 O     8.0000    0    15.999  -27.217858  -24.642955    9.467660
  67 H     1.0000    0     1.008    6.712402   -3.554386   -1.294954
  68 H     1.0000    0     1.008    8.308748   -4.131470    3.174362
  69 H     1.0000    0     1.008    5.262301   -4.465650    6.707885
  70 H     1.0000    0     1.008    0.654393   -4.269950    5.970231
  71 H     1.0000    0     1.008   -2.115303   -3.447919   -5.686110
  72 H     1.0000    0     1.008   -7.721270   -3.590064   -9.893208
  73 H     1.0000    0     1.008   -4.498739   -3.498431   -9.062767
  74 H     1.0000    0     1.008   -8.586179    0.038380   -6.834138
  75 H     1.0000    0     1.008   -6.314180    0.881614   -9.194198
  76 H     1.0000    0     1.008   -5.333601    0.131298   -6.063526
  77 H     1.0000    0     1.008  -11.618943  -13.393623    1.334751
  78 H     1.0000    0     1.008   -9.416921  -11.013211    0.707154
  79 H     1.0000    0     1.008   -7.575685  -15.364324   -0.032031
  80 H     1.0000    0     1.008   -7.618488  -13.571276   -2.885215
  81 H     1.0000    0     1.008   -9.943040  -15.959077   -2.359739
  82 H     1.0000    0     1.008  -17.560904  -14.542444    3.518783
  83 H     1.0000    0     1.008  -15.017124  -12.825628    2.262928
  84 H     1.0000    0     1.008  -14.979954  -18.411091    4.037929
  85 H     1.0000    0     1.008  -13.322513  -15.840119    5.440144
  86 H     1.0000    0     1.008  -12.399533  -17.023862    2.416998
  87 H     1.0000    0     1.008  -26.292950  -22.670421   -1.402914
  88 H     1.0000    0     1.008  -25.933468  -25.018538    0.933052
  89 H     1.0000    0     1.008  -22.347467  -26.964332   -1.703834
  90 H     1.0000    0     1.008  -22.843274  -24.613267   -4.019712
  91 H     1.0000    0     1.008  -25.269739  -26.843616   -3.361350
  92 H     1.0000    0     1.008  -24.083029  -22.069734    7.131675
  93 H     1.0000    0     1.008  -26.141394  -33.115334    2.856642
  94 H     1.0000    0     1.008  -29.623933  -35.300368    5.067471
  95 H     1.0000    0     1.008  -31.743960  -33.371940    8.774471
  96 H     1.0000    0     1.008  -30.441504  -29.029349   10.262385

--------------------------------
INTERNAL COORDINATES (ANGSTROEM)
--------------------------------
 C      0   0   0     0.000000000000     0.00000000     0.00000000
 O      1   0   0     1.214712441239     0.00000000     0.00000000
 C      1   2   0     1.487799263644   127.67139613     0.00000000
 C      3   1   2     1.389316301567   128.30473298   356.96693497
 C      4   3   1     1.399109104430   118.13784437   179.84711825
 C      5   4   3     1.401452270361   120.21468534   359.54246698
 C      6   5   4     1.400708166500   121.62731952     0.27741735
 C      7   6   5     1.399754281365   118.45288988     0.45878584
 C      8   7   6     1.486002958308   131.93314138   182.15893963
 C      9   8   7     1.385995803313   125.79975930    15.96474043
 C     10   9   8     1.428937973671   121.64319235   160.08809089
 N     11  10   9     1.162339916031   177.26331049   276.58412034
 C     10   9   8     1.427966928784   122.62015447   346.63529912
 N     13  10   9     1.162592724431   178.62583610   263.89114772
 C      9   8   7     1.451608321656   107.18735033   185.36561755
 C     15   9   8     1.373645170996   134.35895555   163.05890017
 C     16  15   9     1.415390471107   133.50600774   341.06189989
 S     17  16  15     1.772296980926   123.42685321   340.67350367
 C     18  17  16     1.731303296190    90.83171722   187.37305238
 C     19  18  17     1.413031605344   111.56411495   359.90157104
 C     20  19  18     1.405660667266   114.24087915     0.06040188
 C     21  20  19     1.501595827911   125.61859233   183.15601668
 C     22  21  20     1.536449995314   112.58774721   109.36106568
 S     20  19  18     1.765471090587   113.17573996   176.38924707
 C     24  20  19     1.742749146033    89.27613443   359.02891774
 C     25  24  20     1.403080739694   113.51651463     2.73006897
 N     26  25  24     1.386356385963   109.99997246   181.01341221
 C     27  26  25     1.465296946083   118.17838466   152.01195905
 C     28  27  26     1.524863967474   112.28695005   284.30944910
 C     27  26  25     1.401183081399   107.19339185     1.02517927
 C     25  24  20     1.413283410148   139.03416249   187.89617844
 C     31  25  24     1.433661336753   131.66016238     5.88117019
 N     32  31  25     1.326389347477   127.10518367   355.46291968
 S     33  32  31     1.656049582772   106.89233185   175.02292977
 N     34  33  32     1.656313681312    98.87827791   359.95349738
 C     35  34  33     1.326572984008   106.97041338     0.18281014
 C     36  35  34     1.434279481098   127.40240923   177.07775996
 C     37  36  35     1.431752688281   121.05829264   179.29280572
 N     38  37  36     1.394445785608   108.24395239   171.90686582
 C     39  38  37     1.459183891153   130.03890736   191.25781879
 C     40  39  38     1.527124170655   112.88308409   247.74443709
 C     39  38  37     1.382113767061   108.02244776     1.85793281
 C     42  39  38     1.404003223358   109.43366623   359.87646238
 S     43  42  39     1.741769683770   113.33394333   180.26467917
 C     44  43  42     1.766443793020    89.53230283     0.82242630
 C     45  44  43     1.409104832580   112.99425024     1.37306684
 S     46  45  44     1.730086215771   110.99490729   176.04340763
 C     47  46  45     1.772886855527    91.19459084     2.30066967
 C     48  47  46     1.403781454536   112.26279474   358.81367057
 C     49  48  47     1.504617880094   126.43774721   185.03880698
 C     50  49  48     1.535389261067   113.73119513   235.14125467
 C     48  47  46     1.429746117708   116.49929911   184.38539473
 C     52  48  47     1.370821897877   131.78515494   210.50361560
 C     53  52  48     1.458065918229   134.05552421    17.79720468
 C     54  53  52     1.382544077742   126.53301747    24.23995068
 C     55  54  53     1.429516900949   122.84321595   179.46002226
 N     56  55  54     1.162260353191   178.12583324   134.68145903
 C     55  54  53     1.428935852234   122.78035594     3.48285051
 N     58  55  54     1.161984479974   177.50247929   142.86531552
 C     54  53  52     1.484809752258   107.25570406   194.12048400
 C     60  54  53     1.399992537444   131.81338232   172.33882391
 C     61  60  54     1.400712289373   118.38582015   177.40519487
 C     62  61  60     1.402779099288   121.61389635   359.15239084
 C     63  62  61     1.398313141217   120.25738785     1.02595752
 C     64  63  62     1.390270790817   118.09957920     0.06036992
 C     65  64  63     1.486959321064   128.22156352   177.84065155
 O     66  65  64     1.213453321393   127.45299114     1.10811893
 H      4   3   1     1.092065049390   119.72173921     0.09790287
 H      5   4   3     1.092753588921   120.20297190   179.68830771
 H      6   5   4     1.092427062508   119.27929367   179.99910293
 H      7   6   5     1.088387779654   119.72845096   180.00222295
 H     16  15   9     1.097697675319   112.01228404   168.38887432
 H     22  21  20     1.101114274451   108.97458272   346.80974298
 H     22  21  20     1.104064961540   109.24586277   231.36498979
 H     23  22  21     1.100804534057   111.01452823   301.61778377
 H     23  22  21     1.100499273603   110.62606309   180.70192053
 H     23  22  21     1.099292477051   111.06794161    60.64549817
 H     28  27  26     1.088675584828   109.56663273   160.86625254
 H     28  27  26     1.100334979949   107.02348553    46.40457632
 H     29  28  27     1.100920924545   110.36015871   181.02675255
 H     29  28  27     1.100274574640   110.80406481    61.16466460
 H     29  28  27     1.101049815313   110.67544568   300.89992611
 H     40  39  38     1.102227476749   107.43323568   126.33203514
 H     40  39  38     1.097296783965   107.99086546    12.58541752
 H     41  40  39     1.099800806555   111.20092802   292.67939219
 H     41  40  39     1.100975130191   110.32128927   172.84723673
 H     41  40  39     1.099031146328   111.24347324    52.30942639
 H     50  49  48     1.105190816013   107.40784619   114.93473517
 H     50  49  48     1.097544049230   110.10515503   359.55754293
 H     51  50  49     1.097472874836   111.95167706    59.80135258
 H     51  50  49     1.100083288165   111.48213653   300.03887209
 H     51  50  49     1.100304884566   110.33735077   180.21935404
 H     52  48  47     1.099458247093   115.61038004    34.76389116
 H     61  60  54     1.088232619388   121.84670964   356.96960525
 H     62  61  60     1.092153210955   118.98116272   178.87919067
 H     63  62  61     1.092295264706   119.65527258   181.00795512
 H     64  63  62     1.091557582815   122.03797563   179.75358850

---------------------------
INTERNAL COORDINATES (A.U.)
---------------------------
 C      0   0   0     0.000000000000     0.00000000     0.00000000
 O      1   0   0     2.295473845408     0.00000000     0.00000000
 C      1   2   0     2.811533150537   127.67139613     0.00000000
 C      3   1   2     2.625427323354   128.30473298   356.96693497
 C      4   3   1     2.643933038849   118.13784437   179.84711825
 C      5   4   3     2.648360980744   120.21468534   359.54246698
 C      6   5   4     2.646954828232   121.62731952     0.27741735
 C      7   6   5     2.645152246564   118.45288988     0.45878584
 C      8   7   6     2.808138625399   131.93314138   182.15893963
 C      9   8   7     2.619152491025   125.79975930    15.96474043
 C     10   9   8     2.700301432599   121.64319235   160.08809089
 N     11  10   9     2.196504115824   177.26331049   276.58412034
 C     10   9   8     2.698466423698   122.62015447   346.63529912
 N     13  10   9     2.196981854464   178.62583610   263.89114772
 C      9   8   7     2.743142181650   107.18735033   185.36561755
 C     15   9   8     2.595813178365   134.35895555   163.05890017
 C     16  15   9     2.674700362954   133.50600774   341.06189989
 S     17  16  15     3.349155921926   123.42685321   340.67350367
 C     18  17  16     3.271689084555    90.83171722   187.37305238
 C     19  18  17     2.670242752675   111.56411495   359.90157104
 C     20  19  18     2.656313698359   114.24087915     0.06040188
 C     21  20  19     2.837604878591   125.61859233   183.15601668
 C     22  21  20     2.903469709608   112.58774721   109.36106568
 S     20  19  18     3.336256858566   113.17573996   176.38924707
 C     24  20  19     3.293318606128    89.27613443   359.02891774
 C     25  24  20     2.651438341801   113.51651463     2.73006897
 N     26  25  24     2.619833893483   109.99997246   181.01341221
 C     27  26  25     2.769009932968   118.17838466   152.01195905
 C     28  27  26     2.881575290010   112.28695005   284.30944910
 C     27  26  25     2.647852287329   107.19339185     1.02517927
 C     25  24  20     2.670718594794   139.03416249   187.89617844
 C     31  25  24     2.709227295254   131.66016238     5.88117019
 N     32  31  25     2.506512613682   127.10518367   355.46291968
 S     33  32  31     3.129480175634   106.89233185   175.02292977
 N     34  33  32     3.129979249546    98.87827791   359.95349738
 C     35  34  33     2.506859636434   106.97041338     0.18281014
 C     36  35  34     2.710395418779   127.40240923   177.07775996
 C     37  36  35     2.705620472357   121.05829264   179.29280572
 N     38  37  36     2.635120643400   108.24395239   171.90686582
 C     39  38  37     2.757457933308   130.03890736   191.25781879
 C     40  39  38     2.885846455030   112.88308409   247.74443709
 C     39  38  37     2.611816505668   108.02244776     1.85793281
 C     42  39  38     2.653181583290   109.43366623   359.87646238
 S     43  42  39     3.291467690692   113.33394333   180.26467917
 C     44  43  42     3.338094999773    89.53230283     0.82242630
 C     45  44  43     2.662822227561   112.99425024     1.37306684
 S     46  45  44     3.269389135879   110.99490729   176.04340763
 C     47  46  45     3.350270623375    91.19459084     2.30066967
 C     48  47  46     2.652762500951   112.26279474   358.81367057
 C     49  48  47     2.843315729580   126.43774721   185.03880698
 C     50  49  48     2.901465212380   113.73119513   235.14125467
 C     48  47  46     2.701828603505   116.49929911   184.38539473
 C     52  48  47     2.590477965370   131.78515494   210.50361560
 C     53  52  48     2.755345270657   134.05552421    17.79720468
 C     54  53  52     2.612629675007   126.53301747    24.23995068
 C     55  54  53     2.701395446606   122.84321595   179.46002226
 N     56  55  54     2.196353763846   178.12583324   134.68145903
 C     55  54  53     2.700297423664   122.78035594     3.48285051
 N     58  55  54     2.195832439017   177.50247929   142.86531552
 C     54  53  52     2.805883792743   107.25570406   194.12048400
 C     60  54  53     2.645602485303   131.81338232   172.33882391
 C     61  60  54     2.646962619332   118.38582015   177.40519487
 C     62  61  60     2.650868324044   121.61389635   359.15239084
 C     63  62  61     2.642428886363   120.25738785     1.02595752
 C     64  63  62     2.627231046635   118.09957920     0.06036992
 C     65  64  63     2.809945889093   128.22156352   177.84065155
 O     66  65  64     2.293094453730   127.45299114     1.10811893
 H      4   3   1     2.063703863775   119.72173921     0.09790287
 H      5   4   3     2.065005014920   120.20297190   179.68830771
 H      6   5   4     2.064387969424   119.27929367   179.99910293
 H      7   6   5     2.056754831053   119.72845096   180.00222295
 H     16  15   9     2.074347984194   112.01228404   168.38887432
 H     22  21  20     2.080804420864   108.97458272   346.80974298
 H     22  21  20     2.086380411369   109.24586277   231.36498979
 H     23  22  21     2.080219096346   111.01452823   301.61778377
 H     23  22  21     2.079642237688   110.62606309   180.70192053
 H     23  22  21     2.077361722706   111.06794161    60.64549817
 H     28  27  26     2.057298704011   109.56663273   160.86625254
 H     28  27  26     2.079331767678   107.02348553    46.40457632
 H     29  28  27     2.080439042493   110.36015871   181.02675255
 H     29  28  27     2.079217618187   110.80406481    61.16466460
 H     29  28  27     2.080682610745   110.67544568   300.89992611
 H     40  39  38     2.082908068338   107.43323568   126.33203514
 H     40  39  38     2.073590409326   107.99086546    12.58541752
 H     41  40  39     2.078322326255   111.20092802   292.67939219
 H     41  40  39     2.080541476320   110.32128927   172.84723673
 H     41  40  39     2.076867879210   111.24347324    52.30942639
 H     50  49  48     2.088507967990   107.40784619   114.93473517
 H     50  49  48     2.074057672960   110.10515503   359.55754293
 H     51  50  49     2.073923172847   111.95167706    59.80135258
 H     51  50  49     2.078856139135   111.48213653   300.03887209
 H     51  50  49     2.079274895646   110.33735077   180.21935404
 H     52  48  47     2.077674982686   115.61038004    34.76389116
 H     61  60  54     2.056461620643   121.84670964   356.96960525
 H     62  61  60     2.063870464988   118.98116272   178.87919067
 H     63  62  61     2.064138907674   119.65527258   181.00795512
 H     64  63  62     2.062744890925   122.03797563   179.75358850

---------------------
BASIS SET INFORMATION
---------------------
There are 5 groups of distinct atoms

 Group   1 Type C   : 7s4p1d contracted to 3s2p1d pattern {511/31/1}
 Group   2 Type O   : 7s4p1d contracted to 3s2p1d pattern {511/31/1}
 Group   3 Type N   : 7s4p1d contracted to 3s2p1d pattern {511/31/1}
 Group   4 Type S   : 10s7p1d contracted to 4s3p1d pattern {5311/511/1}
 Group   5 Type H   : 4s1p contracted to 2s1p pattern {31/1}

Atom   0C    basis set group =>   1
Atom   1O    basis set group =>   2
Atom   2C    basis set group =>   1
Atom   3C    basis set group =>   1
Atom   4C    basis set group =>   1
Atom   5C    basis set group =>   1
Atom   6C    basis set group =>   1
Atom   7C    basis set group =>   1
Atom   8C    basis set group =>   1
Atom   9C    basis set group =>   1
Atom  10C    basis set group =>   1
Atom  11N    basis set group =>   3
Atom  12C    basis set group =>   1
Atom  13N    basis set group =>   3
Atom  14C    basis set group =>   1
Atom  15C    basis set group =>   1
Atom  16C    basis set group =>   1
Atom  17S    basis set group =>   4
Atom  18C    basis set group =>   1
Atom  19C    basis set group =>   1
Atom  20C    basis set group =>   1
Atom  21C    basis set group =>   1
Atom  22C    basis set group =>   1
Atom  23S    basis set group =>   4
Atom  24C    basis set group =>   1
Atom  25C    basis set group =>   1
Atom  26N    basis set group =>   3
Atom  27C    basis set group =>   1
Atom  28C    basis set group =>   1
Atom  29C    basis set group =>   1
Atom  30C    basis set group =>   1
Atom  31C    basis set group =>   1
Atom  32N    basis set group =>   3
Atom  33S    basis set group =>   4
Atom  34N    basis set group =>   3
Atom  35C    basis set group =>   1
Atom  36C    basis set group =>   1
Atom  37C    basis set group =>   1
Atom  38N    basis set group =>   3
Atom  39C    basis set group =>   1
Atom  40C    basis set group =>   1
Atom  41C    basis set group =>   1
Atom  42C    basis set group =>   1
Atom  43S    basis set group =>   4
Atom  44C    basis set group =>   1
Atom  45C    basis set group =>   1
Atom  46S    basis set group =>   4
Atom  47C    basis set group =>   1
Atom  48C    basis set group =>   1
Atom  49C    basis set group =>   1
Atom  50C    basis set group =>   1
Atom  51C    basis set group =>   1
Atom  52C    basis set group =>   1
Atom  53C    basis set group =>   1
Atom  54C    basis set group =>   1
Atom  55C    basis set group =>   1
Atom  56N    basis set group =>   3
Atom  57C    basis set group =>   1
Atom  58N    basis set group =>   3
Atom  59C    basis set group =>   1
Atom  60C    basis set group =>   1
Atom  61C    basis set group =>   1
Atom  62C    basis set group =>   1
Atom  63C    basis set group =>   1
Atom  64C    basis set group =>   1
Atom  65C    basis set group =>   1
Atom  66O    basis set group =>   2
Atom  67H    basis set group =>   5
Atom  68H    basis set group =>   5
Atom  69H    basis set group =>   5
Atom  70H    basis set group =>   5
Atom  71H    basis set group =>   5
Atom  72H    basis set group =>   5
Atom  73H    basis set group =>   5
Atom  74H    basis set group =>   5
Atom  75H    basis set group =>   5
Atom  76H    basis set group =>   5
Atom  77H    basis set group =>   5
Atom  78H    basis set group =>   5
Atom  79H    basis set group =>   5
Atom  80H    basis set group =>   5
Atom  81H    basis set group =>   5
Atom  82H    basis set group =>   5
Atom  83H    basis set group =>   5
Atom  84H    basis set group =>   5
Atom  85H    basis set group =>   5
Atom  86H    basis set group =>   5
Atom  87H    basis set group =>   5
Atom  88H    basis set group =>   5
Atom  89H    basis set group =>   5
Atom  90H    basis set group =>   5
Atom  91H    basis set group =>   5
Atom  92H    basis set group =>   5
Atom  93H    basis set group =>   5
Atom  94H    basis set group =>   5
Atom  95H    basis set group =>   5
Atom  96H    basis set group =>   5
------------------------------------------------------------------------------
                           ORCA GTO INTEGRAL CALCULATION
------------------------------------------------------------------------------

                         BASIS SET STATISTICS AND STARTUP INFO

 # of primitive gaussian shells          ...  984
 # of primitive gaussian functions       ... 1878
 # of contracted shells                  ...  502
 # of contracted basis functions         ... 1108
 Highest angular momentum                ...    2
 Maximum contraction depth               ...    5
 Integral package used                   ... LIBINT
 Integral threshhold            Thresh   ...  2.500e-11
 Primitive cut-off              TCut     ...  2.500e-12


------------------------------ INTEGRAL EVALUATION ----------------------------


 * One electron integrals 
 Pre-screening matrix                    ... done
 Shell pair data                         ... done (   0.017 sec)

-------------------------------------------------------------------------------
                                 ORCA SCF
-------------------------------------------------------------------------------

------------
SCF SETTINGS
------------
Hamiltonian:
 Ab initio Hamiltonian  Method          .... Hartree-Fock(GTOs)


General Settings:
 Integral files         IntName         .... Y5
 Hartree-Fock type      HFTyp           .... RHF
 Total Charge           Charge          ....    0
 Multiplicity           Mult            ....    1
 Number of Electrons    NEL             ....  494
 Basis Dimension        Dim             .... 1108
 Nuclear Repulsion      ENuc            ....  10106.5484545931 Eh

Convergence Acceleration:
 DIIS                   CNVDIIS         .... on
   Start iteration      DIISMaxIt       ....    12
   Startup error        DIISStart       ....  0.200000
   # of expansion vecs  DIISMaxEq       ....     5
   Bias factor          DIISBfac        ....   1.050
   Max. coefficient     DIISMaxC        ....  10.000
 Newton-Raphson         CNVNR           .... off
 SOSCF                  CNVSOSCF        .... on
   Start iteration      SOSCFMaxIt      ....   150
   Startup grad/error   SOSCFStart      ....  0.003300
 Level Shifting         CNVShift        .... on
   Level shift para.    LevelShift      ....    0.2500
   Turn off err/grad.   ShiftErr        ....    0.0010
 Zerner damping         CNVZerner       .... off
 Static damping         CNVDamp         .... on
   Fraction old density DampFac         ....    0.7000
   Max. Damping (<1)    DampMax         ....    0.9800
   Min. Damping (>=0)   DampMin         ....    0.0000
   Turn off err/grad.   DampErr         ....    0.1000
 Fernandez-Rico         CNVRico         .... off

SCF Procedure:
 Maximum # iterations   MaxIter         ....   125
 SCF integral mode      SCFMode         .... Direct
   Integral package                     .... LIBINT
 Reset frequency        DirectResetFreq ....    20
 Integral Threshold     Thresh          ....  2.500e-11 Eh
 Primitive CutOff       TCut            ....  2.500e-12 Eh

Convergence Tolerance:
 Convergence Check Mode ConvCheckMode   .... Total+1el-Energy
 Convergence forced     ConvForced      .... 1
 Energy Change          TolE            ....  1.000e-08 Eh
 1-El. energy change                    ....  1.000e-05 Eh
 Orbital Gradient       TolG            ....  1.000e-05
 Orbital Rotation angle TolX            ....  1.000e-05
 DIIS Error             TolErr          ....  5.000e-07


Diagonalization of the overlap matrix:
Smallest eigenvalue                        ... 1.088e-04
Time for diagonalization                   ...    0.286 sec
Threshold for overlap eigenvalues          ... 1.000e-08
Number of eigenvalues below threshold      ... 0
Time for construction of square roots      ...    0.113 sec
Total time needed                          ...    0.402 sec

-------------------
DFT GRID GENERATION
-------------------

General Integration Accuracy     IntAcc      ...  4.340
Radial Grid Type                 RadialGrid  ... Gauss-Chebyshev
Angular Grid (max. acc.)         AngularGrid ... Lebedev-110
Angular grid pruning method      GridPruning ... 3 (G Style)
Weight generation scheme         WeightScheme... Becke
Basis function cutoff            BFCut       ...    1.0000e-11
Integration weight cutoff        WCut        ...    1.0000e-14
Grids for H and He will be reduced by one unit

# of grid points (after initial pruning)     ... 136010 (   0.2 sec)
# of grid points (after weights+screening)   ... 118890 (   5.3 sec)
nearest neighbour list constructed           ...    0.0 sec
Grid point re-assignment to atoms done       ...    0.0 sec
Grid point division into batches done        ...    0.1 sec
Reduced shell lists constructed in    1.9 sec

Total number of grid points                  ...   118890
Total number of batches                      ...     1911
Average number of points per batch           ...       62
Average number of grid points per atom       ...     1226
Average number of shells per batch           ...   110.37 (21.99%)
Average number of basis functions per batch  ...   229.06 (20.67%)
Average number of large shells per batch     ...    66.46 (60.21%)
Average number of large basis fcns per batch ...   139.93 (61.09%)
Maximum spatial batch extension              ...  19.97, 31.36, 22.36 au
Average spatial batch extension              ...   3.28,  3.38,  3.25 au

Time for grid setup =    7.321 sec

------------------------------
INITIAL GUESS: MODEL POTENTIAL
------------------------------
Loading Hartree-Fock densities                     ... done
Calculating cut-offs                               ... done
Setting up the integral package                    ... done
Initializing the effective Hamiltonian             ... done
Starting the Coulomb interaction                   ... done (   7.8 sec)
Reading the grid                                   ... done
Mapping shells                                     ... done
Starting the XC term evaluation                    ... done (   1.8 sec)
Transforming the Hamiltonian                       ... done (   0.1 sec)
Diagonalizing the Hamiltonian                      ... done (   0.2 sec)
Back transforming the eigenvectors                 ... done (   0.0 sec)
Now organizing SCF variables                       ... done
                      ------------------
                      INITIAL GUESS DONE (  17.5 sec)
                      ------------------
--------------
SCF ITERATIONS
--------------
ITER       Energy         Delta-E        Max-DP      RMS-DP      [F,P]     Damp
               ***  Starting incremental Fock matrix formation  ***
  0  -4554.7475672191   0.000000000000 0.08539800  0.00139523  0.2433140 0.7000
  1  -4555.4680927155  -0.720525496386 0.06301783  0.00107195  0.1495381 0.7000
                               ***Turning on DIIS***
  2  -4555.8961924369  -0.428099721394 0.15840178  0.00248788  0.0860608 0.0000
  3  -4553.4460137162   2.450178720645 0.07734079  0.00057435  0.0515189 0.0000
  4  -4557.1209302489  -3.674916532655 0.01365574  0.00022486  0.0190086 0.0000
  5  -4556.9897747861   0.131155462817 0.00726476  0.00011659  0.0084286 0.0000
  6  -4556.7624726461   0.227302139927 0.00790351  0.00007436  0.0035128 0.0000
  7  -4556.8393021523  -0.076829506144 0.00370350  0.00004853  0.0022210 0.0000
  8  -4556.8057595827   0.033542569596 0.00375646  0.00003564  0.0013167 0.0000
                      *** Initiating the SOSCF procedure ***
                           *** Shutting down DIIS ***
                      *** Re-Reading the Fockian *** 
                      *** Removing any level shift *** 
ITER      Energy       Delta-E        Grad      Rot      Max-DP    RMS-DP
  9  -4556.81510720  -0.0093476183  0.002615  0.002615  0.003029  0.000034
               *** Restarting incremental Fock matrix formation ***
 10  -4556.83131263  -0.0162054263  0.000465  0.001908  0.000550  0.000009
 11  -4556.83132608  -0.0000134491  0.000330  0.003314  0.000893  0.000012
 12  -4556.83133629  -0.0000102113  0.000097  0.000542  0.000180  0.000003
 13  -4556.83133717  -0.0000008785  0.000041  0.000289  0.000123  0.000002
 14  -4556.83133753  -0.0000003591  0.000013  0.000110  0.000052  0.000001
 15  -4556.83133762  -0.0000000916  0.000013  0.000086  0.000038  0.000000
 16  -4556.83133766  -0.0000000395  0.000005  0.000045  0.000018  0.000000
                  ***Gradient check signals convergence***
              ***Rediagonalizing the Fockian in SOSCF/NRSCF***

               *****************************************************
               *                     SUCCESS                       *
               *           SCF CONVERGED AFTER  17 CYCLES          *
               *****************************************************


----------------
TOTAL SCF ENERGY
----------------

Total Energy       :        -4556.83133765 Eh         -123997.68462 eV

Components:
Nuclear Repulsion  :        10106.54845459 Eh          275013.16485 eV
Electronic Energy  :       -14663.37979224 Eh         -399010.84947 eV
One Electron Energy:       -26376.60350211 Eh         -717743.87069 eV
Two Electron Energy:        11713.22370987 Eh          318733.02122 eV

Virial components:
Potential Energy   :        -9100.45533262 Eh         -247635.97917 eV
Kinetic Energy     :         4543.62399498 Eh          123638.29455 eV
Virial Ratio       :            2.00290679


---------------
SCF CONVERGENCE
---------------

  Last Energy change         ...    9.7298e-09  Tolerance :   1.0000e-08
  Last MAX-Density change    ...    6.2016e-06  Tolerance :   1.0000e-07
  Last RMS-Density change    ...    1.1166e-07  Tolerance :   5.0000e-09
  Last Orbital Gradient      ...    2.1339e-06  Tolerance :   1.0000e-05
  Last Orbital Rotation      ...    1.8145e-05  Tolerance :   1.0000e-05

             **** THE GBW FILE WAS UPDATED (Y5.gbw) ****
             **** DENSITY FILE WAS UPDATED (Y5.scfp) ****
             **** ENERGY FILE WAS UPDATED (Y5.en.tmp) ****
             **** THE GBW FILE WAS UPDATED (Y5.gbw) ****
             **** DENSITY FILE WAS UPDATED (Y5.scfp) ****
----------------
ORBITAL ENERGIES
----------------

  NO   OCC          E(Eh)            E(eV) 
   0   2.0000     -92.014792     -2503.8498 
   1   2.0000     -91.981056     -2502.9318 
   2   2.0000     -91.979830     -2502.8984 
   3   2.0000     -91.974483     -2502.7529 
   4   2.0000     -91.971719     -2502.6777 
   5   2.0000     -20.564211      -559.5806 
   6   2.0000     -20.556494      -559.3706 
   7   2.0000     -15.654322      -425.9758 
   8   2.0000     -15.648927      -425.8290 
   9   2.0000     -15.616093      -424.9355 
  10   2.0000     -15.615296      -424.9138 
  11   2.0000     -15.595436      -424.3734 
  12   2.0000     -15.592337      -424.2891 
  13   2.0000     -15.588394      -424.1818 
  14   2.0000     -15.583510      -424.0489 
  15   2.0000     -11.362716      -309.1952 
  16   2.0000     -11.355761      -309.0060 
  17   2.0000     -11.345100      -308.7159 
  18   2.0000     -11.338878      -308.5465 
  19   2.0000     -11.332598      -308.3757 
  20   2.0000     -11.331020      -308.3327 
  21   2.0000     -11.328075      -308.2526 
  22   2.0000     -11.321598      -308.0763 
  23   2.0000     -11.319220      -308.0116 
  24   2.0000     -11.315925      -307.9220 
  25   2.0000     -11.315744      -307.9171 
  26   2.0000     -11.315194      -307.9021 
  27   2.0000     -11.312748      -307.8355 
  28   2.0000     -11.311883      -307.8120 
  29   2.0000     -11.310993      -307.7878 
  30   2.0000     -11.310540      -307.7754 
  31   2.0000     -11.308256      -307.7133 
  32   2.0000     -11.307931      -307.7045 
  33   2.0000     -11.306913      -307.6767 
  34   2.0000     -11.302228      -307.5493 
  35   2.0000     -11.301596      -307.5321 
  36   2.0000     -11.301155      -307.5201 
  37   2.0000     -11.300647      -307.5062 
  38   2.0000     -11.299008      -307.4616 
  39   2.0000     -11.296267      -307.3870 
  40   2.0000     -11.295316      -307.3612 
  41   2.0000     -11.295029      -307.3534 
  42   2.0000     -11.294292      -307.3333 
  43   2.0000     -11.293291      -307.3061 
  44   2.0000     -11.292106      -307.2738 
  45   2.0000     -11.289927      -307.2145 
  46   2.0000     -11.289448      -307.2015 
  47   2.0000     -11.283142      -307.0299 
  48   2.0000     -11.282512      -307.0128 
  49   2.0000     -11.281722      -306.9913 
  50   2.0000     -11.280928      -306.9697 
  51   2.0000     -11.280773      -306.9654 
  52   2.0000     -11.278426      -306.9016 
  53   2.0000     -11.278412      -306.9012 
  54   2.0000     -11.277422      -306.8743 
  55   2.0000     -11.277076      -306.8648 
  56   2.0000     -11.276185      -306.8406 
  57   2.0000     -11.275961      -306.8345 
  58   2.0000     -11.275428      -306.8200 
  59   2.0000     -11.272355      -306.7364 
  60   2.0000     -11.268814      -306.6400 
  61   2.0000     -11.265729      -306.5561 
  62   2.0000     -11.264465      -306.5217 
  63   2.0000     -11.259222      -306.3790 
  64   2.0000     -11.255703      -306.2832 
  65   2.0000     -11.243164      -305.9421 
  66   2.0000     -11.241880      -305.9071 
  67   2.0000      -9.045966      -246.1532 
  68   2.0000      -9.015293      -245.3186 
  69   2.0000      -9.014350      -245.2929 
  70   2.0000      -9.008312      -245.1286 
  71   2.0000      -9.005487      -245.0518 
  72   2.0000      -6.733154      -183.2184 
  73   2.0000      -6.731438      -183.1717 
  74   2.0000      -6.729623      -183.1224 
  75   2.0000      -6.702916      -182.3956 
  76   2.0000      -6.701983      -182.3702 
  77   2.0000      -6.701865      -182.3670 
  78   2.0000      -6.700901      -182.3408 
  79   2.0000      -6.699798      -182.3108 
  80   2.0000      -6.698823      -182.2843 
  81   2.0000      -6.695819      -182.2025 
  82   2.0000      -6.694992      -182.1800 
  83   2.0000      -6.693016      -182.1262 
  84   2.0000      -6.692688      -182.1173 
  85   2.0000      -6.692182      -182.1035 
  86   2.0000      -6.689877      -182.0408 
  87   2.0000      -1.392849       -37.9013 
  88   2.0000      -1.385280       -37.6954 
  89   2.0000      -1.347080       -36.6559 
  90   2.0000      -1.333508       -36.2866 
  91   2.0000      -1.329217       -36.1698 
  92   2.0000      -1.241490       -33.7827 
  93   2.0000      -1.234434       -33.5907 
  94   2.0000      -1.223035       -33.2805 
  95   2.0000      -1.221649       -33.2428 
  96   2.0000      -1.216719       -33.1086 
  97   2.0000      -1.213695       -33.0263 
  98   2.0000      -1.211013       -32.9533 
  99   2.0000      -1.207037       -32.8451 
 100   2.0000      -1.190009       -32.3818 
 101   2.0000      -1.164161       -31.6784 
 102   2.0000      -1.157925       -31.5088 
 103   2.0000      -1.153007       -31.3749 
 104   2.0000      -1.143119       -31.1058 
 105   2.0000      -1.136409       -30.9233 
 106   2.0000      -1.101357       -29.9694 
 107   2.0000      -1.092279       -29.7224 
 108   2.0000      -1.085142       -29.5282 
 109   2.0000      -1.081393       -29.4262 
 110   2.0000      -1.079502       -29.3748 
 111   2.0000      -1.070187       -29.1213 
 112   2.0000      -1.062585       -28.9144 
 113   2.0000      -1.057543       -28.7772 
 114   2.0000      -1.047977       -28.5169 
 115   2.0000      -1.042006       -28.3544 
 116   2.0000      -1.030783       -28.0490 
 117   2.0000      -1.025492       -27.9051 
 118   2.0000      -1.005442       -27.3595 
 119   2.0000      -1.001871       -27.2623 
 120   2.0000      -0.994414       -27.0594 
 121   2.0000      -0.979207       -26.6456 
 122   2.0000      -0.964033       -26.2327 
 123   2.0000      -0.957763       -26.0621 
 124   2.0000      -0.946301       -25.7502 
 125   2.0000      -0.928783       -25.2735 
 126   2.0000      -0.919882       -25.0313 
 127   2.0000      -0.911416       -24.8009 
 128   2.0000      -0.899126       -24.4665 
 129   2.0000      -0.894557       -24.3421 
 130   2.0000      -0.877859       -23.8878 
 131   2.0000      -0.869199       -23.6521 
 132   2.0000      -0.867717       -23.6118 
 133   2.0000      -0.860758       -23.4224 
 134   2.0000      -0.848968       -23.1016 
 135   2.0000      -0.843095       -22.9418 
 136   2.0000      -0.836098       -22.7514 
 137   2.0000      -0.829089       -22.5607 
 138   2.0000      -0.812001       -22.0957 
 139   2.0000      -0.808843       -22.0097 
 140   2.0000      -0.803490       -21.8641 
 141   2.0000      -0.788960       -21.4687 
 142   2.0000      -0.785286       -21.3687 
 143   2.0000      -0.774374       -21.0718 
 144   2.0000      -0.767860       -20.8945 
 145   2.0000      -0.758314       -20.6348 
 146   2.0000      -0.747887       -20.3510 
 147   2.0000      -0.741744       -20.1839 
 148   2.0000      -0.740081       -20.1386 
 149   2.0000      -0.728538       -19.8245 
 150   2.0000      -0.719396       -19.5758 
 151   2.0000      -0.718430       -19.5495 
 152   2.0000      -0.713833       -19.4244 
 153   2.0000      -0.703772       -19.1506 
 154   2.0000      -0.700541       -19.0627 
 155   2.0000      -0.692855       -18.8536 
 156   2.0000      -0.683652       -18.6031 
 157   2.0000      -0.682399       -18.5690 
 158   2.0000      -0.674773       -18.3615 
 159   2.0000      -0.672285       -18.2938 
 160   2.0000      -0.667520       -18.1641 
 161   2.0000      -0.661410       -17.9979 
 162   2.0000      -0.656238       -17.8571 
 163   2.0000      -0.648794       -17.6546 
 164   2.0000      -0.645960       -17.5775 
 165   2.0000      -0.642581       -17.4855 
 166   2.0000      -0.640649       -17.4330 
 167   2.0000      -0.639941       -17.4137 
 168   2.0000      -0.637880       -17.3576 
 169   2.0000      -0.634421       -17.2635 
 170   2.0000      -0.632008       -17.1978 
 171   2.0000      -0.629536       -17.1305 
 172   2.0000      -0.625396       -17.0179 
 173   2.0000      -0.618184       -16.8216 
 174   2.0000      -0.616515       -16.7762 
 175   2.0000      -0.616014       -16.7626 
 176   2.0000      -0.611488       -16.6394 
 177   2.0000      -0.607653       -16.5351 
 178   2.0000      -0.606566       -16.5055 
 179   2.0000      -0.603677       -16.4269 
 180   2.0000      -0.600285       -16.3346 
 181   2.0000      -0.597173       -16.2499 
 182   2.0000      -0.593158       -16.1406 
 183   2.0000      -0.585036       -15.9196 
 184   2.0000      -0.577479       -15.7140 
 185   2.0000      -0.576211       -15.6795 
 186   2.0000      -0.574643       -15.6368 
 187   2.0000      -0.572436       -15.5768 
 188   2.0000      -0.571084       -15.5400 
 189   2.0000      -0.569479       -15.4963 
 190   2.0000      -0.567875       -15.4527 
 191   2.0000      -0.565858       -15.3978 
 192   2.0000      -0.564094       -15.3498 
 193   2.0000      -0.562459       -15.3053 
 194   2.0000      -0.561210       -15.2713 
 195   2.0000      -0.557024       -15.1574 
 196   2.0000      -0.555712       -15.1217 
 197   2.0000      -0.552518       -15.0348 
 198   2.0000      -0.547546       -14.8995 
 199   2.0000      -0.546055       -14.8589 
 200   2.0000      -0.542098       -14.7512 
 201   2.0000      -0.541814       -14.7435 
 202   2.0000      -0.540345       -14.7035 
 203   2.0000      -0.536536       -14.5999 
 204   2.0000      -0.535302       -14.5663 
 205   2.0000      -0.531584       -14.4651 
 206   2.0000      -0.530258       -14.4291 
 207   2.0000      -0.528916       -14.3925 
 208   2.0000      -0.526878       -14.3371 
 209   2.0000      -0.522690       -14.2231 
 210   2.0000      -0.521951       -14.2030 
 211   2.0000      -0.515346       -14.0233 
 212   2.0000      -0.510161       -13.8822 
 213   2.0000      -0.506257       -13.7760 
 214   2.0000      -0.501720       -13.6525 
 215   2.0000      -0.498006       -13.5514 
 216   2.0000      -0.493480       -13.4283 
 217   2.0000      -0.493279       -13.4228 
 218   2.0000      -0.489953       -13.3323 
 219   2.0000      -0.488673       -13.2975 
 220   2.0000      -0.486650       -13.2424 
 221   2.0000      -0.483967       -13.1694 
 222   2.0000      -0.482206       -13.1215 
 223   2.0000      -0.479625       -13.0512 
 224   2.0000      -0.469120       -12.7654 
 225   2.0000      -0.468815       -12.7571 
 226   2.0000      -0.467593       -12.7239 
 227   2.0000      -0.463556       -12.6140 
 228   2.0000      -0.458492       -12.4762 
 229   2.0000      -0.449680       -12.2364 
 230   2.0000      -0.445575       -12.1247 
 231   2.0000      -0.441631       -12.0174 
 232   2.0000      -0.435703       -11.8561 
 233   2.0000      -0.406199       -11.0532 
 234   2.0000      -0.402950       -10.9648 
 235   2.0000      -0.381872       -10.3913 
 236   2.0000      -0.380488       -10.3536 
 237   2.0000      -0.375616       -10.2210 
 238   2.0000      -0.370663       -10.0863 
 239   2.0000      -0.355056        -9.6616 
 240   2.0000      -0.351894        -9.5755 
 241   2.0000      -0.347725        -9.4621 
 242   2.0000      -0.339208        -9.2303 
 243   2.0000      -0.328641        -8.9428 
 244   2.0000      -0.312375        -8.5001 
 245   2.0000      -0.303390        -8.2557 
 246   2.0000      -0.255482        -6.9520 
 247   0.0000      -0.024388        -0.6636 
 248   0.0000      -0.011895        -0.3237 
 249   0.0000       0.017375         0.4728 
 250   0.0000       0.026834         0.7302 
 251   0.0000       0.035944         0.9781 
 252   0.0000       0.069196         1.8829 
 253   0.0000       0.079938         2.1752 
 254   0.0000       0.110839         3.0161 
 255   0.0000       0.119822         3.2605 
 256   0.0000       0.137278         3.7355 
 257   0.0000       0.141143         3.8407 
 258   0.0000       0.144314         3.9270 
 259   0.0000       0.147305         4.0084 
 260   0.0000       0.148640         4.0447 
 261   0.0000       0.154645         4.2081 
 262   0.0000       0.155761         4.2385 
 263   0.0000       0.158899         4.3239 
 264   0.0000       0.164288         4.4705 
 265   0.0000       0.167353         4.5539 
 266   0.0000       0.170594         4.6421 
 267   0.0000       0.174534         4.7493 
 268   0.0000       0.177158         4.8207 
 269   0.0000       0.178447         4.8558 
 270   0.0000       0.182900         4.9770 
 271   0.0000       0.185968         5.0604 
 272   0.0000       0.190168         5.1747 
 273   0.0000       0.193400         5.2627 
 274   0.0000       0.194472         5.2918 
 275   0.0000       0.196742         5.3536 
 276   0.0000       0.200388         5.4528 
 277   0.0000       0.205773         5.5994 
 278   0.0000       0.210199         5.7198 
 279   0.0000       0.211338         5.7508 
 280   0.0000       0.212310         5.7772 
 281   0.0000       0.215878         5.8743 
 282   0.0000       0.217001         5.9049 
 283   0.0000       0.219971         5.9857 
 284   0.0000       0.223787         6.0896 
 285   0.0000       0.225756         6.1431 
 286   0.0000       0.226432         6.1615 
 287   0.0000       0.229841         6.2543 
 288   0.0000       0.232711         6.3324 
 289   0.0000       0.235797         6.4164 
 290   0.0000       0.239200         6.5090 
 291   0.0000       0.241747         6.5783 
 292   0.0000       0.243623         6.6293 
 293   0.0000       0.244218         6.6455 
 294   0.0000       0.245908         6.6915 
 295   0.0000       0.248305         6.7567 
 296   0.0000       0.250842         6.8257 
 297   0.0000       0.251657         6.8479 
 298   0.0000       0.254864         6.9352 
 299   0.0000       0.257367         7.0033 
 300   0.0000       0.259280         7.0554 
 301   0.0000       0.259906         7.0724 
 302   0.0000       0.266496         7.2517 
 303   0.0000       0.272823         7.4239 
 304   0.0000       0.274665         7.4740 
 305   0.0000       0.277404         7.5485 
 306   0.0000       0.278029         7.5656 
 307   0.0000       0.282919         7.6986 
 308   0.0000       0.293231         7.9792 
 309   0.0000       0.294877         8.0240 
 310   0.0000       0.298653         8.1268 
 311   0.0000       0.304490         8.2856 
 312   0.0000       0.309774         8.4294 
 313   0.0000       0.311824         8.4852 
 314   0.0000       0.322667         8.7802 
 315   0.0000       0.327598         8.9144 
 316   0.0000       0.329309         8.9609 
 317   0.0000       0.332205         9.0398 
 318   0.0000       0.334666         9.1067 
 319   0.0000       0.340315         9.2605 
 320   0.0000       0.340946         9.2776 
 321   0.0000       0.341583         9.2949 
 322   0.0000       0.348762         9.4903 
 323   0.0000       0.350980         9.5507 
 324   0.0000       0.354969         9.6592 
 325   0.0000       0.357440         9.7264 
 326   0.0000       0.360102         9.7989 
 327   0.0000       0.360474         9.8090 
 328   0.0000       0.365139         9.9359 
 329   0.0000       0.366308         9.9678 
 330   0.0000       0.367554        10.0016 
 331   0.0000       0.373050        10.1512 
 332   0.0000       0.379087        10.3155 
 333   0.0000       0.380941        10.3659 
 334   0.0000       0.384418        10.4605 
 335   0.0000       0.387075        10.5328 
 336   0.0000       0.391652        10.6574 
 337   0.0000       0.392467        10.6796 
 338   0.0000       0.398652        10.8479 
 339   0.0000       0.401415        10.9231 
 340   0.0000       0.404821        11.0158 
 341   0.0000       0.406997        11.0749 
 342   0.0000       0.408227        11.1084 
 343   0.0000       0.412844        11.2340 
 344   0.0000       0.416472        11.3328 
 345   0.0000       0.419613        11.4182 
 346   0.0000       0.422234        11.4896 
 347   0.0000       0.427350        11.6288 
 348   0.0000       0.432277        11.7628 
 349   0.0000       0.437531        11.9058 
 350   0.0000       0.438104        11.9214 
 351   0.0000       0.442314        12.0360 
 352   0.0000       0.446383        12.1467 
 353   0.0000       0.451842        12.2952 
 354   0.0000       0.452305        12.3078 
 355   0.0000       0.454571        12.3695 
 356   0.0000       0.459256        12.4970 
 357   0.0000       0.461771        12.5654 
 358   0.0000       0.467405        12.7187 
 359   0.0000       0.471842        12.8395 
 360   0.0000       0.475891        12.9496 
 361   0.0000       0.478615        13.0238 
 362   0.0000       0.480029        13.0622 
 363   0.0000       0.482847        13.1389 
 364   0.0000       0.490123        13.3369 
 365   0.0000       0.492158        13.3923 
 366   0.0000       0.496515        13.5109 
 367   0.0000       0.500726        13.6255 
 368   0.0000       0.502369        13.6702 
 369   0.0000       0.507643        13.8137 
 370   0.0000       0.509496        13.8641 
 371   0.0000       0.516473        14.0540 
 372   0.0000       0.517617        14.0851 
 373   0.0000       0.519736        14.1427 
 374   0.0000       0.522995        14.2314 
 375   0.0000       0.528850        14.3907 
 376   0.0000       0.529509        14.4087 
 377   0.0000       0.535135        14.5618 
 378   0.0000       0.537104        14.6153 
 379   0.0000       0.542986        14.7754 
 380   0.0000       0.551131        14.9970 
 381   0.0000       0.555581        15.1181 
 382   0.0000       0.557632        15.1739 
 383   0.0000       0.559787        15.2326 
 384   0.0000       0.560123        15.2417 
 385   0.0000       0.564820        15.3695 
 386   0.0000       0.570829        15.5330 
 387   0.0000       0.573656        15.6100 
 388   0.0000       0.581520        15.8240 
 389   0.0000       0.587293        15.9811 
 390   0.0000       0.588840        16.0232 
 391   0.0000       0.591775        16.1030 
 392   0.0000       0.593998        16.1635 
 393   0.0000       0.599492        16.3130 
 394   0.0000       0.600531        16.3413 
 395   0.0000       0.605354        16.4725 
 396   0.0000       0.609776        16.5928 
 397   0.0000       0.611187        16.6313 
 398   0.0000       0.613729        16.7004 
 399   0.0000       0.616813        16.7843 
 400   0.0000       0.621022        16.8989 
 401   0.0000       0.627723        17.0812 
 402   0.0000       0.629392        17.1266 
 403   0.0000       0.632329        17.2066 
 404   0.0000       0.635297        17.2873 
 405   0.0000       0.637892        17.3579 
 406   0.0000       0.638839        17.3837 
 407   0.0000       0.643403        17.5079 
 408   0.0000       0.647395        17.6165 
 409   0.0000       0.649889        17.6844 
 410   0.0000       0.651756        17.7352 
 411   0.0000       0.653718        17.7886 
 412   0.0000       0.654963        17.8225 
 413   0.0000       0.656923        17.8758 
 414   0.0000       0.659289        17.9402 
 415   0.0000       0.662818        18.0362 
 416   0.0000       0.664217        18.0743 
 417   0.0000       0.665906        18.1202 
 418   0.0000       0.667722        18.1696 
 419   0.0000       0.670909        18.2564 
 420   0.0000       0.674176        18.3453 
 421   0.0000       0.679565        18.4919 
 422   0.0000       0.682960        18.5843 
 423   0.0000       0.684122        18.6159 
 424   0.0000       0.687965        18.7205 
 425   0.0000       0.693951        18.8834 
 426   0.0000       0.696583        18.9550 
 427   0.0000       0.698809        19.0156 
 428   0.0000       0.702395        19.1131 
 429   0.0000       0.705075        19.1861 
 430   0.0000       0.708003        19.2657 
 431   0.0000       0.709929        19.3181 
 432   0.0000       0.713115        19.4049 
 433   0.0000       0.716454        19.4957 
 434   0.0000       0.718249        19.5445 
 435   0.0000       0.719334        19.5741 
 436   0.0000       0.721422        19.6309 
 437   0.0000       0.725622        19.7452 
 438   0.0000       0.726297        19.7636 
 439   0.0000       0.732220        19.9247 
 440   0.0000       0.737319        20.0635 
 441   0.0000       0.740170        20.1411 
 442   0.0000       0.740611        20.1530 
 443   0.0000       0.744877        20.2691 
 444   0.0000       0.747987        20.3538 
 445   0.0000       0.755316        20.5532 
 446   0.0000       0.757011        20.5993 
 447   0.0000       0.758024        20.6269 
 448   0.0000       0.764945        20.8152 
 449   0.0000       0.767474        20.8840 
 450   0.0000       0.770716        20.9723 
 451   0.0000       0.773389        21.0450 
 452   0.0000       0.777171        21.1479 
 453   0.0000       0.778803        21.1923 
 454   0.0000       0.780673        21.2432 
 455   0.0000       0.784201        21.3392 
 456   0.0000       0.791172        21.5289 
 457   0.0000       0.797195        21.6928 
 458   0.0000       0.798362        21.7245 
 459   0.0000       0.802314        21.8321 
 460   0.0000       0.806508        21.9462 
 461   0.0000       0.808728        22.0066 
 462   0.0000       0.810324        22.0500 
 463   0.0000       0.811252        22.0753 
 464   0.0000       0.815079        22.1794 
 465   0.0000       0.816658        22.2224 
 466   0.0000       0.821338        22.3497 
 467   0.0000       0.823457        22.4074 
 468   0.0000       0.825949        22.4752 
 469   0.0000       0.828189        22.5362 
 470   0.0000       0.829238        22.5647 
 471   0.0000       0.832034        22.6408 
 472   0.0000       0.834413        22.7055 
 473   0.0000       0.837114        22.7790 
 474   0.0000       0.838308        22.8115 
 475   0.0000       0.840079        22.8597 
 476   0.0000       0.842707        22.9312 
 477   0.0000       0.845512        23.0076 
 478   0.0000       0.847434        23.0599 
 479   0.0000       0.847519        23.0622 
 480   0.0000       0.850270        23.1370 
 481   0.0000       0.850552        23.1447 
 482   0.0000       0.851728        23.1767 
 483   0.0000       0.854730        23.2584 
 484   0.0000       0.858246        23.3541 
 485   0.0000       0.858518        23.3615 
 486   0.0000       0.859985        23.4014 
 487   0.0000       0.861125        23.4324 
 488   0.0000       0.862877        23.4801 
 489   0.0000       0.864064        23.5124 
 490   0.0000       0.865400        23.5487 
 491   0.0000       0.869895        23.6711 
 492   0.0000       0.871839        23.7240 
 493   0.0000       0.872624        23.7453 
 494   0.0000       0.873875        23.7793 
 495   0.0000       0.876597        23.8534 
 496   0.0000       0.878151        23.8957 
 497   0.0000       0.879146        23.9228 
 498   0.0000       0.880980        23.9727 
 499   0.0000       0.882668        24.0186 
 500   0.0000       0.884422        24.0663 
 501   0.0000       0.886493        24.1227 
 502   0.0000       0.887957        24.1625 
 503   0.0000       0.889502        24.2046 
 504   0.0000       0.892541        24.2873 
 505   0.0000       0.894743        24.3472 
 506   0.0000       0.895079        24.3563 
 507   0.0000       0.896487        24.3946 
 508   0.0000       0.898357        24.4455 
 509   0.0000       0.899565        24.4784 
 510   0.0000       0.901390        24.5281 
 511   0.0000       0.903142        24.5757 
 512   0.0000       0.906003        24.6536 
 513   0.0000       0.908926        24.7331 
 514   0.0000       0.910443        24.7744 
 515   0.0000       0.914342        24.8805 
 516   0.0000       0.916011        24.9259 
 517   0.0000       0.916970        24.9520 
 518   0.0000       0.918521        24.9942 
 519   0.0000       0.919266        25.0145 
 520   0.0000       0.920546        25.0493 
 521   0.0000       0.922238        25.0954 
 522   0.0000       0.923369        25.1262 
 523   0.0000       0.925540        25.1852 
 524   0.0000       0.926754        25.2183 
 525   0.0000       0.932300        25.3692 
 526   0.0000       0.933820        25.4105 
 527   0.0000       0.935707        25.4619 
 528   0.0000       0.936823        25.4923 
 529   0.0000       0.938243        25.5309 
 530   0.0000       0.939443        25.5636 
 531   0.0000       0.943609        25.6769 
 532   0.0000       0.945936        25.7402 
 533   0.0000       0.947613        25.7859 
 534   0.0000       0.949084        25.8259 
 535   0.0000       0.949738        25.8437 
 536   0.0000       0.951890        25.9022 
 537   0.0000       0.956613        26.0308 
 538   0.0000       0.958704        26.0876 
 539   0.0000       0.961096        26.1527 
 540   0.0000       0.962200        26.1828 
 541   0.0000       0.963024        26.2052 
 542   0.0000       0.965644        26.2765 
 543   0.0000       0.971762        26.4430 
 544   0.0000       0.973476        26.4896 
 545   0.0000       0.977728        26.6053 
 546   0.0000       0.980180        26.6721 
 547   0.0000       0.982607        26.7381 
 548   0.0000       0.983936        26.7743 
 549   0.0000       0.988431        26.8966 
 550   0.0000       0.992039        26.9947 
 551   0.0000       0.993678        27.0394 
 552   0.0000       0.995996        27.1024 
 553   0.0000       0.998871        27.1807 
 554   0.0000       1.000470        27.2242 
 555   0.0000       1.002509        27.2797 
 556   0.0000       1.004335        27.3293 
 557   0.0000       1.005060        27.3491 
 558   0.0000       1.007008        27.4021 
 559   0.0000       1.012250        27.5447 
 560   0.0000       1.014323        27.6011 
 561   0.0000       1.015468        27.6323 
 562   0.0000       1.016411        27.6579 
 563   0.0000       1.021555        27.7979 
 564   0.0000       1.024439        27.8764 
 565   0.0000       1.026208        27.9246 
 566   0.0000       1.028250        27.9801 
 567   0.0000       1.033169        28.1139 
 568   0.0000       1.036976        28.2176 
 569   0.0000       1.038404        28.2564 
 570   0.0000       1.041295        28.3351 
 571   0.0000       1.043647        28.3991 
 572   0.0000       1.048816        28.5397 
 573   0.0000       1.050786        28.5934 
 574   0.0000       1.053757        28.6742 
 575   0.0000       1.059750        28.8373 
 576   0.0000       1.060333        28.8531 
 577   0.0000       1.066759        29.0280 
 578   0.0000       1.068495        29.0752 
 579   0.0000       1.071550        29.1584 
 580   0.0000       1.076128        29.2829 
 581   0.0000       1.078563        29.3492 
 582   0.0000       1.081216        29.4214 
 583   0.0000       1.083005        29.4701 
 584   0.0000       1.088686        29.6246 
 585   0.0000       1.089287        29.6410 
 586   0.0000       1.094599        29.7855 
 587   0.0000       1.095755        29.8170 
 588   0.0000       1.099124        29.9087 
 589   0.0000       1.105728        30.0884 
 590   0.0000       1.108896        30.1746 
 591   0.0000       1.113276        30.2938 
 592   0.0000       1.118328        30.4312 
 593   0.0000       1.125432        30.6246 
 594   0.0000       1.127370        30.6773 
 595   0.0000       1.129161        30.7260 
 596   0.0000       1.135916        30.9098 
 597   0.0000       1.140606        31.0375 
 598   0.0000       1.142744        31.0957 
 599   0.0000       1.143879        31.1265 
 600   0.0000       1.146986        31.2111 
 601   0.0000       1.150061        31.2947 
 602   0.0000       1.155906        31.4538 
 603   0.0000       1.159342        31.5473 
 604   0.0000       1.165755        31.7218 
 605   0.0000       1.166524        31.7427 
 606   0.0000       1.169458        31.8226 
 607   0.0000       1.171584        31.8804 
 608   0.0000       1.173374        31.9291 
 609   0.0000       1.179939        32.1078 
 610   0.0000       1.186177        32.2775 
 611   0.0000       1.193224        32.4693 
 612   0.0000       1.194620        32.5073 
 613   0.0000       1.200486        32.6669 
 614   0.0000       1.206527        32.8313 
 615   0.0000       1.211091        32.9555 
 616   0.0000       1.213991        33.0344 
 617   0.0000       1.224126        33.3101 
 618   0.0000       1.226082        33.3634 
 619   0.0000       1.230065        33.4718 
 620   0.0000       1.231832        33.5198 
 621   0.0000       1.236778        33.6544 
 622   0.0000       1.240254        33.7490 
 623   0.0000       1.243099        33.8264 
 624   0.0000       1.247097        33.9352 
 625   0.0000       1.249951        34.0129 
 626   0.0000       1.255268        34.1576 
 627   0.0000       1.262071        34.3427 
 628   0.0000       1.265037        34.4234 
 629   0.0000       1.272475        34.6258 
 630   0.0000       1.273552        34.6551 
 631   0.0000       1.277999        34.7761 
 632   0.0000       1.285311        34.9751 
 633   0.0000       1.291336        35.1390 
 634   0.0000       1.295898        35.2632 
 635   0.0000       1.296309        35.2744 
 636   0.0000       1.299431        35.3593 
 637   0.0000       1.304175        35.4884 
 638   0.0000       1.307482        35.5784 
 639   0.0000       1.309199        35.6251 
 640   0.0000       1.312515        35.7153 
 641   0.0000       1.314709        35.7751 
 642   0.0000       1.315704        35.8021 
 643   0.0000       1.323431        36.0124 
 644   0.0000       1.329512        36.1778 
 645   0.0000       1.333161        36.2772 
[...]
   Using LibInt in JK Direct
   Time for J+K (Direct):  1033.874
   Time for Sigma-Completion:     4.795
   Size of expansion space: 15
   Lowest Energy          :     0.100627381246
   Maximum Energy change  :     0.007825757840 (vector 2)
   Maximum residual norm  :     0.000579100752

                       ****Iteration    3****
   Time for densities:     0.930
   Using LibInt in JK Direct
   Time for J+K (Direct):  1039.037
   Time for Sigma-Completion:     4.866
   Size of expansion space: 18
   Lowest Energy          :     0.100192559498
   Maximum Energy change  :     0.001987875215 (vector 2)
   Maximum residual norm  :     0.000271508294

                       ****Iteration    4****
   Time for densities:     0.929
   Using LibInt in JK Direct
   Time for J+K (Direct):  1084.535
   Time for Sigma-Completion:     4.643
   Size of expansion space: 21
   Lowest Energy          :     0.100128343877
   Maximum Energy change  :     0.000529695825 (vector 2)
   Maximum residual norm  :     0.000066016907

                       ****Iteration    5****
   Time for densities:     0.904
   Using LibInt in JK Direct
   Time for J+K (Direct):  1057.091
   Time for Sigma-Completion:     4.790
   Size of expansion space: 24
   Lowest Energy          :     0.100117865616
   Maximum Energy change  :     0.000169901737 (vector 2)
   Maximum residual norm  :     0.000018203873

                       ****Iteration    6****
   Time for densities:     0.930
   Using LibInt in JK Direct
   Time for J+K (Direct):  1052.878
   Time for Sigma-Completion:     4.825
   Size of expansion space: 27
   Lowest Energy          :     0.100115964725
   Maximum Energy change  :     0.000060006717 (vector 2)
   Maximum residual norm  :     0.000011447854

                       ****Iteration    7****
   Time for densities:     0.929
   Using LibInt in JK Direct
   Time for J+K (Direct):  1030.493
   Time for Sigma-Completion:     4.793
   Size of expansion space: 30
   Lowest Energy          :     0.100115505675
   Maximum Energy change  :     0.000027443514 (vector 2)
   Maximum residual norm  :     0.000003262487
   Rebuilding the expansion space

                       ****Iteration    8****
   Time for densities:     1.861
   Using LibInt in JK Direct
   Time for J+K (Direct):  2287.119
   Time for Sigma-Completion:    10.475
   Size of expansion space: 6
   Lowest Energy          :     0.100115422952
   Maximum Energy change  :     0.000006277505 (vector 2)
   Maximum residual norm  :     0.000001152699

                       ****Iteration    9****
   Time for densities:     0.954
   Using LibInt in JK Direct
   Time for J+K (Direct):  1155.450
   Time for Sigma-Completion:     5.161
   Size of expansion space: 9
   Lowest Energy          :     0.100115383251
   Maximum Energy change  :     0.000002936579 (vector 2)
   Maximum residual norm  :     0.000000342788

                       ****Iteration   10****
   Time for densities:     0.954
   Using LibInt in JK Direct
   Time for J+K (Direct):  1166.266
   Time for Sigma-Completion:     5.253
   Size of expansion space: 12
   Lowest Energy          :     0.100115371415
   Maximum Energy change  :     0.000001220780 (vector 2)
   Maximum residual norm  :     0.000000186738

      *** CONVERGENCE OF RESIDUAL NORM REACHED ***

Storing the converged CI vectors               ... Y5.cis1

                 *** DAVIDSON DONE ***

Total time for solving the CIS problem: 15377.423sec

-----------------------------
CIS-EXCITED STATES (SINGLETS)
-----------------------------

the weight of the individual excitations are printed if larger than 1.0e-02

STATE  1:  E=   0.100115 au      2.724 eV    21972.8 cm**-1
   242a -> 247a  :     0.011279 (c= -0.10620376)
   245a -> 247a  :     0.015790 (c=  0.12565928)
   245a -> 248a  :     0.154982 (c= -0.39367759)
   246a -> 247a  :     0.648341 (c=  0.80519653)
   246a -> 249a  :     0.033806 (c= -0.18386488)

STATE  2:  E=   0.119522 au      3.252 eV    26232.1 cm**-1
   239a -> 248a  :     0.010864 (c= -0.10423129)
   241a -> 248a  :     0.012617 (c= -0.11232391)
   242a -> 248a  :     0.072529 (c=  0.26931239)
   245a -> 247a  :     0.320266 (c=  0.56592041)
   245a -> 248a  :     0.012300 (c=  0.11090749)
   246a -> 248a  :     0.403379 (c= -0.63512125)
   246a -> 249a  :     0.012784 (c=  0.11306473)
   246a -> 250a  :     0.013195 (c= -0.11486851)
   246a -> 253a  :     0.011147 (c=  0.10557906)

STATE  3:  E=   0.146349 au      3.982 eV    32120.0 cm**-1
   239a -> 247a  :     0.010568 (c= -0.10280074)
   241a -> 248a  :     0.011406 (c= -0.10679785)
   242a -> 247a  :     0.096006 (c=  0.30984765)
   242a -> 251a  :     0.010764 (c= -0.10374909)
   245a -> 247a  :     0.010133 (c= -0.10066168)
   245a -> 248a  :     0.136369 (c=  0.36928192)
   246a -> 249a  :     0.278232 (c= -0.52747677)
   246a -> 250a  :     0.043107 (c= -0.20762162)
   246a -> 251a  :     0.220078 (c= -0.46912511)


----------------------
CIS-EXCITATION SPECTRA
----------------------

Center of mass = (-14.0927,-14.6330, -0.6060)
Calculating the Dipole integrals                  ... done
Transforming integrals                            ... done
Calculating the Linear Momentum integrals         ... done
Transforming integrals                            ... done
Calculating angular momentum integrals            ... done
Transforming integrals                            ... done

-----------------------------------------------------------------------------
         ABSORPTION SPECTRUM VIA TRANSITION ELECTRIC DIPOLE MOMENTS
-----------------------------------------------------------------------------
State   Energy    Wavelength  fosc         T2        TX        TY        TZ  
        (cm-1)      (nm)                 (au**2)    (au)      (au)      (au) 
-----------------------------------------------------------------------------
   1   21972.8    455.1   1.980050771  29.66653   3.80605   3.89531  -0.08385
   2   26232.1    381.2   0.614335709   7.70989   0.44852  -1.33848   2.39106
   3   32120.0    311.3   0.239296237   2.45265   1.09733   0.30555  -1.07479

-----------------------------------------------------------------------------
         ABSORPTION SPECTRUM VIA TRANSITION VELOCITY DIPOLE MOMENTS
-----------------------------------------------------------------------------
State   Energy    Wavelength   fosc        P2         PX        PY        PZ  
        (cm-1)      (nm)                 (au**2)     (au)      (au)      (au) 
-----------------------------------------------------------------------------
   1   21972.8    455.1   1.047721444   0.15734  -0.28709  -0.27367   0.00475
   2   26232.1    381.2   0.117818894   0.02112   0.01571   0.08507  -0.11679
   3   32120.0    311.3   0.007536667   0.00165   0.00736   0.02875   0.02781

-------------------------------------------------------------------
                             CD SPECTRUM
-------------------------------------------------------------------
State  Energy     Wavelength     R         MX        MY        MZ   
       (cm-1)       (nm)     (1e40*cgs)   (au)      (au)      (au)  
-------------------------------------------------------------------
   1   21972.8    455.1    -1118.68486   0.60394  -1.21700  -0.82429
   2   26232.1    381.2    784.40754   0.90455  -0.52689   0.23122
   3   32120.0    311.3    -151.89044  -0.31459   0.60215   0.14976

Total run time:    15413.329 sec

           *** ORCA-CIS/TD-DFT FINISHED WITHOUT ERROR ***

-----------------------
CIS/TD-DFT TOTAL ENERGY
-----------------------

    E(SCF)  =  -4556.831337647 Eh
    DE(CIS) =      0.100115371 Eh (Root  1)
    ----------------------------- ---------
    E(tot)  =  -4556.731222275 Eh


-------------------------   --------------------
FINAL SINGLE POINT ENERGY     -4556.731222275306
-------------------------   --------------------

------------------------------------------------------------------------------
                         ORCA SCF GRADIENT CALCULATION
------------------------------------------------------------------------------


------------
CIS GRADIENT
------------

Reference wavefunction             ... RHF
State of interest                  ... 1
Basis dimension                    ... 1108
DFT-XC contribution needed         ... NO
RI-approximation                   ... OFF
CIS-vectors being read from        ... Y5.cis

 => Number of Vectors found: 3
 => Orbital Window: 87...246 -> 247...1107

Reading the CIS file                     ... done
Norm of the CI vector                    ... 1.000000000
Making the CIS (pseudo)densities         ... done
Making operators G(D) and Q(T)           ... done
Transforming the Fock operators          ... done
Making the frozen-core relaxed density   ... done
Constructing the G(H) operator           ... done
Transforming the G(H) operator           ... done
Calculating the CIS Lagrangian           ... done
Solving the Z-vector equations           ... done
Finalizing the relaxed density           ... done
Storing the relaxed density              ... done
Constructing the G(Z) operator           ... done
Transforming the G(Z) operator           ... done
Making the W-matrix                      ... done
Finalizing the W-matrix                  ... done
Transforming the W-matrix                ... done
Nuclear repulsion gradient               ... done
One-Electron gradient                    ... done
Prescreening matrices                    ... done
Two-Electron gradient (4-center)         ... done
                 ---------------------------
                 EXCITED STATE GRADIENT DONE
                 ---------------------------


------------------
CARTESIAN GRADIENT
------------------

   1   C   :   -0.011782889   -0.003082520    0.035388814
   2   O   :    0.017846695    0.006518113   -0.043468864
   3   C   :   -0.001890534    0.000703959   -0.010623514
   4   C   :    0.003145311   -0.001182284    0.000818871
   5   C   :    0.002615555    0.000233687   -0.002527705
   6   C   :   -0.002433036    0.000443249    0.003958116
   7   C   :    0.001145577    0.001043555    0.002702649
   8   C   :   -0.017446032    0.000229618    0.000184753
   9   C   :    0.012780062   -0.007496504    0.001323693
  10   C   :   -0.011732616    0.004874348    0.008611041
  11   C   :    0.058613724   -0.032246679    0.030987523
  12   N   :   -0.054937747    0.026550720   -0.032724331
  13   C   :    0.004001506    0.004163335   -0.073342767
  14   N   :   -0.001705741   -0.003860163    0.069040084
  15   C   :   -0.008809658    0.002248831   -0.005718121
  16   C   :    0.004307193    0.000460822    0.013614212
  17   C   :   -0.004758724    0.002857658   -0.004033408
  18   S   :   -0.000171005    0.000287810    0.004221095
  19   C   :    0.011726671    0.004580013    0.004463740
  20   C   :   -0.011741888   -0.002556289   -0.002870544
  21   C   :    0.012706482    0.008924340   -0.002876983
  22   C   :   -0.002900420   -0.000839067    0.009904087
  23   C   :    0.001458457   -0.004999368   -0.001770613
  24   S   :   -0.000486560    0.000447692   -0.002474104
  25   C   :    0.007617073    0.012015908   -0.004668261
  26   C   :   -0.001833944   -0.001066485    0.001591700
  27   N   :    0.001395886   -0.003072055    0.005340814
  28   C   :   -0.000368465   -0.000550890   -0.006468836
  29   C   :   -0.003633438    0.003493596    0.002068511
  30   C   :   -0.001452360    0.001060958   -0.000650277
  31   C   :   -0.020059236   -0.013447502   -0.009491717
  32   C   :    0.012321465   -0.002758209    0.039579970
  33   N   :    0.009570626    0.029460798   -0.035086399
  34   S   :   -0.005584045   -0.000455205   -0.015159268
  35   N   :   -0.028387208   -0.031336461   -0.018030663
  36   C   :    0.016561810    0.005488837    0.036233059
  37   C   :    0.004260970    0.008874673   -0.020546865
  38   C   :    0.002602087   -0.000893820   -0.000805168
  39   N   :    0.004017746    0.005918891    0.006248390
  40   C   :    0.003435777   -0.007547190   -0.003453009
  41   C   :   -0.003443061    0.004631354   -0.002566354
  42   C   :   -0.002024292   -0.006263454    0.009645680
  43   C   :   -0.007684825   -0.008503402   -0.003198045
  44   S   :   -0.002566999   -0.002420239   -0.004540047
  45   C   :   -0.007104367   -0.006069962   -0.009057617
  46   C   :    0.005801602    0.005170540    0.010974980
  47   S   :    0.005116337    0.004238209    0.005633282
  48   C   :   -0.003969731   -0.008555848    0.009627640
  49   C   :   -0.006108244   -0.007909672   -0.008799093
  50   C   :    0.009554451    0.001760863    0.002685513
  51   C   :   -0.002796649    0.003493356    0.004953826
  52   C   :    0.007372229    0.004555023   -0.006895935
  53   C   :    0.003018631   -0.007684236   -0.005115726
  54   C   :   -0.019561493    0.004108864    0.008892617
  55   C   :    0.018282911   -0.005886753   -0.013225333
  56   C   :   -0.007270093    0.066857118    0.036239551
  57   N   :    0.005691542   -0.062019327   -0.034204859
  58   C   :   -0.065293640   -0.039826832    0.005830285
  59   N   :    0.058174528    0.041105961   -0.006596439
  60   C   :    0.013239846    0.003847189   -0.009816846
  61   C   :    0.000931425   -0.001467648   -0.001055373
  62   C   :    0.000929132   -0.003147568   -0.001946430
  63   C   :   -0.002724513    0.000460982    0.002624965
  64   C   :   -0.001632640   -0.001065029    0.001711516
  65   C   :    0.000219679    0.009028264    0.005183542
  66   C   :    0.008522061   -0.028032034   -0.026617694
  67   O   :   -0.014174119    0.031673079    0.033772824
  68   H   :    0.004466442    0.000634137   -0.006757798
  69   H   :    0.007948938   -0.000463720    0.001750120
  70   H   :    0.002994350   -0.001117147    0.007195984
  71   H   :   -0.006357239   -0.000333678    0.006445356
  72   H   :    0.004743381    0.001532663   -0.008953976
  73   H   :   -0.004457107   -0.001986808   -0.005390190
  74   H   :    0.007753110   -0.001226457   -0.002100337
  75   H   :   -0.006419104    0.001219620    0.003592245
  76   H   :    0.001793643    0.004449540   -0.004918129
  77   H   :    0.004870029    0.000804437    0.005842045
  78   H   :   -0.006615381   -0.004830729    0.007470362
  79   H   :    0.005036959    0.006363092    0.003654743
  80   H   :    0.004024904   -0.003292073    0.004610617
  81   H   :    0.003633076    0.004071449   -0.004971601
  82   H   :   -0.004531989   -0.004526681   -0.003222725
  83   H   :   -0.006899344    0.000019921    0.004425602
  84   H   :    0.004772539    0.008178420   -0.001059771
  85   H   :   -0.004193925   -0.006784165    0.001276609
  86   H   :    0.002973484    0.002490862    0.005615897
  87   H   :    0.005622752   -0.000567322   -0.005151185
  88   H   :   -0.004767943    0.004519693   -0.003891532
  89   H   :   -0.003743303   -0.005447745    0.006781771
  90   H   :    0.005956124   -0.004917225    0.004277138
  91   H   :    0.004684305    0.005137539   -0.005037352
  92   H   :   -0.004619849   -0.004052862   -0.003062599
  93   H   :   -0.002474395    0.004681544    0.007713548
  94   H   :    0.004676834   -0.003124751   -0.006942940
  95   H   :   -0.002759147   -0.006704952   -0.002871355
  96   H   :   -0.005510232   -0.004078689    0.003939096
  97   H   :   -0.003116740    0.003782568    0.006110219

Difference to translation invariance:
           :    0.0000000002   -0.0000000001   -0.0000000001

Norm of the cartesian gradient     ...    0.2579665830
RMS gradient                       ...    0.0151222689
MAX gradient                       ...    0.0733427667

-------
TIMINGS
-------

Total CIS gradient time            ...    16098.818 sec

Fock matrix formation       ....    1214.874 sec  (  7.5%)
  Coulomb formation         ....    1214.874 sec  (100.0% of F)
Z-vector equation           ....   13300.133 sec  ( 82.6%)
One electron gradient       ....      10.783 sec  (  0.1%)
Prescreening matrices       ....       1.022 sec  (  0.0%)
Two electron gradient       ....    1569.938 sec  (  9.8%)

                            ***************************************
                            *     ORCA property calculations      *
                            ***************************************

                                    ---------------------
                                    Active property flags
                                    ---------------------
   (+) Dipole Moment


------------------------------------------------------------------------------
                       ORCA ELECTRIC PROPERTIES CALCULATION
------------------------------------------------------------------------------

Dipole Moment Calculation                       ... on
Quadrupole Moment Calculation                   ... off
Polarizability Calculation                      ... off
GBWName                                         ... Y5.gbw
Electron density file                           ... Y5.scfp
The origin for moment calculation is the CENTER OF MASS  = (-14.092743, -14.632998 -0.606006)

-------------
DIPOLE MOMENT
-------------
                                X             Y             Z
Electronic contribution:    -12.74302       5.72540     -12.08723
Nuclear contribution   :     12.53580      -6.95489      12.70517
                        -----------------------------------------
Total Dipole Moment    :     -0.20722      -1.22948       0.61794
                        -----------------------------------------
Magnitude (a.u.)       :      1.39155
Magnitude (Debye)      :      3.53705



--------------------
Rotational spectrum 
--------------------
 
Rotational constants in cm-1:     0.002015     0.000338     0.000306 
Rotational constants in MHz :    60.402937    10.141615     9.165439 

 Dipole components along the rotational axes: 
x,y,z [a.u.] :    -1.110476     0.687004    -0.480924 
x,y,z [Debye]:    -2.822606     1.746226    -1.222411 

 

                        *** CIS RELAXED DENSITY ***

------------------------------------------------------------------------------
                       ORCA ELECTRIC PROPERTIES CALCULATION
------------------------------------------------------------------------------

Dipole Moment Calculation                       ... on
Quadrupole Moment Calculation                   ... off
Polarizability Calculation                      ... off
GBWName                                         ... Y5.gbw
Electron density file                           ... Y5.cisp
The origin for moment calculation is the CENTER OF MASS  = (-14.092743, -14.632998 -0.606006)

-------------
DIPOLE MOMENT
-------------
                                X             Y             Z
Electronic contribution:    -13.57197       5.44769     -12.81465
Nuclear contribution   :     12.53580      -6.95489      12.70517
                        -----------------------------------------
Total Dipole Moment    :     -1.03617      -1.50720      -0.10948
                        -----------------------------------------
Magnitude (a.u.)       :      1.83229
Magnitude (Debye)      :      4.65731



--------------------
Rotational spectrum 
--------------------
 
Rotational constants in cm-1:     0.002015     0.000338     0.000306 
Rotational constants in MHz :    60.402937    10.141615     9.165439 

 Dipole components along the rotational axes: 
x,y,z [a.u.] :    -1.762587    -0.243734    -0.437227 
x,y,z [Debye]:    -4.480141    -0.619523    -1.111342 

 

Timings for individual modules:

Sum of individual times         ...    36480.768 sec (= 608.013 min)
GTO integral calculation        ...        4.917 sec (=   0.082 min)   0.0 %
SCF iterations                  ...     4963.605 sec (=  82.727 min)  13.6 %
CIS module                      ...    15413.389 sec (= 256.890 min)  42.3 %
SCF Gradient evaluation         ...    16098.857 sec (= 268.314 min)  44.1 %
                             ****ORCA TERMINATED NORMALLY****
TOTAL RUN TIME: 0 days 10 hours 8 minutes 1 seconds 487 msec
