
                                 *****************
                                 * O   R   C   A *
                                 *****************

           --- An Ab Initio, DFT and Semiempirical electronic structure package ---

                  #######################################################
                  #                        -***-                        #
                  #          Department of theory and spectroscopy      #
                  #               Directorship: Frank Neese             #
                  #        Max Planck Institute fuer Kohlenforschung    #
                  #                Kaiser Wilhelm Platz 1               #
                  #                 D-45470 Muelheim/Ruhr               #
                  #                      Germany                        #
                  #                                                     #
                  #                  All rights reserved                #
                  #                        -***-                        #
                  #######################################################


                         Program Version 4.2.0 -  RELEASE  -


 With contributions from (in alphabetic order):
   Daniel Aravena         : Magnetic Suceptibility
   Michael Atanasov       : Ab Initio Ligand Field Theory (pilot matlab implementation)
   Alexander A. Auer      : GIAO ZORA, VPT2
   Ute Becker             : Parallelization
   Giovanni Bistoni       : ED, misc. LED, open-shell LED, HFLED
   Martin Brehm           : Molecular dynamics
   Dmytro Bykov           : SCF Hessian
   Vijay G. Chilkuri      : MRCI spin determinant printing, contributions to CSF-ICE
   Dipayan Datta          : RHF DLPNO-CCSD density
   Achintya Kumar Dutta   : EOM-CC, STEOM-CC
   Dmitry Ganyushin       : Spin-Orbit,Spin-Spin,Magnetic field MRCI
   Miquel Garcia          : C-PCM Hessian, Gaussian charge scheme
   Yang Guo               : DLPNO-NEVPT2, CIM, IAO-localization
   Andreas Hansen         : Spin unrestricted coupled pair/coupled cluster methods
   Benjamin Helmich-Paris : CASSCF linear response (MC-RPA)
   Lee Huntington         : MR-EOM, pCC
   Robert Izsak           : Overlap fitted RIJCOSX, COSX-SCS-MP3, EOM
   Christian Kollmar      : KDIIS, OOCD, Brueckner-CCSD(T), CCSD density
   Simone Kossmann        : Meta GGA functionals, TD-DFT gradient, OOMP2, MP2 Hessian
   Martin Krupicka        : AUTO-CI
   Lucas Lang             : DCDCAS
   Dagmar Lenk            : GEPOL surface, SMD
   Dimitrios Liakos       : Extrapolation schemes; Compound Job, initial MDCI parallelization
   Dimitrios Manganas     : Further ROCIS development; embedding schemes
   Dimitrios Pantazis     : SARC Basis sets
   Taras Petrenko         : DFT Hessian,TD-DFT gradient, ASA, ECA, R-Raman, ABS, FL, XAS/XES, NRVS
   Peter Pinski           : DLPNO-MP2, DLPNO-MP2 Gradient
   Christoph Reimann      : Effective Core Potentials
   Marius Retegan         : Local ZFS, SOC
   Christoph Riplinger    : Optimizer, TS searches, QM/MM, DLPNO-CCSD(T), (RO)-DLPNO pert. Triples
   Tobias Risthaus        : Range-separated hybrids, TD-DFT gradient, RPA, STAB
   Michael Roemelt        : Original ROCIS implementation
   Masaaki Saitow         : Open-shell DLPNO-CCSD energy and density
   Barbara Sandhoefer     : DKH picture change effects
   Avijit Sen             : IP-ROCIS
   Kantharuban Sivalingam : CASSCF convergence, NEVPT2, FIC-MRCI
   Bernardo de Souza      : ESD, SOC TD-DFT
   Georgi Stoychev        : AutoAux, RI-MP2 NMR
   Willem Van den Heuvel  : Paramagnetic NMR
   Boris Wezisla          : Elementary symmetry handling
   Frank Wennmohs         : Technical directorship


 We gratefully acknowledge several colleagues who have allowed us to
 interface, adapt or use parts of their codes:
   Stefan Grimme, W. Hujo, H. Kruse,             : VdW corrections, initial TS optimization,
                  C. Bannwarth                     DFT functionals, gCP, sTDA/sTD-DF
   Ed Valeev, F. Pavosevic, A. Kumar             : LibInt (2-el integral package), F12 methods
   Garnet Chan, S. Sharma, J. Yang, R. Olivares  : DMRG
   Ulf Ekstrom                                   : XCFun DFT Library
   Mihaly Kallay                                 : mrcc  (arbitrary order and MRCC methods)
   Andreas Klamt, Michael Diedenhofen            : otool_cosmo (COSMO solvation model)
   Jiri Pittner, Ondrej Demel                    : Mk-CCSD
   Frank Weinhold                                : gennbo (NPA and NBO analysis)
   Christopher J. Cramer and Donald G. Truhlar   : smd solvation model
   Lars Goerigk                                  : TD-DFT with DH, B97 family of functionals
   V. Asgeirsson, H. Jonsson                     : NEB implementation
   FAccTs GmbH                                   : IRC, NEB, NEB-TS, Multilevel, MM, QM/MM, CI optimization
   S Lehtola, MJT Oliveira, MAL Marques          : LibXC Library


 Your calculation uses the libint2 library for the computation of 2-el integrals
 For citations please refer to: http://libint.valeyev.net

 Your ORCA version has been built with support for libXC version: 4.2.3
 For citations please refer to: https://tddft.org/programs/libxc/

 This ORCA versions uses:
   CBLAS   interface :  Fast vector & matrix operations
   LAPACKE interface :  Fast linear algebra routines
   SCALAPACK package :  Parallel linear algebra routines


----- Orbital basis set information -----
Your calculation utilizes the basis: def2-TZVP
   F. Weigend and R. Ahlrichs, Phys. Chem. Chem. Phys. 7, 3297 (2005).

----- AuxJ basis set information -----
Your calculation utilizes the auxiliary basis: def2/J
   F. Weigend, Phys. Chem. Chem. Phys. 8, 1057 (2006).

================================================================================
                                        WARNINGS
                       Please study these warnings very carefully!
================================================================================

INFO   : Checking CIS options ...

WARNING: (CIS/TDDFT): Spin-orbit needs TRIPLETS set to TRUE
  ===> : ajusting flags

WARNING: CIS/ROCIS methods need fully converged wavefunctions
  ===> : Setting SCFConvForced true
         You can overwrite this default with %scf ConvForced false 


INFO   : the flag for use of LIBINT has been found!

================================================================================
                                       INPUT FILE
================================================================================
NAME = AQx-2.inp
|  1> # ORCA input file
|  2> # AQx-2.out
|  3> ! B3LYP def2-TZVP def2/J RIJCOSX Grid4 TightSCF
|  4> 
|  5> %maxcore 2000
|  6> %tddft
|  7>   maxdim 5
|  8>   nroots 3
|  9>   dosoc true
| 10>   end
| 11> 
| 12> 
| 13> 
| 14> * xyz 0 1
| 15>    C        4.92510         2.24815        -1.47993
| 16>    O        5.92084         1.77685        -2.00086
| 17>    C        4.04849         3.28400        -2.06674
| 18>    C        4.16400         3.91317        -3.29009
| 19>    C        3.20815         4.86178        -3.61648
| 20>    F        3.27963         5.49723        -4.79264
| 21>    C        2.17310         5.16060        -2.73060
| 22>    F        1.26434         6.08145        -3.07084
| 23>    C        2.05832         4.52717        -1.50139
| 24>    C        3.00957         3.57628        -1.16755
| 25>    C        3.17153         2.74183         0.02534
| 26>    C        2.33468         2.75600         1.11202
| 27>    C        2.46642         1.95874         2.26835
| 28>    N        2.49907         1.34649         3.24012
| 29>    C        1.20179         3.58974         1.22615
| 30>    N        0.26925         4.24039         1.38307
| 31>    C        4.35218         1.92780        -0.17388
| 32>    C        4.84568         1.01252         0.72927
| 33>    C        5.95722         0.17201         0.67051
| 34>    S        7.09011         0.08229        -0.68206
| 35>    C        7.99634        -1.12729         0.14255
| 36>    C        7.44379        -1.43742         1.40008
| 37>    C        6.30217        -0.71417         1.71014
| 38>    C        5.53180        -0.92320         2.97212
| 39>    C        4.38269        -1.91084         2.74941
| 40>    S        8.34443        -2.65815         2.28148
| 41>    C        9.45591        -2.74146         0.96279
| 42>    C        9.14286        -1.88629        -0.10066
| 43>    N       10.06978        -2.02117        -1.10368
| 44>    C       10.20867        -0.93585        -2.05174
| 45>    C       11.15940         0.13288        -1.51668
| 46>    C       10.99950        -2.95622        -0.68468
| 47>    C       10.64342        -3.40373         0.62075
| 48>    C       11.44106        -4.27930         1.40352
| 49>    N       11.05215        -4.65113         2.62805
| 50>    C       11.88054        -5.41637         3.30519
| 51>    C       13.11397        -5.82346         2.78257
| 52>    N       13.51086        -5.47947         1.57651
| 53>    C       12.67949        -4.70824         0.86697
| 54>    C       12.98818        -4.34023        -0.46868
| 55>    C       12.13939        -3.54053        -1.28812
| 56>    N       12.65867        -3.51847        -2.56615
| 57>    C       12.07481        -3.11870        -3.82569
| 58>    C       12.72114        -1.85015        -4.37895
| 59>    C       13.82175        -4.23985        -2.55889
| 60>    C       14.06105        -4.74447        -1.27596
| 61>    S       15.49679        -5.69492        -1.15849
| 62>    C       15.78924        -5.42777        -2.86294
| 63>    C       14.79370        -4.65032        -3.47438
| 64>    S       15.07685        -4.49109        -5.16230
| 65>    C       16.58155        -5.39821        -5.02424
| 66>    C       16.81123        -5.84361        -3.72561
| 67>    C       17.89187        -6.78784        -3.30054
| 68>    C       18.71817        -6.25527        -2.12888
| 69>    C       17.27238        -5.63288        -6.23447
| 70>    C       18.60349        -5.81190        -6.47493
| 71>    C       19.78356        -5.50264        -5.70173
| 72>    C       19.89575        -4.51652        -4.75718
| 73>    C       21.10150        -4.18542        -4.10583
| 74>    N       22.05108        -3.89134        -3.53252
| 75>    C       18.82974        -3.67110        -4.38847
| 76>    N       18.00350        -2.93554        -4.08231
| 77>    C       20.90247        -6.22324        -6.30949
| 78>    C       22.20940        -6.39777        -5.88553
| 79>    C       23.06446        -7.12233        -6.70291
| 80>    F       24.32721        -7.31740        -6.30872
| 81>    C       22.63733        -7.65436        -7.92031
| 82>    F       23.49888        -8.34096        -8.67962
| 83>    C       21.33050        -7.48349        -8.34940
| 84>    C       20.47518        -6.77233        -7.53141
| 85>    C       19.03771        -6.47185        -7.73180
| 86>    O       18.35132        -6.74132        -8.68937
| 87>    H        4.96684         3.67926        -3.97090
| 88>    H        1.23942         4.79609        -0.85475
| 89>    H        4.28672         0.91526         1.64979
| 90>    H        5.13145         0.01817         3.35087
| 91>    H        6.21176        -1.33273         3.72166
| 92>    H        3.68558        -1.53057         2.00654
| 93>    H        3.84391        -2.06216         3.68013
| 94>    H        4.76817        -2.86857         2.40782
| 95>    H        9.21270        -0.50696        -2.18795
| 96>    H       10.55308        -1.29674        -3.01537
| 97>    H       10.78373         0.53594        -0.57923
| 98>    H       11.24255         0.94554        -2.23274
| 99>    H       12.14808        -0.28600        -1.33867
|100>    H       11.55811        -5.71421         4.29316
|101>    H       13.79250        -6.44424         3.35091
|102>    H       10.99608        -3.01661        -3.70066
|103>    H       12.24529        -3.93482        -4.53691
|104>    H       12.23074        -1.56109        -5.30410
|105>    H       13.77122        -2.03252        -4.59042
|106>    H       12.65633        -1.02765        -3.67255
|107>    H       18.53892        -7.01998        -4.14683
|108>    H       17.41164        -7.71968        -2.98520
|109>    H       19.11925        -5.26764        -2.34070
|110>    H       19.54693        -6.92906        -1.92664
|111>    H       18.10660        -6.18289        -1.23390
|112>    H       16.64309        -5.72598        -7.11614
|113>    H       22.58139        -6.00685        -4.95234
|114>    H       20.99973        -7.89444        -9.28987
|115> *
|116> 
|117>                          ****END OF INPUT****
================================================================================

                       ****************************
                       * Single Point Calculation *
                       ****************************

---------------------------------
CARTESIAN COORDINATES (ANGSTROEM)
---------------------------------
  C      4.925100    2.248150   -1.479930
  O      5.920840    1.776850   -2.000860
  C      4.048490    3.284000   -2.066740
  C      4.164000    3.913170   -3.290090
  C      3.208150    4.861780   -3.616480
  F      3.279630    5.497230   -4.792640
  C      2.173100    5.160600   -2.730600
  F      1.264340    6.081450   -3.070840
  C      2.058320    4.527170   -1.501390
  C      3.009570    3.576280   -1.167550
  C      3.171530    2.741830    0.025340
  C      2.334680    2.756000    1.112020
  C      2.466420    1.958740    2.268350
  N      2.499070    1.346490    3.240120
  C      1.201790    3.589740    1.226150
  N      0.269250    4.240390    1.383070
  C      4.352180    1.927800   -0.173880
  C      4.845680    1.012520    0.729270
  C      5.957220    0.172010    0.670510
  S      7.090110    0.082290   -0.682060
  C      7.996340   -1.127290    0.142550
  C      7.443790   -1.437420    1.400080
  C      6.302170   -0.714170    1.710140
  C      5.531800   -0.923200    2.972120
  C      4.382690   -1.910840    2.749410
  S      8.344430   -2.658150    2.281480
  C      9.455910   -2.741460    0.962790
  C      9.142860   -1.886290   -0.100660
  N     10.069780   -2.021170   -1.103680
  C     10.208670   -0.935850   -2.051740
  C     11.159400    0.132880   -1.516680
  C     10.999500   -2.956220   -0.684680
  C     10.643420   -3.403730    0.620750
  C     11.441060   -4.279300    1.403520
  N     11.052150   -4.651130    2.628050
  C     11.880540   -5.416370    3.305190
  C     13.113970   -5.823460    2.782570
  N     13.510860   -5.479470    1.576510
  C     12.679490   -4.708240    0.866970
  C     12.988180   -4.340230   -0.468680
  C     12.139390   -3.540530   -1.288120
  N     12.658670   -3.518470   -2.566150
  C     12.074810   -3.118700   -3.825690
  C     12.721140   -1.850150   -4.378950
  C     13.821750   -4.239850   -2.558890
  C     14.061050   -4.744470   -1.275960
  S     15.496790   -5.694920   -1.158490
  C     15.789240   -5.427770   -2.862940
  C     14.793700   -4.650320   -3.474380
  S     15.076850   -4.491090   -5.162300
  C     16.581550   -5.398210   -5.024240
  C     16.811230   -5.843610   -3.725610
  C     17.891870   -6.787840   -3.300540
  C     18.718170   -6.255270   -2.128880
  C     17.272380   -5.632880   -6.234470
  C     18.603490   -5.811900   -6.474930
  C     19.783560   -5.502640   -5.701730
  C     19.895750   -4.516520   -4.757180
  C     21.101500   -4.185420   -4.105830
  N     22.051080   -3.891340   -3.532520
  C     18.829740   -3.671100   -4.388470
  N     18.003500   -2.935540   -4.082310
  C     20.902470   -6.223240   -6.309490
  C     22.209400   -6.397770   -5.885530
  C     23.064460   -7.122330   -6.702910
  F     24.327210   -7.317400   -6.308720
  C     22.637330   -7.654360   -7.920310
  F     23.498880   -8.340960   -8.679620
  C     21.330500   -7.483490   -8.349400
  C     20.475180   -6.772330   -7.531410
  C     19.037710   -6.471850   -7.731800
  O     18.351320   -6.741320   -8.689370
  H      4.966840    3.679260   -3.970900
  H      1.239420    4.796090   -0.854750
  H      4.286720    0.915260    1.649790
  H      5.131450    0.018170    3.350870
  H      6.211760   -1.332730    3.721660
  H      3.685580   -1.530570    2.006540
  H      3.843910   -2.062160    3.680130
  H      4.768170   -2.868570    2.407820
  H      9.212700   -0.506960   -2.187950
  H     10.553080   -1.296740   -3.015370
  H     10.783730    0.535940   -0.579230
  H     11.242550    0.945540   -2.232740
  H     12.148080   -0.286000   -1.338670
  H     11.558110   -5.714210    4.293160
  H     13.792500   -6.444240    3.350910
  H     10.996080   -3.016610   -3.700660
  H     12.245290   -3.934820   -4.536910
  H     12.230740   -1.561090   -5.304100
  H     13.771220   -2.032520   -4.590420
  H     12.656330   -1.027650   -3.672550
  H     18.538920   -7.019980   -4.146830
  H     17.411640   -7.719680   -2.985200
  H     19.119250   -5.267640   -2.340700
  H     19.546930   -6.929060   -1.926640
  H     18.106600   -6.182890   -1.233900
  H     16.643090   -5.725980   -7.116140
  H     22.581390   -6.006850   -4.952340
  H     20.999730   -7.894440   -9.289870

----------------------------
CARTESIAN COORDINATES (A.U.)
----------------------------
  NO LB      ZA    FRAG     MASS         X           Y           Z
   0 C     6.0000    0    12.011    9.307090    4.248388   -2.796662
   1 O     8.0000    0    15.999   11.188766    3.357760   -3.781077
   2 C     6.0000    0    12.011    7.650537    6.205861   -3.905573
   3 C     6.0000    0    12.011    7.868820    7.394820   -6.217369
   4 C     6.0000    0    12.011    6.062525    9.187433   -6.834157
   5 F     9.0000    0    18.998    6.197603   10.388259   -9.056777
   6 C     6.0000    0    12.011    4.106564    9.752121   -5.160086
   7 F     9.0000    0    18.998    2.389256   11.492275   -5.803047
   8 C     6.0000    0    12.011    3.889661    8.555111   -2.837216
   9 C     6.0000    0    12.011    5.687263    6.758190   -2.206350
  10 C     6.0000    0    12.011    5.993323    5.181308    0.047886
  11 C     6.0000    0    12.011    4.411906    5.208085    2.101413
  12 C     6.0000    0    12.011    4.660858    3.701482    4.286560
  13 N     7.0000    0    14.007    4.722558    2.544497    6.122939
  14 C     6.0000    0    12.011    2.271054    6.783625    2.317088
  15 N     7.0000    0    14.007    0.508809    8.013176    2.613624
  16 C     6.0000    0    12.011    8.224428    3.643014   -0.328586
  17 C     6.0000    0    12.011    9.157008    1.913386    1.378121
  18 C     6.0000    0    12.011   11.257514    0.325052    1.267080
  19 S    16.0000    0    32.060   13.398366    0.155506   -1.288907
  20 C     6.0000    0    12.011   15.110893   -2.130269    0.269380
  21 C     6.0000    0    12.011   14.066724   -2.716330    2.645768
  22 C     6.0000    0    12.011   11.909375   -1.349586    3.231696
  23 C     6.0000    0    12.011   10.453587   -1.744595    5.616493
  24 C     6.0000    0    12.011    8.282084   -3.610964    5.195632
  25 S    16.0000    0    32.060   15.768687   -5.023176    4.311372
  26 C     6.0000    0    12.011   17.869080   -5.180609    1.819409
  27 C     6.0000    0    12.011   17.277501   -3.564572   -0.190220
  28 N     7.0000    0    14.007   19.029126   -3.819458   -2.085653
  29 C     6.0000    0    12.011   19.291590   -1.768500   -3.877227
  30 C     6.0000    0    12.011   21.088210    0.251107   -2.866110
  31 C     6.0000    0    12.011   20.786043   -5.586446   -1.293858
  32 C     6.0000    0    12.011   20.113149   -6.432118    1.173047
  33 C     6.0000    0    12.011   21.620470   -8.086705    2.652268
  34 N     7.0000    0    14.007   20.885537   -8.789362    4.966295
  35 C     6.0000    0    12.011   22.450967  -10.235456    6.245904
  36 C     6.0000    0    12.011   24.781812  -11.004745    5.258295
  37 N     7.0000    0    14.007   25.531825  -10.354698    2.979172
  38 C     6.0000    0    12.011   23.960764   -8.897284    1.638336
  39 C     6.0000    0    12.011   24.544103   -8.201846   -0.885677
  40 C     6.0000    0    12.011   22.940123   -6.690632   -2.434194
  41 N     7.0000    0    14.007   23.921420   -6.648945   -4.849321
  42 C     6.0000    0    12.011   22.818084   -5.893489   -7.229506
  43 C     6.0000    0    12.011   24.039471   -3.496277   -8.275016
  44 C     6.0000    0    12.011   26.119322   -8.012155   -4.835601
  45 C     6.0000    0    12.011   26.571534   -8.965749   -2.411215
  46 S    16.0000    0    32.060   29.284689  -10.761839   -2.189229
  47 C     6.0000    0    12.011   29.837339  -10.256999   -5.410173
  48 C     6.0000    0    12.011   27.956042   -8.787831   -6.565627
  49 S    16.0000    0    32.060   28.491117   -8.486930   -9.755333
  50 C     6.0000    0    12.011   31.334588  -10.201139   -9.494438
  51 C     6.0000    0    12.011   31.768621  -11.042823   -7.040383
  52 C     6.0000    0    12.011   33.810734  -12.827159   -6.237117
  53 C     6.0000    0    12.011   35.372215  -11.820747   -4.023000
  54 C     6.0000    0    12.011   32.640068  -10.644601  -11.781441
  55 C     6.0000    0    12.011   35.155501  -10.982899  -12.235844
  56 C     6.0000    0    12.011   37.385510  -10.398483  -10.774708
  57 C     6.0000    0    12.011   37.597519   -8.534986   -8.989767
  58 C     6.0000    0    12.011   39.876056   -7.909298   -7.758894
  59 N     7.0000    0    14.007   41.670502   -7.353567   -6.675495
  60 C     6.0000    0    12.011   35.583052   -6.937374   -8.293006
  61 N     7.0000    0    14.007   34.021684   -5.547367   -7.714448
  62 C     6.0000    0    12.011   39.499944  -11.760219  -11.923208
  63 C     6.0000    0    12.011   41.969684  -12.090033  -11.122040
  64 C     6.0000    0    12.011   43.585513  -13.459253  -12.666664
  65 F     9.0000    0    18.998   45.971765  -13.827882  -11.921753
  66 C     6.0000    0    12.011   42.778354  -14.464644  -14.967217
  67 F     9.0000    0    18.998   44.406448  -15.762130  -16.402105
  68 C     6.0000    0    12.011   40.308803  -14.141747  -15.778079
  69 C     6.0000    0    12.011   38.692483  -12.797849  -14.232302
  70 C     6.0000    0    12.011   35.976058  -12.230024  -14.610985
  71 O     8.0000    0    15.999   34.678969  -12.739249  -16.420530
  72 H     1.0000    0     1.008    9.385967    6.952794   -7.503914
  73 H     1.0000    0     1.008    2.342164    9.063297   -1.615243
  74 H     1.0000    0     1.008    8.100727    1.729591    3.117651
  75 H     1.0000    0     1.008    9.697035    0.034336    6.332227
  76 H     1.0000    0     1.008   11.738525   -2.518495    7.032918
  77 H     1.0000    0     1.008    6.964737   -2.892358    3.791811
  78 H     1.0000    0     1.008    7.263937   -3.896918    6.954438
  79 H     1.0000    0     1.008    9.010535   -5.420812    4.550120
  80 H     1.0000    0     1.008   17.409480   -0.958016   -4.134626
  81 H     1.0000    0     1.008   19.942431   -2.450483   -5.698223
  82 H     1.0000    0     1.008   20.378296    1.012780   -1.094586
  83 H     1.0000    0     1.008   21.245341    1.786812   -4.219267
  84 H     1.0000    0     1.008   22.956544   -0.540462   -2.529720
  85 H     1.0000    0     1.008   21.841663  -10.798292    8.112897
  86 H     1.0000    0     1.008   26.064048  -12.177849    6.332302
  87 H     1.0000    0     1.008   20.779580   -5.700567   -6.993234
  88 H     1.0000    0     1.008   23.140245   -7.435732   -8.573517
  89 H     1.0000    0     1.008   23.112749   -2.950033  -10.023296
  90 H     1.0000    0     1.008   26.023834   -3.840906   -8.674637
  91 H     1.0000    0     1.008   23.916998   -1.941977   -6.940114
  92 H     1.0000    0     1.008   35.033482  -13.265840   -7.836373
  93 H     1.0000    0     1.008   32.903231  -14.588081   -5.641210
  94 H     1.0000    0     1.008   36.130146   -9.954397   -4.423282
  95 H     1.0000    0     1.008   36.938344  -13.094026   -3.640822
  96 H     1.0000    0     1.008   34.216515  -11.683969   -2.331733
  97 H     1.0000    0     1.008   31.450882  -10.820534  -13.447556
  98 H     1.0000    0     1.008   42.672643  -11.351301   -9.358566
  99 H     1.0000    0     1.008   39.683739  -14.918330  -17.555310

--------------------------------
INTERNAL COORDINATES (ANGSTROEM)
--------------------------------
 C      0   0   0     0.000000000000     0.00000000     0.00000000
 O      1   0   0     1.218601617634     0.00000000     0.00000000
 C      1   2   0     1.478437110837   125.85922775     0.00000000
 C      3   1   2     1.380500877037   128.42113832     0.26006365
 C      4   3   1     1.385655291442   117.58234874   180.12146281
 F      5   4   3     1.338752568065   119.67356767   180.02683103
 C      5   4   3     1.394777856614   120.59514294     0.05387259
 F      7   5   4     1.337749123603   119.34395716   179.95162800
 C      7   5   4     1.387575308731   121.75142819   359.93590662
 C      9   7   5     1.385827370274   118.02469381     0.00000000
 C     10   9   7     1.464760866558   131.52686864   180.11253963
 C     11  10   9     1.371638485097   124.87977410     0.18727051
 C     12  11  10     1.410701245516   125.91472293   179.70519688
 N     13  12  11     1.149022635939   175.58168305   181.96147503
 C     12  11  10     1.411236265336   124.05224427   359.64205954
 N     15  12  11     1.147867658095   176.47485724   181.24020579
 C     11  10   9     1.447849395414   107.36167384   180.08656634
 C     17  11  10     1.377301583133   125.14068138   179.66427844
 C     18  17  11     1.394787069520   131.17651708   180.03710525
 S     19  18  17     1.766616833215   125.02318427     0.36190176
 C     20  19  18     1.721719559452    90.37372786   180.15791318
 C     21  20  19     1.408145525257   112.08039807   359.90992247
 C     22  21  20     1.386551113555   114.07297076   359.92766185
 C     23  22  21     1.493237087070   122.73414266   177.75076085
 C     24  23  22     1.531498059352   110.76088240   265.82990005
 S     22  21  20     1.754480009148   113.60596597   180.46093710
 C     26  22  21     1.726635938060    88.87360560     0.14194561
 C     21  20  19     1.396330983148   136.94021599   180.15193125
 N     28  21  20     1.372378381205   137.33254622   359.79302491
 C     29  28  21     1.447766451504   118.01599977    20.60691557
 C     30  29  28     1.527206780171   110.78715776    85.05984941
 C     29  28  21     1.383567411043   107.39424954   178.57049344
 C     27  26  22     1.402060239291   138.96664793   177.42940771
 C     33  27  26     1.419711684604   129.24691991   355.58900473
 N     34  33  27     1.337528413866   120.85473562     4.49828811
 C     35  34  33     1.315424201275   116.73677451   182.93543344
 C     36  35  34     1.400072675757   122.12661282     0.26372843
 N     37  36  35     1.315458671263   122.14097108   359.10009678
 C     38  37  36     1.337691594277   116.71545518     0.42962179
 C     39  38  37     1.419394870605   120.89348044   183.18558554
 C     32  29  28     1.415947464350   133.69259712   177.35322162
 N     41  32  29     1.379673527651   133.72339522   350.83890205
 C     42  41  32     1.444697049246   131.29387464   344.84988460
 C     43  42  41     1.527435170146   111.99937879   111.99174868
 C     42  41  32     1.368647835785   107.84881340   178.08232559
 C     45  42  41     1.399219503616   109.89433204     0.43397575
 S     46  45  42     1.725834218863   113.78456705   179.10526810
 C     47  46  45     1.749870260191    89.35014464   359.65353824
 C     45  42  41     1.396887383972   137.96126737   177.19790482
 S     49  45  42     1.718895587812   136.96734476   359.26980647
 C     50  49  45     1.762398748297    90.91886711   179.08275577
 C     51  50  49     1.391967650235   112.25045522     2.31051748
 C     52  51  50     1.496675518407   125.87170799   171.38991383
 C     53  52  51     1.529440960122   112.82848020   128.51521512
 C     51  50  49     1.413142862806   115.83396722   177.56877266
 C     55  51  50     1.364449707428   130.51375555   151.88997837
 C     56  55  51     1.444314783037   132.42643609   341.72709801
 C     57  56  55     1.370107277917   126.16254987   333.67501898
 C     58  57  56     1.409864211547   123.88689446   185.28084468
 N     59  58  57     1.147549379722   177.05456154   201.06778214
 C     58  57  56     1.409630930634   123.37109308     1.48309194
 N     61  58  57     1.147804424456   176.84065869   216.58452440
 C     57  56  55     1.463077634885   107.27794146   165.87697192
 C     63  57  56     1.385015822076   131.03780575   188.20546207
 C     64  63  57     1.387164323936   117.84659560   181.31004515
 F     65  64  63     1.337152056985   118.98640237   180.73573694
 C     65  64  63     1.395549611372   121.63415461     0.50486743
 F     67  65  64     1.337998370178   119.57785412   179.66298916
 C     67  65  64     1.386044528109   120.77279904   359.44808773
 C     69  67  65     1.380734763849   117.65558956     0.00000000
 C     70  69  67     1.482148569948   128.69063058   181.49400206
 O     71  70  69     1.208588274765   127.78693461   356.12025234
 H      4   3   1     1.078317304786   121.52867120     0.10518581
 H      9   7   5     1.077524229890   118.72199736   179.97695724
 H     18  17  11     1.081319961713   115.64412246     0.04299423
 H     24  23  22     1.090829575094   111.22186874   143.98142371
 H     24  23  22     1.091728278511   108.14512394    25.18836669
 H     25  24  23     1.087392965721   110.78369256   298.81498886
 H     25  24  23     1.086011670840   109.72273647   179.12534346
 H     25  24  23     1.087439796678   110.34469458    59.24725535
 H     30  29  28     1.092911724294   106.76060429   325.71515962
 H     30  29  28     1.085100279744   111.26381813   208.09684560
 H     31  30  29     1.087381172818   110.26516079   300.31948846
 H     31  30  29     1.086311245316   109.89027187   180.75360639
 H     31  30  29     1.088409921353   110.69958404    60.25451619
 H     36  35  34     1.081089492780   116.28775945   180.11928561
 H     37  36  35     1.081101810608   121.57736391   179.36384247
 H     43  42  41     1.090739786521   109.00511310   346.87680328
 H     43  42  41     1.095878265685   107.26989867   230.95891029
 H     44  43  42     1.086255203026   109.78336176   182.17917889
 H     44  43  42     1.086575530831   109.87913478    63.08425409
 H     44  43  42     1.086143427960   111.59803871   303.13616544
 H     53  52  51     1.090307042167   110.02124097     4.77645653
 H     53  52  51     1.094708159328   107.58339443   247.81266015
 H     54  53  52     1.086805362381   111.50049842   306.02948647
 H     54  53  52     1.087077329034   109.79003513   185.68694789
 H     54  53  52     1.086391241542   110.49723422    66.05602891
 H     55  51  50     1.087205363765   115.19923968   329.14850354
 H     64  63  57     1.077978934210   123.01908486     1.97303459
 H     69  67  65     1.078319301645   120.81289319   180.01011206

---------------------------
INTERNAL COORDINATES (A.U.)
---------------------------
 C      0   0   0     0.000000000000     0.00000000     0.00000000
 O      1   0   0     2.302823323682     0.00000000     0.00000000
 C      1   2   0     2.793841245708   125.85922775     0.00000000
 C      3   1   2     2.608768585238   128.42113832     0.26006365
 C      4   3   1     2.618509016843   117.58234874   180.12146281
 F      5   4   3     2.529875714726   119.67356767   180.02683103
 C      5   4   3     2.635748166658   120.59514294     0.05387259
 F      7   5   4     2.527979479502   119.34395716   179.95162800
 C      7   5   4     2.622137323693   121.75142819   359.93590662
 C      9   7   5     2.618834198710   118.02469381     0.00000000
 C     10   9   7     2.767996889480   131.52686864   180.11253963
 C     11  10   9     2.592021091581   124.87977410     0.18727051
 C     12  11  10     2.665839010807   125.91472293   179.70519688
 N     13  12  11     2.171338103601   175.58168305   181.96147503
 C     12  11  10     2.666850051743   124.05224427   359.64205954
 N     15  12  11     2.169155511785   176.47485724   181.24020579
 C     11  10   9     2.736038840495   107.36167384   180.08656634
 C     17  11  10     2.602722795937   125.14068138   179.66427844
 C     18  17  11     2.635765576527   131.17651708   180.03710525
 S     19  18  17     3.338421998352   125.02318427     0.36190176
 C     20  19  18     3.253578446780    90.37372786   180.15791318
 C     21  20  19     2.661009399442   112.08039807   359.90992247
 C     22  21  20     2.620201875302   114.07297076   359.92766185
 C     23  22  21     2.821809147576   122.73414266   177.75076085
 C     24  23  22     2.894111906808   110.76088240   265.82990005
 S     22  21  20     3.315486724729   113.60596597   180.46093710
 C     26  22  21     3.262869055919    88.87360560     0.14194561
 C     21  20  19     2.638683150459   136.94021599   180.15193125
 N     28  21  20     2.593419292592   137.33254622   359.79302491
 C     29  28  21     2.735882099221   118.01599977    20.60691557
 C     30  29  28     2.886002564391   110.78715776    85.05984941
 C     29  28  21     2.614563494690   107.39424954   178.57049344
 C     27  26  22     2.649509875520   138.96664793   177.42940771
 C     33  27  26     2.682866273029   129.24691991   355.58900473
 N     34  33  27     2.527562398546   120.85473562     4.49828811
 C     35  34  33     2.485791490342   116.73677451   182.93543344
 C     36  35  34     2.645753924766   122.12661282     0.26372843
 N     37  36  35     2.485856629178   122.14097108   359.10009678
 C     38  37  36     2.527870764832   116.71545518     0.42962179
 C     39  38  37     2.682267581336   120.89348044   183.18558554
 C     32  29  28     2.675752927642   133.69259712   177.35322162
 N     41  32  29     2.607205121481   133.72339522   350.83890205
 C     42  41  32     2.730081769559   131.29387464   344.84988460
 C     43  42  41     2.886434158896   111.99937879   111.99174868
 C     42  41  32     2.586369583418   107.84881340   178.08232559
 C     45  42  41     2.644141663076   109.89433204     0.43397575
 S     46  45  42     3.261354026202   113.78456705   179.10526810
 C     47  46  45     3.306775561654    89.35014464   359.65353824
 C     45  42  41     2.639734595637   137.96126737   177.19790482
 S     49  45  42     3.248241913771   136.96734476   359.26980647
 C     50  49  45     3.330450973048    90.91886711   179.08275577
 C     51  50  49     2.630437646222   112.25045522     2.31051748
 C     52  51  50     2.828306841135   125.87170799   171.38991383
 C     53  52  51     2.890224552633   112.82848020   128.51521512
 C     51  50  49     2.670452998809   115.83396722   177.56877266
 C     55  51  50     2.578436270548   130.51375555   151.88997837
 C     56  55  51     2.729359391114   132.42643609   341.72709801
 C     57  56  55     2.589127529355   126.16254987   333.67501898
 C     58  57  56     2.664257245840   123.88689446   185.28084468
 N     59  58  57     2.168554052825   177.05456154   201.06778214
 C     58  57  56     2.663816408803   123.37109308     1.48309194
 N     61  58  57     2.169036017524   176.84065869   216.58452440
 C     57  56  55     2.764816042597   107.27794146   165.87697192
 C     63  57  56     2.617300594871   131.03780575   188.20546207
 C     64  63  57     2.621360674985   117.84659560   181.31004515
 F     65  64  63     2.526851187112   118.98640237   180.73573694
 C     65  64  63     2.637206571793   121.63415461     0.50486743
 F     67  65  64     2.528450487270   119.57785412   179.66298916
 C     67  65  64     2.619244567546   120.77279904   359.44808773
 C     69  67  65     2.609210567258   117.65558956     0.00000000
 C     70  69  67     2.800854886985   128.69063058   181.49400206
 O     71  70  69     2.283900847975   127.78693461   356.12025234
 H      4   3   1     2.037724391513   121.52867120     0.10518581
 H      9   7   5     2.036225697156   118.72199736   179.97695724
 H     18  17  11     2.043398590781   115.64412246     0.04299423
 H     24  23  22     2.061369155710   111.22186874   143.98142371
 H     24  23  22     2.063067459043   108.14512394    25.18836669
 H     25  24  23     2.054874905166   110.78369256   298.81498886
 H     25  24  23     2.052264636129   109.72273647   179.12534346
 H     25  24  23     2.054963402849   110.34469458    59.24725535
 H     30  29  28     2.065303847468   106.76060429   325.71515962
 H     30  29  28     2.050542356557   111.26381813   208.09684560
 H     31  30  29     2.054852619809   110.26516079   300.31948846
 H     31  30  29     2.052830749846   109.89027187   180.75360639
 H     31  30  29     2.056796672800   110.69958404    60.25451619
 H     36  35  34     2.042963067615   116.28775945   180.11928561
 H     37  36  35     2.042986344936   121.57736391   179.36384247
 H     43  42  41     2.061199479897   109.00511310   346.87680328
 H     43  42  41     2.070909798261   107.26989867   230.95891029
 H     44  43  42     2.052724845265   109.78336176   182.17917889
 H     44  43  42     2.053330177090   109.87913478    63.08425409
 H     44  43  42     2.052513621002   111.59803871   303.13616544
 H     53  52  51     2.060381711582   110.02124097     4.77645653
 H     53  52  51     2.068698617700   107.58339443   247.81266015
 H     54  53  52     2.053764495777   111.50049842   306.02948647
 H     54  53  52     2.054278438269   109.79003513   185.68694789
 H     54  53  52     2.052981920806   110.49723422    66.05602891
 H     55  51  50     2.054520388847   115.19923968   329.14850354
 H     64  63  57     2.037084963793   123.01908486     1.97303459
 H     69  67  65     2.037728165030   120.81289319   180.01011206

---------------------
BASIS SET INFORMATION
---------------------
There are 6 groups of distinct atoms

 Group   1 Type C   : 11s6p2d1f contracted to 5s3p2d1f pattern {62111/411/11/1}
 Group   2 Type O   : 11s6p2d1f contracted to 5s3p2d1f pattern {62111/411/11/1}
 Group   3 Type F   : 11s6p2d1f contracted to 5s3p2d1f pattern {62111/411/11/1}
 Group   4 Type N   : 11s6p2d1f contracted to 5s3p2d1f pattern {62111/411/11/1}
 Group   5 Type S   : 14s9p3d1f contracted to 5s5p2d1f pattern {73211/51111/21/1}
 Group   6 Type H   : 5s1p contracted to 3s1p pattern {311/1}

Atom   0C    basis set group =>   1
Atom   1O    basis set group =>   2
Atom   2C    basis set group =>   1
Atom   3C    basis set group =>   1
Atom   4C    basis set group =>   1
Atom   5F    basis set group =>   3
Atom   6C    basis set group =>   1
Atom   7F    basis set group =>   3
Atom   8C    basis set group =>   1
Atom   9C    basis set group =>   1
Atom  10C    basis set group =>   1
Atom  11C    basis set group =>   1
Atom  12C    basis set group =>   1
Atom  13N    basis set group =>   4
Atom  14C    basis set group =>   1
Atom  15N    basis set group =>   4
Atom  16C    basis set group =>   1
Atom  17C    basis set group =>   1
Atom  18C    basis set group =>   1
Atom  19S    basis set group =>   5
Atom  20C    basis set group =>   1
Atom  21C    basis set group =>   1
Atom  22C    basis set group =>   1
Atom  23C    basis set group =>   1
Atom  24C    basis set group =>   1
Atom  25S    basis set group =>   5
Atom  26C    basis set group =>   1
Atom  27C    basis set group =>   1
Atom  28N    basis set group =>   4
Atom  29C    basis set group =>   1
Atom  30C    basis set group =>   1
Atom  31C    basis set group =>   1
Atom  32C    basis set group =>   1
Atom  33C    basis set group =>   1
Atom  34N    basis set group =>   4
Atom  35C    basis set group =>   1
Atom  36C    basis set group =>   1
Atom  37N    basis set group =>   4
Atom  38C    basis set group =>   1
Atom  39C    basis set group =>   1
Atom  40C    basis set group =>   1
Atom  41N    basis set group =>   4
Atom  42C    basis set group =>   1
Atom  43C    basis set group =>   1
Atom  44C    basis set group =>   1
Atom  45C    basis set group =>   1
Atom  46S    basis set group =>   5
Atom  47C    basis set group =>   1
Atom  48C    basis set group =>   1
Atom  49S    basis set group =>   5
Atom  50C    basis set group =>   1
Atom  51C    basis set group =>   1
Atom  52C    basis set group =>   1
Atom  53C    basis set group =>   1
Atom  54C    basis set group =>   1
Atom  55C    basis set group =>   1
Atom  56C    basis set group =>   1
Atom  57C    basis set group =>   1
Atom  58C    basis set group =>   1
Atom  59N    basis set group =>   4
Atom  60C    basis set group =>   1
Atom  61N    basis set group =>   4
Atom  62C    basis set group =>   1
Atom  63C    basis set group =>   1
Atom  64C    basis set group =>   1
Atom  65F    basis set group =>   3
Atom  66C    basis set group =>   1
Atom  67F    basis set group =>   3
Atom  68C    basis set group =>   1
Atom  69C    basis set group =>   1
Atom  70C    basis set group =>   1
Atom  71O    basis set group =>   2
Atom  72H    basis set group =>   6
Atom  73H    basis set group =>   6
Atom  74H    basis set group =>   6
Atom  75H    basis set group =>   6
Atom  76H    basis set group =>   6
Atom  77H    basis set group =>   6
Atom  78H    basis set group =>   6
Atom  79H    basis set group =>   6
Atom  80H    basis set group =>   6
Atom  81H    basis set group =>   6
Atom  82H    basis set group =>   6
Atom  83H    basis set group =>   6
Atom  84H    basis set group =>   6
Atom  85H    basis set group =>   6
Atom  86H    basis set group =>   6
Atom  87H    basis set group =>   6
Atom  88H    basis set group =>   6
Atom  89H    basis set group =>   6
Atom  90H    basis set group =>   6
Atom  91H    basis set group =>   6
Atom  92H    basis set group =>   6
Atom  93H    basis set group =>   6
Atom  94H    basis set group =>   6
Atom  95H    basis set group =>   6
Atom  96H    basis set group =>   6
Atom  97H    basis set group =>   6
Atom  98H    basis set group =>   6
Atom  99H    basis set group =>   6
---------------------------------
AUXILIARY/J BASIS SET INFORMATION
---------------------------------
There are 6 groups of distinct atoms

 Group   1 Type C   : 12s5p4d2f1g contracted to 6s4p3d1f1g pattern {711111/2111/211/2/1}
 Group   2 Type O   : 12s5p4d2f1g contracted to 6s4p3d1f1g pattern {711111/2111/211/2/1}
 Group   3 Type F   : 12s5p4d2f1g contracted to 6s4p3d1f1g pattern {711111/2111/211/2/1}
 Group   4 Type N   : 12s5p4d2f1g contracted to 6s4p3d1f1g pattern {711111/2111/211/2/1}
 Group   5 Type S   : 14s5p5d2f1g contracted to 8s4p3d1f1g pattern {71111111/2111/311/2/1}
 Group   6 Type H   : 5s2p1d contracted to 3s1p1d pattern {311/2/1}

Atom   0C    basis set group =>   1
Atom   1O    basis set group =>   2
Atom   2C    basis set group =>   1
Atom   3C    basis set group =>   1
Atom   4C    basis set group =>   1
Atom   5F    basis set group =>   3
Atom   6C    basis set group =>   1
Atom   7F    basis set group =>   3
Atom   8C    basis set group =>   1
Atom   9C    basis set group =>   1
Atom  10C    basis set group =>   1
Atom  11C    basis set group =>   1
Atom  12C    basis set group =>   1
Atom  13N    basis set group =>   4
Atom  14C    basis set group =>   1
Atom  15N    basis set group =>   4
Atom  16C    basis set group =>   1
Atom  17C    basis set group =>   1
Atom  18C    basis set group =>   1
Atom  19S    basis set group =>   5
Atom  20C    basis set group =>   1
Atom  21C    basis set group =>   1
Atom  22C    basis set group =>   1
Atom  23C    basis set group =>   1
Atom  24C    basis set group =>   1
Atom  25S    basis set group =>   5
Atom  26C    basis set group =>   1
Atom  27C    basis set group =>   1
Atom  28N    basis set group =>   4
Atom  29C    basis set group =>   1
Atom  30C    basis set group =>   1
Atom  31C    basis set group =>   1
Atom  32C    basis set group =>   1
Atom  33C    basis set group =>   1
Atom  34N    basis set group =>   4
Atom  35C    basis set group =>   1
Atom  36C    basis set group =>   1
Atom  37N    basis set group =>   4
Atom  38C    basis set group =>   1
Atom  39C    basis set group =>   1
Atom  40C    basis set group =>   1
Atom  41N    basis set group =>   4
Atom  42C    basis set group =>   1
Atom  43C    basis set group =>   1
Atom  44C    basis set group =>   1
Atom  45C    basis set group =>   1
Atom  46S    basis set group =>   5
Atom  47C    basis set group =>   1
Atom  48C    basis set group =>   1
Atom  49S    basis set group =>   5
Atom  50C    basis set group =>   1
Atom  51C    basis set group =>   1
Atom  52C    basis set group =>   1
Atom  53C    basis set group =>   1
Atom  54C    basis set group =>   1
Atom  55C    basis set group =>   1
Atom  56C    basis set group =>   1
Atom  57C    basis set group =>   1
Atom  58C    basis set group =>   1
Atom  59N    basis set group =>   4
Atom  60C    basis set group =>   1
Atom  61N    basis set group =>   4
Atom  62C    basis set group =>   1
Atom  63C    basis set group =>   1
Atom  64C    basis set group =>   1
Atom  65F    basis set group =>   3
Atom  66C    basis set group =>   1
Atom  67F    basis set group =>   3
Atom  68C    basis set group =>   1
Atom  69C    basis set group =>   1
Atom  70C    basis set group =>   1
Atom  71O    basis set group =>   2
Atom  72H    basis set group =>   6
Atom  73H    basis set group =>   6
Atom  74H    basis set group =>   6
Atom  75H    basis set group =>   6
Atom  76H    basis set group =>   6
Atom  77H    basis set group =>   6
Atom  78H    basis set group =>   6
Atom  79H    basis set group =>   6
Atom  80H    basis set group =>   6
Atom  81H    basis set group =>   6
Atom  82H    basis set group =>   6
Atom  83H    basis set group =>   6
Atom  84H    basis set group =>   6
Atom  85H    basis set group =>   6
Atom  86H    basis set group =>   6
Atom  87H    basis set group =>   6
Atom  88H    basis set group =>   6
Atom  89H    basis set group =>   6
Atom  90H    basis set group =>   6
Atom  91H    basis set group =>   6
Atom  92H    basis set group =>   6
Atom  93H    basis set group =>   6
Atom  94H    basis set group =>   6
Atom  95H    basis set group =>   6
Atom  96H    basis set group =>   6
Atom  97H    basis set group =>   6
Atom  98H    basis set group =>   6
Atom  99H    basis set group =>   6
------------------------------------------------------------------------------
                           ORCA GTO INTEGRAL CALCULATION
                           -- RI-GTO INTEGRALS CHOSEN --
------------------------------------------------------------------------------

                         BASIS SET STATISTICS AND STARTUP INFO

Gaussian basis set:
 # of primitive gaussian shells          ... 1636
 # of primitive gaussian functions       ... 3604
 # of contracted shells                  ...  912
 # of contracted basis functions         ... 2424
 Highest angular momentum                ...    3
 Maximum contraction depth               ...    7
Auxiliary gaussian basis set:
 # of primitive gaussian shells          ... 1964
 # of primitive gaussian functions       ... 5516
 # of contracted shells                  ... 1228
 # of contracted aux-basis functions     ... 3844
 Highest angular momentum                ...    4
 Maximum contraction depth               ...    7
Ratio of auxiliary to basis functions    ...  1.59
Integral package used                  ... LIBINT
 One Electron integrals                  ... done
 Ordering auxiliary basis shells         ... done
 Integral threshhold             Thresh  ...  2.500e-11
 Primitive cut-off               TCut    ...  2.500e-12
 Pre-screening matrix                    ... done
 Shell pair data                         ... 
 Ordering of the shell pairs             ... done (   0.032 sec) 140204 of 416328 pairs
 Determination of significant pairs      ... done (   0.001 sec)
 Creation of shell pair data             ... done (   0.017 sec)
 Storage of shell pair data              ... done (   0.023 sec)
 Shell pair data done in (   0.072 sec)
 Computing two index integrals           ... done
 Cholesky decomposition of the V-matrix  ... done


Timings:
 Total evaluation time                   ...   6.260 sec (  0.104 min)
 One electron matrix time                ...   2.030 sec (  0.034 min) = 32.4%
 Schwartz matrix evaluation time         ...   3.380 sec (  0.056 min) = 54.0%
 Two index repulsion integral time       ...   0.328 sec (  0.005 min) =  5.2%
 Cholesky decomposition of V             ...   0.433 sec (  0.007 min) =  6.9%
 Three index repulsion integral time     ...   0.000 sec (  0.000 min) =  0.0%

-------------------------------------------------------------------------------
                                 ORCA SCF
-------------------------------------------------------------------------------

------------
SCF SETTINGS
------------
Hamiltonian:
 Density Functional     Method          .... DFT(GTOs)
 Exchange Functional    Exchange        .... B88
   X-Alpha parameter    XAlpha          ....  0.666667
   Becke's b parameter  XBeta           ....  0.004200
 Correlation Functional Correlation     .... LYP
 LDA part of GGA corr.  LDAOpt          .... VWN-5
 Gradients option       PostSCFGGA      .... off
 Hybrid DFT is turned on
   Fraction HF Exchange ScalHFX         ....  0.200000
   Scaling of DF-GGA-X  ScalDFX         ....  0.720000
   Scaling of DF-GGA-C  ScalDFC         ....  0.810000
   Scaling of DF-LDA-C  ScalLDAC        ....  1.000000
   Perturbative correction              ....  0.000000
   Density functional embedding theory  .... OFF
   NL short-range parameter             ....  4.800000
 RI-approximation to the Coulomb term is turned on
   Number of auxiliary basis functions  .... 3844
   RIJ-COSX (HFX calculated with COS-X)).... on


General Settings:
 Integral files         IntName         .... AQx-2
 Hartree-Fock type      HFTyp           .... RHF
 Total Charge           Charge          ....    0
 Multiplicity           Mult            ....    1
 Number of Electrons    NEL             ....  524
 Basis Dimension        Dim             .... 2424
 Nuclear Repulsion      ENuc            ....  10946.8006983789 Eh

Convergence Acceleration:
 DIIS                   CNVDIIS         .... on
   Start iteration      DIISMaxIt       ....    12
   Startup error        DIISStart       ....  0.200000
   # of expansion vecs  DIISMaxEq       ....     5
   Bias factor          DIISBfac        ....   1.050
   Max. coefficient     DIISMaxC        ....  10.000
 Newton-Raphson         CNVNR           .... off
 SOSCF                  CNVSOSCF        .... on
   Start iteration      SOSCFMaxIt      ....   150
   Startup grad/error   SOSCFStart      ....  0.003300
 Level Shifting         CNVShift        .... on
   Level shift para.    LevelShift      ....    0.2500
   Turn off err/grad.   ShiftErr        ....    0.0010
 Zerner damping         CNVZerner       .... off
 Static damping         CNVDamp         .... on
   Fraction old density DampFac         ....    0.7000
   Max. Damping (<1)    DampMax         ....    0.9800
   Min. Damping (>=0)   DampMin         ....    0.0000
   Turn off err/grad.   DampErr         ....    0.1000
 Fernandez-Rico         CNVRico         .... off

SCF Procedure:
 Maximum # iterations   MaxIter         ....   125
 SCF integral mode      SCFMode         .... Direct
   Integral package                     .... LIBINT
 Reset frequency        DirectResetFreq ....    20
 Integral Threshold     Thresh          ....  2.500e-11 Eh
 Primitive CutOff       TCut            ....  2.500e-12 Eh

Convergence Tolerance:
 Convergence Check Mode ConvCheckMode   .... Total+1el-Energy
 Convergence forced     ConvForced      .... 1
 Energy Change          TolE            ....  1.000e-08 Eh
 1-El. energy change                    ....  1.000e-05 Eh
 Orbital Gradient       TolG            ....  1.000e-05
 Orbital Rotation angle TolX            ....  1.000e-05
 DIIS Error             TolErr          ....  5.000e-07


Diagonalization of the overlap matrix:
Smallest eigenvalue                        ... 2.221e-06
Time for diagonalization                   ...    2.510 sec
Threshold for overlap eigenvalues          ... 1.000e-08
Number of eigenvalues below threshold      ... 0
Time for construction of square roots      ...    0.912 sec
Total time needed                          ...    3.435 sec

-------------------
DFT GRID GENERATION
-------------------

General Integration Accuracy     IntAcc      ...  4.670
Radial Grid Type                 RadialGrid  ... Gauss-Chebyshev
Angular Grid (max. acc.)         AngularGrid ... Lebedev-302
Angular grid pruning method      GridPruning ... 3 (G Style)
Weight generation scheme         WeightScheme... Becke
Basis function cutoff            BFCut       ...    1.0000e-11
Integration weight cutoff        WCut        ...    1.0000e-14
Grids for H and He will be reduced by one unit

# of grid points (after initial pruning)     ... 545072 (   1.2 sec)
# of grid points (after weights+screening)   ... 464334 (  22.6 sec)
nearest neighbour list constructed           ...    0.0 sec
Grid point re-assignment to atoms done       ...    0.1 sec
Grid point division into batches done        ...    1.6 sec
Reduced shell lists constructed in   14.7 sec

Total number of grid points                  ...   464334
Total number of batches                      ...     7305
Average number of points per batch           ...       63
Average number of grid points per atom       ...     4643
Average number of shells per batch           ...   166.71 (18.28%)
Average number of basis functions per batch  ...   421.79 (17.40%)
Average number of large shells per batch     ...   100.83 (60.48%)
Average number of large basis fcns per batch ...   258.99 (61.40%)
Maximum spatial batch extension              ...  23.09, 21.44, 23.15 au
Average spatial batch extension              ...   2.13,  2.24,  2.14 au

Time for grid setup =   38.634 sec

------------------------------
INITIAL GUESS: MODEL POTENTIAL
------------------------------
Loading Hartree-Fock densities                     ... done
Calculating cut-offs                               ... done
Setting up the integral package                    ... done
Initializing the effective Hamiltonian             ... done
Starting the Coulomb interaction                   ... done (  27.2 sec)
Reading the grid                                   ... done
Mapping shells                                     ... done
Starting the XC term evaluation                    ... done (  21.2 sec)
  promolecular density results
     # of electrons  =    523.985722808
     EX              =   -495.648713543
     EC              =    -18.692391622
     EX+EC           =   -514.341105165
Transforming the Hamiltonian                       ... done (   0.9 sec)
Diagonalizing the Hamiltonian                      ... done (   2.4 sec)
Back transforming the eigenvectors                 ... done (   0.4 sec)
Now organizing SCF variables                       ... done
                      ------------------
                      INITIAL GUESS DONE (  91.4 sec)
                      ------------------
--------------------
COSX GRID GENERATION
--------------------

General Integration Accuracy     IntAcc      ...  3.340
Radial Grid Type                 RadialGrid  ... Gauss-Chebyshev
Angular Grid (max. acc.)         AngularGrid ... Lebedev-50
Angular grid pruning method      GridPruning ... 3 (G Style)
Weight generation scheme         WeightScheme... Becke
Basis function cutoff            BFCut       ...    1.0000e-11
Integration weight cutoff        WCut        ...    1.0000e-14
Grids for H and He will be reduced by one unit

# of grid points (after initial pruning)     ...  51112 (   0.0 sec)
# of grid points (after weights+screening)   ...  45515 (   2.1 sec)
nearest neighbour list constructed           ...    0.0 sec
Grid point re-assignment to atoms done       ...    0.0 sec
Grid point division into batches done        ...    0.0 sec
Reduced shell lists constructed in    1.8 sec

Total number of grid points                  ...    45515
Total number of batches                      ...      768
Average number of points per batch           ...       59
Average number of grid points per atom       ...      455
Average number of shells per batch           ...   202.51 (22.21%)
Average number of basis functions per batch  ...   519.94 (21.45%)
Average number of large shells per batch     ...   124.06 (61.26%)
Average number of large basis fcns per batch ...   323.97 (62.31%)
Maximum spatial batch extension              ...  20.86, 25.32, 17.60 au
Average spatial batch extension              ...   4.26,  4.81,  4.36 au

Overlap Fitting                  UseSFitting ... on
Constructing numerical overlap ... done (      1.7 sec)
Inverting numerical overlap    ... done (      0.3 sec)
Obtaining analytic overlap     ... done (      0.0 sec)
Final contraction and storage  ... done (      0.4 sec)


General Integration Accuracy     IntAcc      ...  3.670
Radial Grid Type                 RadialGrid  ... Gauss-Chebyshev
Angular Grid (max. acc.)         AngularGrid ... Lebedev-50
Angular grid pruning method      GridPruning ... 3 (G Style)
Weight generation scheme         WeightScheme... Becke
Basis function cutoff            BFCut       ...    1.0000e-11
Integration weight cutoff        WCut        ...    1.0000e-14
Grids for H and He will be reduced by one unit

# of grid points (after initial pruning)     ...  63744 (   0.1 sec)
# of grid points (after weights+screening)   ...  56543 (   2.6 sec)
nearest neighbour list constructed           ...    0.0 sec
Grid point re-assignment to atoms done       ...    0.0 sec
Grid point division into batches done        ...    0.0 sec
Reduced shell lists constructed in    2.2 sec

Total number of grid points                  ...    56543
Total number of batches                      ...      929
Average number of points per batch           ...       60
Average number of grid points per atom       ...      565
Average number of shells per batch           ...   198.15 (21.73%)
Average number of basis functions per batch  ...   507.75 (20.95%)
Average number of large shells per batch     ...   120.87 (61.00%)
Average number of large basis fcns per batch ...   314.83 (62.01%)
Maximum spatial batch extension              ...  20.35, 20.78, 28.41 au
Average spatial batch extension              ...   4.01,  4.53,  4.14 au

Overlap Fitting                  UseSFitting ... on
Constructing numerical overlap ... done (      2.2 sec)
Inverting numerical overlap    ... done (      0.3 sec)
Obtaining analytic overlap     ... done (      0.0 sec)
Final contraction and storage  ... done (      0.4 sec)


General Integration Accuracy     IntAcc      ...  4.010
Radial Grid Type                 RadialGrid  ... Gauss-Chebyshev
Angular Grid (max. acc.)         AngularGrid ... Lebedev-110
Angular grid pruning method      GridPruning ... 3 (G Style)
Weight generation scheme         WeightScheme... Becke
Basis function cutoff            BFCut       ...    1.0000e-11
Integration weight cutoff        WCut        ...    1.0000e-14
Grids for H and He will be reduced by one unit

# of grid points (after initial pruning)     ... 124876 (   0.1 sec)
# of grid points (after weights+screening)   ... 109690 (   5.2 sec)
nearest neighbour list constructed           ...    0.0 sec
Grid point re-assignment to atoms done       ...    0.0 sec
Grid point division into batches done        ...    0.1 sec
Reduced shell lists constructed in    4.0 sec

Total number of grid points                  ...   109690
Total number of batches                      ...     1763
Average number of points per batch           ...       62
Average number of grid points per atom       ...     1097
Average number of shells per batch           ...   187.45 (20.55%)
Average number of basis functions per batch  ...   479.26 (19.77%)
Average number of large shells per batch     ...   114.72 (61.20%)
Average number of large basis fcns per batch ...   297.98 (62.18%)
Maximum spatial batch extension              ...  23.19, 19.13, 21.80 au
Average spatial batch extension              ...   3.40,  3.68,  3.43 au

Overlap Fitting                  UseSFitting ... on
Constructing numerical overlap ... done (      3.6 sec)
Inverting numerical overlap    ... done (      0.3 sec)
Obtaining analytic overlap     ... done (      0.0 sec)
Final contraction and storage  ... done (      0.5 sec)

Time for X-Grid setup             =   28.036 sec
--------------
SCF ITERATIONS
--------------
ITER       Energy         Delta-E        Max-DP      RMS-DP      [F,P]     Damp
               ***  Starting incremental Fock matrix formation  ***
  0  -4652.6944089177   0.000000000000 0.24125319  0.00102187  0.2929412 0.7000
  1  -4653.4915217901  -0.797112872395 0.17827195  0.00088294  0.1050208 0.7000
                               ***Turning on DIIS***
  2  -4653.7795321826  -0.288010392498 0.27948391  0.00130884  0.0444123 0.0000
  3  -4654.2669616034  -0.487429420788 0.16756050  0.00080551  0.0570495 0.0000
  4  -4654.3630852301  -0.096123626790 0.05552113  0.00026228  0.0348233 0.0000
  5  -4654.3745596400  -0.011474409815 0.02890557  0.00011169  0.0097470 0.0000
                      *** Initiating the SOSCF procedure ***
                           *** Shutting down DIIS ***
                      *** Re-Reading the Fockian *** 
                      *** Removing any level shift *** 
ITER      Energy       Delta-E        Grad      Rot      Max-DP    RMS-DP
  6  -4654.37550344  -0.0009438005  0.000881  0.000881  0.008750  0.000036
               *** Restarting incremental Fock matrix formation ***
  7  -4654.37560782  -0.0001043839  0.000554  0.006251  0.009520  0.000075
  8  -4654.37561883  -0.0000110012  0.000425  0.003466  0.005652  0.000037
  9  -4654.37564171  -0.0000228833  0.000212  0.002737  0.006029  0.000036
 10  -4654.37564552  -0.0000038120  0.000144  0.000877  0.001830  0.000011
 11  -4654.37564901  -0.0000034892  0.000146  0.001632  0.001795  0.000014
 12  -4654.37564905  -0.0000000373  0.000099  0.000290  0.000782  0.000004
 13  -4654.37565064  -0.0000015948  0.000032  0.000640  0.000825  0.000007
 14  -4654.37565079  -0.0000001474  0.000038  0.000165  0.000583  0.000002
 15  -4654.37565098  -0.0000001890  0.000013  0.000252  0.001167  0.000004
 16  -4654.37565085   0.0000001237  0.000021  0.000108  0.000174  0.000001
 17  -4654.37565094  -0.0000000864  0.000013  0.000077  0.000684  0.000003
 18  -4654.37565110  -0.0000001573  0.000013  0.000027  0.000545  0.000002
 19  -4654.37565097   0.0000001286  0.000003  0.000061  0.000651  0.000002
 20  -4654.37565082   0.0000001540  0.000005  0.000037  0.000171  0.000001
                  ***Gradient check signals convergence***
              ***Rediagonalizing the Fockian in SOSCF/NRSCF***

               *****************************************************
               *                     SUCCESS                       *
               *           SCF CONVERGED AFTER  21 CYCLES          *
               *****************************************************

Setting up the final grid:

General Integration Accuracy     IntAcc      ...  5.010
Radial Grid Type                 RadialGrid  ... Gauss-Chebyshev
Angular Grid (max. acc.)         AngularGrid ... Lebedev-434
Angular grid pruning method      GridPruning ... 3 (G Style)
Weight generation scheme         WeightScheme... Becke
Basis function cutoff            BFCut       ...    1.0000e-11
Integration weight cutoff        WCut        ...    1.0000e-14
Grids for H and He will be reduced by one unit

# of grid points (after initial pruning)     ... 961704 (   1.4 sec)
# of grid points (after weights+screening)   ... 816261 (  39.9 sec)
nearest neighbour list constructed           ...    0.0 sec
Grid point re-assignment to atoms done       ...    0.1 sec
Grid point division into batches done        ...    5.3 sec
Reduced shell lists constructed in   27.5 sec

Total number of grid points                  ...   816261
Total number of batches                      ...    12806
Average number of points per batch           ...       63
Average number of grid points per atom       ...     8163
Average number of shells per batch           ...   161.00 (17.65%)
Average number of basis functions per batch  ...   405.64 (16.73%)
Average number of large shells per batch     ...    97.08 (60.30%)
Average number of large basis fcns per batch ...   248.52 (61.27%)
Maximum spatial batch extension              ...  21.87, 23.05, 22.80 au
Average spatial batch extension              ...   1.73,  1.81,  1.75 au

Final grid set up in   68.8 sec
Final integration                            ... done (  48.2 sec)
Change in XC energy                          ...    -0.000087025
Integrated number of electrons               ...   523.999644302
Previous integrated no of electrons          ...   523.999557309
Old exchange energy                            =   -100.035211870 Eh
New exchange energy                            =   -100.036280493 Eh
Exchange energy change after final integration =     -0.001068623 Eh
Total energy after final integration           =  -4654.376806585 Eh
Final COS-X integration done in                =  1574.206 sec

----------------
TOTAL SCF ENERGY
----------------

Total Energy       :        -4654.37680659 Eh         -126652.03177 eV

Components:
Nuclear Repulsion  :        10946.80069838 Eh          297877.59081 eV
Electronic Energy  :       -15601.17750496 Eh         -424529.62258 eV
One Electron Energy:       -28179.32850505 Eh         -766798.51191 eV
Two Electron Energy:        12578.15100009 Eh          342268.88933 eV

Virial components:
Potential Energy   :        -9294.66114760 Eh         -252920.58806 eV
Kinetic Energy     :         4640.28434101 Eh          126268.55629 eV
Virial Ratio       :            2.00303698


DFT components:
N(Alpha)           :      261.999822150933 electrons
N(Beta)            :      261.999822150933 electrons
N(Total)           :      523.999644301866 electrons
E(X)               :     -397.770103038400 Eh       
E(C)               :      -21.937359044753 Eh       
E(XC)              :     -419.707462083153 Eh       
DFET-embed. en.    :        0.000000000000 Eh       

---------------
SCF CONVERGENCE
---------------

  Last Energy change         ...   -1.2147e-07  Tolerance :   1.0000e-08
  Last MAX-Density change    ...    5.3291e-15  Tolerance :   1.0000e-07
  Last RMS-Density change    ...    1.3335e-17  Tolerance :   5.0000e-09
  Last Orbital Gradient      ...    1.1384e-06  Tolerance :   1.0000e-05
  Last Orbital Rotation      ...    1.1244e-05  Tolerance :   1.0000e-05

             **** THE GBW FILE WAS UPDATED (AQx-2.gbw) ****
             **** DENSITY FILE WAS UPDATED (AQx-2.scfp) ****
             **** ENERGY FILE WAS UPDATED (AQx-2.en.tmp) ****
             **** THE GBW FILE WAS UPDATED (AQx-2.gbw) ****
             **** DENSITY FILE WAS UPDATED (AQx-2.scfp) ****
----------------
ORBITAL ENERGIES
----------------

  NO   OCC          E(Eh)            E(eV) 
   0   2.0000     -88.910984     -2419.3909 
   1   2.0000     -88.906572     -2419.2708 
   2   2.0000     -88.904425     -2419.2124 
   3   2.0000     -88.902008     -2419.1466 
   4   2.0000     -24.727923      -672.8810 
   5   2.0000     -24.727589      -672.8719 
   6   2.0000     -24.724606      -672.7907 
   7   2.0000     -24.722595      -672.7360 
   8   2.0000     -19.138002      -520.7715 
   9   2.0000     -19.135587      -520.7058 
  10   2.0000     -14.405765      -392.0008 
  11   2.0000     -14.402811      -391.9204 
  12   2.0000     -14.342827      -390.2882 
  13   2.0000     -14.342781      -390.2869 
  14   2.0000     -14.332687      -390.0122 
  15   2.0000     -14.332353      -390.0031 
  16   2.0000     -14.330904      -389.9637 
  17   2.0000     -14.325318      -389.8117 
  18   2.0000     -10.303921      -280.3840 
  19   2.0000     -10.302966      -280.3580 
  20   2.0000     -10.298833      -280.2455 
  21   2.0000     -10.298186      -280.2279 
  22   2.0000     -10.281227      -279.7664 
  23   2.0000     -10.280103      -279.7358 
  24   2.0000     -10.260429      -279.2005 
  25   2.0000     -10.259437      -279.1735 
  26   2.0000     -10.258956      -279.1604 
  27   2.0000     -10.258613      -279.1510 
  28   2.0000     -10.254513      -279.0395 
  29   2.0000     -10.253503      -279.0120 
  30   2.0000     -10.253168      -279.0029 
  31   2.0000     -10.247247      -278.8418 
  32   2.0000     -10.242405      -278.7100 
  33   2.0000     -10.241108      -278.6747 
  34   2.0000     -10.239913      -278.6422 
  35   2.0000     -10.237388      -278.5735 
  36   2.0000     -10.236592      -278.5518 
  37   2.0000     -10.236104      -278.5386 
  38   2.0000     -10.234358      -278.4910 
  39   2.0000     -10.233252      -278.4609 
  40   2.0000     -10.233048      -278.4554 
  41   2.0000     -10.232681      -278.4454 
  42   2.0000     -10.230587      -278.3884 
  43   2.0000     -10.230397      -278.3833 
  44   2.0000     -10.229589      -278.3613 
  45   2.0000     -10.229161      -278.3496 
  46   2.0000     -10.228491      -278.3314 
  47   2.0000     -10.227566      -278.3062 
  48   2.0000     -10.227520      -278.3050 
  49   2.0000     -10.226983      -278.2904 
  50   2.0000     -10.226726      -278.2834 
  51   2.0000     -10.225750      -278.2568 
  52   2.0000     -10.225303      -278.2446 
  53   2.0000     -10.225122      -278.2397 
  54   2.0000     -10.224394      -278.2199 
  55   2.0000     -10.223849      -278.2051 
  56   2.0000     -10.223768      -278.2029 
  57   2.0000     -10.222172      -278.1595 
  58   2.0000     -10.220510      -278.1142 
  59   2.0000     -10.219806      -278.0951 
  60   2.0000     -10.217991      -278.0457 
  61   2.0000     -10.215816      -277.9865 
  62   2.0000     -10.215264      -277.9715 
  63   2.0000     -10.210918      -277.8532 
  64   2.0000     -10.210558      -277.8434 
  65   2.0000     -10.210305      -277.8365 
  66   2.0000     -10.200944      -277.5818 
  67   2.0000     -10.196033      -277.4482 
  68   2.0000     -10.194657      -277.4107 
  69   2.0000     -10.192671      -277.3567 
  70   2.0000     -10.178390      -276.9681 
  71   2.0000     -10.172450      -276.8064 
  72   2.0000      -7.987450      -217.3496 
  73   2.0000      -7.982029      -217.2021 
  74   2.0000      -7.979909      -217.1444 
  75   2.0000      -7.977088      -217.0676 
  76   2.0000      -5.950180      -161.9126 
  77   2.0000      -5.946358      -161.8086 
  78   2.0000      -5.945014      -161.7721 
  79   2.0000      -5.943612      -161.7339 
  80   2.0000      -5.942901      -161.7146 
  81   2.0000      -5.941177      -161.6676 
  82   2.0000      -5.940112      -161.6387 
  83   2.0000      -5.939118      -161.6116 
  84   2.0000      -5.937853      -161.5772 
  85   2.0000      -5.935837      -161.5223 
  86   2.0000      -5.935666      -161.5177 
  87   2.0000      -5.933051      -161.4465 
  88   2.0000      -1.271249       -34.5925 
  89   2.0000      -1.266885       -34.4737 
  90   2.0000      -1.257867       -34.2283 
  91   2.0000      -1.253496       -34.1094 
  92   2.0000      -1.068865       -29.0853 
  93   2.0000      -1.066606       -29.0238 
  94   2.0000      -1.043960       -28.4076 
  95   2.0000      -1.031826       -28.0774 
  96   2.0000      -1.004803       -27.3421 
  97   2.0000      -0.950174       -25.8556 
  98   2.0000      -0.945155       -25.7190 
  99   2.0000      -0.936569       -25.4853 
 100   2.0000      -0.933360       -25.3980 
 101   2.0000      -0.930865       -25.3301 
 102   2.0000      -0.930527       -25.3209 
 103   2.0000      -0.927761       -25.2457 
 104   2.0000      -0.927386       -25.2355 
 105   2.0000      -0.922868       -25.1125 
 106   2.0000      -0.891892       -24.2696 
 107   2.0000      -0.886645       -24.1269 
 108   2.0000      -0.882469       -24.0132 
 109   2.0000      -0.876351       -23.8467 
 110   2.0000      -0.867960       -23.6184 
 111   2.0000      -0.839616       -22.8471 
 112   2.0000      -0.832634       -22.6571 
 113   2.0000      -0.827648       -22.5214 
 114   2.0000      -0.824845       -22.4452 
 115   2.0000      -0.819192       -22.2914 
 116   2.0000      -0.818336       -22.2681 
 117   2.0000      -0.809282       -22.0217 
 118   2.0000      -0.804650       -21.8956 
 119   2.0000      -0.803858       -21.8741 
 120   2.0000      -0.799484       -21.7551 
 121   2.0000      -0.787094       -21.4179 
 122   2.0000      -0.779095       -21.2003 
 123   2.0000      -0.761725       -20.7276 
 124   2.0000      -0.759626       -20.6705 
 125   2.0000      -0.753847       -20.5132 
 126   2.0000      -0.742536       -20.2054 
 127   2.0000      -0.732388       -19.9293 
 128   2.0000      -0.724992       -19.7280 
 129   2.0000      -0.720017       -19.5927 
 130   2.0000      -0.706037       -19.2122 
 131   2.0000      -0.702384       -19.1129 
 132   2.0000      -0.701017       -19.0756 
 133   2.0000      -0.697494       -18.9798 
 134   2.0000      -0.692383       -18.8407 
 135   2.0000      -0.673113       -18.3163 
 136   2.0000      -0.666179       -18.1276 
 137   2.0000      -0.661963       -18.0129 
 138   2.0000      -0.654107       -17.7992 
 139   2.0000      -0.649747       -17.6805 
 140   2.0000      -0.646553       -17.5936 
 141   2.0000      -0.640184       -17.4203 
 142   2.0000      -0.636985       -17.3333 
 143   2.0000      -0.627984       -17.0883 
 144   2.0000      -0.620473       -16.8839 
 145   2.0000      -0.615827       -16.7575 
 146   2.0000      -0.611978       -16.6528 
 147   2.0000      -0.603840       -16.4313 
 148   2.0000      -0.594025       -16.1642 
 149   2.0000      -0.592516       -16.1232 
 150   2.0000      -0.586958       -15.9719 
 151   2.0000      -0.580206       -15.7882 
 152   2.0000      -0.577241       -15.7075 
 153   2.0000      -0.575086       -15.6489 
 154   2.0000      -0.571642       -15.5552 
 155   2.0000      -0.564636       -15.3645 
 156   2.0000      -0.553805       -15.0698 
 157   2.0000      -0.551477       -15.0064 
 158   2.0000      -0.545726       -14.8500 
 159   2.0000      -0.543141       -14.7796 
 160   2.0000      -0.540579       -14.7099 
 161   2.0000      -0.534757       -14.5515 
 162   2.0000      -0.532816       -14.4987 
 163   2.0000      -0.526842       -14.3361 
 164   2.0000      -0.523219       -14.2375 
 165   2.0000      -0.522714       -14.2238 
 166   2.0000      -0.518982       -14.1222 
 167   2.0000      -0.517400       -14.0792 
 168   2.0000      -0.517023       -14.0689 
 169   2.0000      -0.507496       -13.8097 
 170   2.0000      -0.501786       -13.6543 
 171   2.0000      -0.499689       -13.5972 
 172   2.0000      -0.496657       -13.5147 
 173   2.0000      -0.489004       -13.3065 
 174   2.0000      -0.488304       -13.2874 
 175   2.0000      -0.487994       -13.2790 
 176   2.0000      -0.487567       -13.2674 
 177   2.0000      -0.486275       -13.2322 
 178   2.0000      -0.483784       -13.1644 
 179   2.0000      -0.483549       -13.1580 
 180   2.0000      -0.480317       -13.0701 
 181   2.0000      -0.472815       -12.8660 
 182   2.0000      -0.470348       -12.7988 
 183   2.0000      -0.467472       -12.7206 
 184   2.0000      -0.466150       -12.6846 
 185   2.0000      -0.464957       -12.6521 
 186   2.0000      -0.464681       -12.6446 
 187   2.0000      -0.461846       -12.5675 
 188   2.0000      -0.458697       -12.4818 
 189   2.0000      -0.455814       -12.4033 
 190   2.0000      -0.454131       -12.3575 
 191   2.0000      -0.452318       -12.3082 
 192   2.0000      -0.449048       -12.2192 
 193   2.0000      -0.445559       -12.1243 
 194   2.0000      -0.443183       -12.0596 
 195   2.0000      -0.441389       -12.0108 
 196   2.0000      -0.435137       -11.8407 
 197   2.0000      -0.433789       -11.8040 
 198   2.0000      -0.431799       -11.7498 
 199   2.0000      -0.430715       -11.7203 
 200   2.0000      -0.428790       -11.6680 
 201   2.0000      -0.427837       -11.6420 
 202   2.0000      -0.426274       -11.5995 
 203   2.0000      -0.425896       -11.5892 
 204   2.0000      -0.422186       -11.4883 
 205   2.0000      -0.421036       -11.4570 
 206   2.0000      -0.417980       -11.3738 
 207   2.0000      -0.414236       -11.2719 
 208   2.0000      -0.412246       -11.2178 
 209   2.0000      -0.411348       -11.1934 
 210   2.0000      -0.407599       -11.0913 
 211   2.0000      -0.404774       -11.0145 
 212   2.0000      -0.402172       -10.9437 
 213   2.0000      -0.400163       -10.8890 
 214   2.0000      -0.397792       -10.8245 
 215   2.0000      -0.393943       -10.7197 
 216   2.0000      -0.393293       -10.7020 
 217   2.0000      -0.391743       -10.6599 
 218   2.0000      -0.391534       -10.6542 
 219   2.0000      -0.391002       -10.6397 
 220   2.0000      -0.388188       -10.5631 
 221   2.0000      -0.387746       -10.5511 
 222   2.0000      -0.386594       -10.5197 
 223   2.0000      -0.383639       -10.4394 
 224   2.0000      -0.381062       -10.3692 
 225   2.0000      -0.379857       -10.3364 
 226   2.0000      -0.379105       -10.3160 
 227   2.0000      -0.372990       -10.1496 
 228   2.0000      -0.369815       -10.0632 
 229   2.0000      -0.367543       -10.0014 
 230   2.0000      -0.366912        -9.9842 
 231   2.0000      -0.365583        -9.9480 
 232   2.0000      -0.363880        -9.9017 
 233   2.0000      -0.362588        -9.8665 
 234   2.0000      -0.360884        -9.8202 
 235   2.0000      -0.360822        -9.8185 
 236   2.0000      -0.359768        -9.7898 
 237   2.0000      -0.355801        -9.6818 
 238   2.0000      -0.348885        -9.4936 
 239   2.0000      -0.348431        -9.4813 
 240   2.0000      -0.345496        -9.4014 
 241   2.0000      -0.342098        -9.3090 
 242   2.0000      -0.340903        -9.2764 
 243   2.0000      -0.336697        -9.1620 
 244   2.0000      -0.328611        -8.9420 
 245   2.0000      -0.314599        -8.5607 
 246   2.0000      -0.309369        -8.4184 
 247   2.0000      -0.299227        -8.1424 
 248   2.0000      -0.296872        -8.0783 
 249   2.0000      -0.292836        -7.9685 
 250   2.0000      -0.286126        -7.7859 
 251   2.0000      -0.281836        -7.6692 
 252   2.0000      -0.277415        -7.5489 
 253   2.0000      -0.272369        -7.4115 
 254   2.0000      -0.268597        -7.3089 
 255   2.0000      -0.268004        -7.2928 
 256   2.0000      -0.264954        -7.2098 
 257   2.0000      -0.262206        -7.1350 
 258   2.0000      -0.242656        -6.6030 
 259   2.0000      -0.235728        -6.4145 
 260   2.0000      -0.231207        -6.2915 
 261   2.0000      -0.205693        -5.5972 
 262   0.0000      -0.133298        -3.6272 
 263   0.0000      -0.124517        -3.3883 
 264   0.0000      -0.110194        -2.9985 
 265   0.0000      -0.107329        -2.9206 
 266   0.0000      -0.085432        -2.3247 
 267   0.0000      -0.064557        -1.7567 
 268   0.0000      -0.058875        -1.6021 
 269   0.0000      -0.044237        -1.2037 
 270   0.0000      -0.036431        -0.9913 
 271   0.0000      -0.024287        -0.6609 
 272   0.0000      -0.020950        -0.5701 
 273   0.0000      -0.019468        -0.5298 
 274   0.0000      -0.017720        -0.4822 
 275   0.0000      -0.006616        -0.1800 
 276   0.0000      -0.006151        -0.1674 
 277   0.0000       0.001128         0.0307 
 278   0.0000       0.001726         0.0470 
 279   0.0000       0.005335         0.1452 
 280   0.0000       0.006970         0.1897 
 281   0.0000       0.012525         0.3408 
 282   0.0000       0.017260         0.4697 
 283   0.0000       0.020380         0.5546 
 284   0.0000       0.023476         0.6388 
 285   0.0000       0.025900         0.7048 
[...]
   Memory needed                 ...  1573 MB
   Memory available              ...  2000 MB
   Number of vectors per batch   ...    11
   Number of batches             ...     1
   Time for densities:    17.487
   Time for K (COSX):  1597.697
   Time for XC-Integration:    70.124
   Time for Sigma-Completion:   316.582
   Size of expansion space: 9
   Lowest Energy          :     0.050451209416
   Maximum Energy change  :     0.078653281192 (vector 2)
   Maximum residual norm  :     0.000446830024

                       ****Iteration    1****
   Time for densities:     5.695
   Time for K (COSX):  1521.878
   Time for XC-Integration:    25.060
   Time for Sigma-Completion:   105.559
   Size of expansion space: 12
   Lowest Energy          :     0.048308617024
   Maximum Energy change  :     0.004444749090 (vector 2)
   Maximum residual norm  :     0.000041064778

                       ****Iteration    2****
   Time for densities:     5.664
   Time for K (COSX):  1528.473
   Time for XC-Integration:    25.607
   Time for Sigma-Completion:   105.492
   Size of expansion space: 15
   Lowest Energy          :     0.048216083129
   Maximum Energy change  :     0.000426849563 (vector 2)
   Maximum residual norm  :     0.000007942885
   Rebuilding the expansion space

                       ****Iteration    3****
   Time for densities:    11.616
   Time for K (COSX):  1586.184
   Time for XC-Integration:    50.362
   Time for Sigma-Completion:   213.330
   Size of expansion space: 6
   Lowest Energy          :     0.048212161590
   Maximum Energy change  :     0.000062798885 (vector 2)
   Maximum residual norm  :     0.000001517544

                       ****Iteration    4****
   Time for densities:     5.825
   Time for K (COSX):  1540.014
   Time for XC-Integration:    25.318
   Time for Sigma-Completion:   104.870
   Size of expansion space: 9
   Lowest Energy          :     0.048211873657
   Maximum Energy change  :     0.000015125396 (vector 2)
   Maximum residual norm  :     0.000000624043

                       ****Iteration    5****
   Time for densities:     5.779
   Time for K (COSX):  1507.361
   Time for XC-Integration:    24.700
   Time for Sigma-Completion:   104.400
   Size of expansion space: 12
   Lowest Energy          :     0.048211858382
   Maximum Energy change  :     0.000005281055 (vector 2)
   Maximum residual norm  :     0.000000464924

                       ****Iteration    6****
   Time for densities:     5.718
   Time for K (COSX):  1515.080
   Time for XC-Integration:    25.480
   Time for Sigma-Completion:   104.135
   Size of expansion space: 15
   Lowest Energy          :     0.048211858005
   Maximum Energy change  :     0.000005765801 (vector 2)
   Maximum residual norm  :     0.000000249122

      *** CONVERGENCE OF RESIDUAL NORM REACHED ***

Storing the converged CI vectors               ... AQx-2.cis3

                 *** DAVIDSON DONE ***

------------------------------------
TD-DFT/TDA EXCITED STATES (TRIPLETS)
------------------------------------

the weight of the individual excitations are printed if larger than 1.0e-02

STATE  1:  E=   0.048212 au      1.312 eV    10581.3 cm**-1
   259a -> 263a  :     0.052278 (c= -0.22864465)
   261a -> 262a  :     0.886585 (c=  0.94158667)
   261a -> 263a  :     0.015982 (c= -0.12642066)

STATE  2:  E=   0.055677 au      1.515 eV    12219.7 cm**-1
   259a -> 262a  :     0.162426 (c= -0.40302074)
   261a -> 263a  :     0.768367 (c=  0.87656539)
   261a -> 265a  :     0.023198 (c=  0.15230897)

STATE  3:  E=   0.073693 au      2.005 eV    16173.7 cm**-1
   257a -> 262a  :     0.017276 (c= -0.13143871)
   259a -> 263a  :     0.051626 (c=  0.22721438)
   259a -> 265a  :     0.069154 (c= -0.26297217)
   261a -> 264a  :     0.551028 (c= -0.74231290)
   261a -> 265a  :     0.231082 (c= -0.48071002)

------------------------------
TD-DFT/TDA SPIN-ORBIT COUPLING
------------------------------

Calculating the spin-orbit integrals:             

Loading the effective charges         ... done
Entering the SOC calc. section        ... 
------------------------------------------------------------------------------
                         ORCA SPIN-ORBIT COUPLING CALCULATION
------------------------------------------------------------------------------

GBW file                                    ... AQx-2.gbw
Input density                               ... AQx-2.cisp0
Output integrals                            ... AQx-2.cis
Operator type                               ... Mean-field/Effective potential
   One-Electron Terms                       ... 1
   Coulomb Contribution                     ... 2
   Exchange Contribution                    ... 3
   Correlation Contribution                 ... 0
   Maximum number of centers                ... 4
Setting up the integration grid             ... done
Evaluating density on the grid              ... (NumEl=  523.999557) done
Evaluating Coulomb term semi-analytically   ... done
One-Center Exchange (+SOO)                  ... done
Evaluating the spin-orbit operator          ... done
Transforming the SOC integrals              ... done
Constructing the SOC matrix:                ... done
Diagonalizing the SOC matrix:               ... done

      --------------------------------------------------------------------------------
                      CALCULATED SOCME BETWEEN TRIPLETS AND SINGLETS                  
      --------------------------------------------------------------------------------
           Root                          <T|HSO|S>  (Re, Im) cm-1                     
         T      S             Z                     X                     Y           
      --------------------------------------------------------------------------------
         1      0    (   0.00 ,    1.77 )    (   0.00 ,   -1.23 )    (  -0.00 ,   -0.16 )
         1      1    (   0.00 ,    1.09 )    (   0.00 ,    0.00 )    (  -0.00 ,    0.07 )
         1      2    (   0.00 ,    1.43 )    (   0.00 ,    0.08 )    (  -0.00 ,    0.11 )
         1      3    (   0.00 ,    1.06 )    (   0.00 ,    0.47 )    (  -0.00 ,   -0.02 )
         2      0    (   0.00 ,    2.01 )    (   0.00 ,   -1.11 )    (  -0.00 ,   -0.00 )
         2      1    (   0.00 ,    0.11 )    (   0.00 ,    0.06 )    (  -0.00 ,   -0.07 )
         2      2    (   0.00 ,    0.75 )    (   0.00 ,    0.16 )    (  -0.00 ,    0.08 )
         2      3    (   0.00 ,    1.08 )    (   0.00 ,    0.41 )    (  -0.00 ,    0.04 )
         3      0    (   0.00 ,   -0.87 )    (   0.00 ,   -0.63 )    (  -0.00 ,   -0.13 )
         3      1    (   0.00 ,    0.79 )    (   0.00 ,    0.08 )    (  -0.00 ,    0.05 )
         3      2    (   0.00 ,    0.11 )    (   0.00 ,   -0.03 )    (  -0.00 ,   -0.01 )
         3      3    (   0.00 ,   -0.44 )    (   0.00 ,   -0.18 )    (  -0.00 ,   -0.07 )

SOC stabilization of the ground state:  -0.0009 cm-1
Eigenvalues of the SOC matrix:

   State:        cm-1         eV
     0:          0.00         0.0000
     1:      10581.28         1.3119
     2:      10581.28         1.3119
     3:      10581.28         1.3119
     4:      12219.70         1.5150
     5:      12219.70         1.5150
     6:      12219.70         1.5150
     7:      14467.43         1.7937
     8:      16173.68         2.0053
     9:      16173.68         2.0053
    10:      16173.68         2.0053
    11:      16649.61         2.0643
    12:      18555.61         2.3006

The threshold for printing is 0.0100
Eigenvectors of the SOC matrix:

             E(cm-1)  Weight      Real         Imag     : Root  Spin  Ms
 STATE  0:      0.00
                      1.00000     -0.20885     -0.97795 : 0     0     0
 STATE  1:  10581.28
                      0.36927     -0.28305      0.53773 : 1     1     0
                      0.31536     -0.41842      0.37455 : 1     1    -1
                      0.31536      0.07189     -0.55695 : 1     1     1
 STATE  2:  10581.28
                      0.02123      0.14204      0.03243 : 1     1     0
                      0.48939      0.31537     -0.62444 : 1     1    -1
                      0.48939     -0.01315     -0.69944 : 1     1     1
 STATE  3:  10581.28
                      0.60950      0.05154      0.77900 : 1     1     0
                      0.19525     -0.00348     -0.44186 : 1     1    -1
                      0.19525      0.05477      0.43846 : 1     1     1
 STATE  4:  12219.70
                      0.78274      0.32188      0.82409 : 2     1     0
                      0.10863      0.23091      0.23518 : 2     1    -1
                      0.10863      0.01037     -0.32943 : 2     1     1
 STATE  5:  12219.70
                      0.49699      0.33741      0.61899 : 2     1    -1
                      0.49699     -0.00870      0.70492 : 2     1     1
 STATE  6:  12219.70
                      0.21125     -0.10777     -0.44680 : 2     1     0
                      0.39438      0.27436      0.56489 : 2     1    -1
                      0.39438     -0.01334     -0.62785 : 2     1     1
 STATE  7:  14467.43
                      1.00000      0.52499      0.85111 : 1     0     0
 STATE  8:  16173.68
                      0.94580     -0.68216      0.69315 : 3     1     0
                      0.02710      0.00263      0.16460 : 3     1    -1
                      0.02710      0.16462      0.00000 : 3     1     1
 STATE  9:  16173.68
                      0.03687     -0.03121      0.18945 : 3     1     0
                      0.48157     -0.65728     -0.22259 : 3     1    -1
                      0.48157     -0.69395      0.00000 : 3     1     1
 STATE 10:  16173.68
                      0.01733     -0.12931     -0.02477 : 3     1     0
                      0.49133      0.65134      0.25903 : 3     1    -1
                      0.49133     -0.70095     -0.00000 : 3     1     1
 STATE 11:  16649.61
                      1.00000      0.35630      0.93437 : 2     0     0
 STATE 12:  18555.61
                      1.00000      0.38589      0.92255 : 3     0     0

-----------------------------
TD-DFT/TDA-EXCITATION SPECTRA
-----------------------------

Center of mass = ( 22.2401, -4.4998, -4.0190)
Calculating the Dipole integrals                  ... done
Transforming integrals                            ... done
Calculating the Linear Momentum integrals         ... done
Transforming integrals                            ... done
Calculating angular momentum integrals            ... done
Transforming integrals                            ... done

-----------------------------------------------------------------------------
         ABSORPTION SPECTRUM VIA TRANSITION ELECTRIC DIPOLE MOMENTS
-----------------------------------------------------------------------------
State   Energy    Wavelength  fosc         T2        TX        TY        TZ  
        (cm-1)      (nm)                 (au**2)    (au)      (au)      (au) 
-----------------------------------------------------------------------------
   1   14467.4    691.2   1.723107612  39.20997  -5.41034   2.37281   2.07556
   2   16649.6    600.6   0.633385410  12.52390   2.79790  -2.13935  -0.34478
   3   18555.6    538.9   0.395190600   7.01144   2.12754  -1.27150  -0.93183
   4   10581.3    945.1   spin forbidden (mult=3)
   5   12219.7    818.4   spin forbidden (mult=3)
   6   16173.7    618.3   spin forbidden (mult=3)

-----------------------------------------------------------------------------
         ABSORPTION SPECTRUM VIA TRANSITION VELOCITY DIPOLE MOMENTS
-----------------------------------------------------------------------------
State   Energy    Wavelength   fosc        P2         PX        PY        PZ  
        (cm-1)      (nm)                 (au**2)     (au)      (au)      (au) 
-----------------------------------------------------------------------------
   1   14467.4    691.2   0.369051398   0.03649   0.15140  -0.11206  -0.03184
   2   16649.6    600.6   0.097764108   0.01112  -0.09924   0.02389   0.02657
   3   18555.6    538.9   0.193581016   0.02455  -0.14693   0.04828   0.02509
   4   10581.3    945.1   spin forbidden (mult=3)
   5   12219.7    818.4   spin forbidden (mult=3)
   6   16173.7    618.3   spin forbidden (mult=3)

-------------------------------------------------------------------
                             CD SPECTRUM
-------------------------------------------------------------------
State  Energy     Wavelength     R         MX        MY        MZ   
       (cm-1)       (nm)     (1e40*cgs)   (au)      (au)      (au)  
-------------------------------------------------------------------
   1   14467.4    691.2    423.02167  -0.29680  -0.14580  -0.17467
   2   16649.6    600.6     86.38316   0.27452   0.21333   0.37258
   3   18555.6    538.9     73.38369   0.00229  -0.34077   0.30317
   4   10581.3    945.1 spin forbidden
   5   12219.7    818.4 spin forbidden
   6   16173.7    618.3 spin forbidden

-------------------------------------------
SOC CORRECTED TD-DFT/TDA-EXCITATION SPECTRA
--------------------------------------------

-----------------------------------------------------------------------------
  SOC CORRECTED ABSORPTION SPECTRUM VIA TRANSITION ELECTRIC DIPOLE MOMENTS*  
-----------------------------------------------------------------------------
State   Energy  Wavelength   fosc         T2         TX        TY        TZ  
        (cm-1)    (nm)                  (au**2)     (au)      (au)      (au) 
-----------------------------------------------------------------------------
   1   10581.3    945.1   0.000000001   0.00000   0.00001   0.00013   0.00006
   2   10581.3    945.1   0.000000001   0.00000   0.00012   0.00001   0.00010
   3   10581.3    945.1   0.000000043   0.00000   0.00095   0.00040   0.00052
   4   12219.7    818.4   0.000000092   0.00000   0.00133   0.00069   0.00048
   5   12219.7    818.4   0.000000001   0.00000   0.00015   0.00004   0.00007
   6   12219.7    818.4   0.000000073   0.00000   0.00120   0.00041   0.00060
   7   14467.4    691.2   1.723107806  39.20997   5.41034   2.37281   2.07556
   8   16173.7    618.3   0.000000468   0.00001   0.00262   0.00148   0.00071
   9   16173.7    618.3   0.000000013   0.00000   0.00041   0.00027   0.00014
  10   16173.7    618.3   0.000000002   0.00000   0.00010   0.00011   0.00014
  11   16649.6    600.6   0.633384558  12.52388   2.79789   2.13935   0.34478
  12   18555.6    538.9   0.395190678   7.01144   2.12754   1.27150   0.93183

-----------------------------------------------------------------------------
  SOC CORRECTED ABSORPTION SPECTRUM VIA TRANSITION VELOCITY DIPOLE MOMENTS*  
-----------------------------------------------------------------------------
State   Energy  Wavelength   fosc         P2         PX        PY        PZ  
        (cm-1)    (nm)                  (au**2)     (au)      (au)      (au) 
-----------------------------------------------------------------------------
   1   10581.3    945.1   0.000000002   0.00000   0.00001   0.00001   0.00000
   2   10581.3    945.1   0.000000000   0.00000   0.00000   0.00000   0.00000
   3   10581.3    945.1   0.000000009   0.00000   0.00001   0.00002   0.00000
   4   12219.7    818.4   0.000000019   0.00000   0.00004   0.00001   0.00001
   5   12219.7    818.4   0.000000000   0.00000   0.00000   0.00000   0.00000
   6   12219.7    818.4   0.000000003   0.00000   0.00002   0.00001   0.00001
   7   14467.4    691.2   0.369051384   0.03649   0.15140   0.11206   0.03184
   8   16173.7    618.3   0.000000050   0.00000   0.00006   0.00005   0.00001
   9   16173.7    618.3   0.000000003   0.00000   0.00002   0.00001   0.00000
  10   16173.7    618.3   0.000000002   0.00000   0.00001   0.00001   0.00000
  11   16649.6    600.6   0.097763959   0.01112   0.09924   0.02389   0.02657
  12   18555.6    538.9   0.193581006   0.02455   0.14693   0.04828   0.02509

-------------------------------------------------------------------
                    SOC CORRECTED CD SPECTRUM*                     
-------------------------------------------------------------------
State   Energy Wavelength       R         MX        MY        MZ   
        (cm-1)   (nm)       (1e40*sgs)   (au)      (au)      (au)  
-------------------------------------------------------------------
   1   10581.3    945.1      0.00000   0.00001   0.00003   0.00006
   2   10581.3    945.1      0.00000   0.00000   0.00001   0.00002
   3   10581.3    945.1      0.00002   0.00003   0.00003   0.00003
   4   12219.7    818.4      0.00001   0.00003   0.00003   0.00011
   5   12219.7    818.4      0.00000   0.00001   0.00001   0.00000
   6   12219.7    818.4      0.00000   0.00003   0.00002   0.00004
   7   14467.4    691.2    423.02165   0.29680   0.14580   0.17467
   8   16173.7    618.3      0.00007   0.00018   0.00017   0.00008
   9   16173.7    618.3      0.00000   0.00003   0.00002   0.00004
  10   16173.7    618.3      0.00000   0.00002   0.00000   0.00004
  11   16649.6    600.6     86.38297   0.27452   0.21333   0.37258
  12   18555.6    538.9     73.38365   0.00229   0.34077   0.30317

*The X,Y and Z components are the absolute values of the complex numbers

Total run time:    73020.988 sec

           *** ORCA-CIS/TD-DFT FINISHED WITHOUT ERROR ***

---------------------------
SOC CIS/TD-DFT TOTAL ENERGY
---------------------------

    E(SCF)        =  -4654.376806585 Eh
    E(SOC CIS)    =      0.048211854 Eh (SOC Root  1)
    ----------------------------- ---------
    E(tot)        =  -4654.328594731 Eh


-------------------------   --------------------
FINAL SINGLE POINT ENERGY     -4654.328594731156
-------------------------   --------------------


                            ***************************************
                            *     ORCA property calculations      *
                            ***************************************

                                    ---------------------
                                    Active property flags
                                    ---------------------
   (+) Dipole Moment


------------------------------------------------------------------------------
                       ORCA ELECTRIC PROPERTIES CALCULATION
------------------------------------------------------------------------------

Dipole Moment Calculation                       ... on
Quadrupole Moment Calculation                   ... off
Polarizability Calculation                      ... off
GBWName                                         ... AQx-2.gbw
Electron density file                           ... AQx-2.scfp
The origin for moment calculation is the CENTER OF MASS  = (22.240063, -4.499806 -4.018958)

-------------
DIPOLE MOMENT
-------------
                                X             Y             Z
Electronic contribution:      7.01190      11.11433     -27.26273
Nuclear contribution   :     -6.06639     -13.19634      26.33251
                        -----------------------------------------
Total Dipole Moment    :      0.94551      -2.08201      -0.93022
                        -----------------------------------------
Magnitude (a.u.)       :      2.46862
Magnitude (Debye)      :      6.27472



--------------------
Rotational spectrum 
--------------------
 
Rotational constants in cm-1:     0.001998     0.000259     0.000235 
Rotational constants in MHz :    59.892351     7.752177     7.034430 

 Dipole components along the rotational axes: 
x,y,z [a.u.] :    -1.997376     0.263468     1.426584 
x,y,z [Debye]:    -5.076925     0.669683     3.626089 

 

Timings for individual modules:

Sum of individual times         ...    89956.434 sec (=1499.274 min)
GTO integral calculation        ...        6.295 sec (=   0.105 min)   0.0 %
SCF iterations                  ...    16927.476 sec (= 282.125 min)  18.8 %
CIS module                      ...    73022.663 sec (=1217.044 min)  81.2 %
                             ****ORCA TERMINATED NORMALLY****
TOTAL RUN TIME: 1 days 0 hours 59 minutes 17 seconds 853 msec
