
                                 *****************
                                 * O   R   C   A *
                                 *****************

           --- An Ab Initio, DFT and Semiempirical electronic structure package ---

                  #######################################################
                  #                        -***-                        #
                  #          Department of theory and spectroscopy      #
                  #               Directorship: Frank Neese             #
                  #        Max Planck Institute fuer Kohlenforschung    #
                  #                Kaiser Wilhelm Platz 1               #
                  #                 D-45470 Muelheim/Ruhr               #
                  #                      Germany                        #
                  #                                                     #
                  #                  All rights reserved                #
                  #                        -***-                        #
                  #######################################################


                         Program Version 4.2.0 -  RELEASE  -


 With contributions from (in alphabetic order):
   Daniel Aravena         : Magnetic Suceptibility
   Michael Atanasov       : Ab Initio Ligand Field Theory (pilot matlab implementation)
   Alexander A. Auer      : GIAO ZORA, VPT2
   Ute Becker             : Parallelization
   Giovanni Bistoni       : ED, misc. LED, open-shell LED, HFLED
   Martin Brehm           : Molecular dynamics
   Dmytro Bykov           : SCF Hessian
   Vijay G. Chilkuri      : MRCI spin determinant printing, contributions to CSF-ICE
   Dipayan Datta          : RHF DLPNO-CCSD density
   Achintya Kumar Dutta   : EOM-CC, STEOM-CC
   Dmitry Ganyushin       : Spin-Orbit,Spin-Spin,Magnetic field MRCI
   Miquel Garcia          : C-PCM Hessian, Gaussian charge scheme
   Yang Guo               : DLPNO-NEVPT2, CIM, IAO-localization
   Andreas Hansen         : Spin unrestricted coupled pair/coupled cluster methods
   Benjamin Helmich-Paris : CASSCF linear response (MC-RPA)
   Lee Huntington         : MR-EOM, pCC
   Robert Izsak           : Overlap fitted RIJCOSX, COSX-SCS-MP3, EOM
   Christian Kollmar      : KDIIS, OOCD, Brueckner-CCSD(T), CCSD density
   Simone Kossmann        : Meta GGA functionals, TD-DFT gradient, OOMP2, MP2 Hessian
   Martin Krupicka        : AUTO-CI
   Lucas Lang             : DCDCAS
   Dagmar Lenk            : GEPOL surface, SMD
   Dimitrios Liakos       : Extrapolation schemes; Compound Job, initial MDCI parallelization
   Dimitrios Manganas     : Further ROCIS development; embedding schemes
   Dimitrios Pantazis     : SARC Basis sets
   Taras Petrenko         : DFT Hessian,TD-DFT gradient, ASA, ECA, R-Raman, ABS, FL, XAS/XES, NRVS
   Peter Pinski           : DLPNO-MP2, DLPNO-MP2 Gradient
   Christoph Reimann      : Effective Core Potentials
   Marius Retegan         : Local ZFS, SOC
   Christoph Riplinger    : Optimizer, TS searches, QM/MM, DLPNO-CCSD(T), (RO)-DLPNO pert. Triples
   Tobias Risthaus        : Range-separated hybrids, TD-DFT gradient, RPA, STAB
   Michael Roemelt        : Original ROCIS implementation
   Masaaki Saitow         : Open-shell DLPNO-CCSD energy and density
   Barbara Sandhoefer     : DKH picture change effects
   Avijit Sen             : IP-ROCIS
   Kantharuban Sivalingam : CASSCF convergence, NEVPT2, FIC-MRCI
   Bernardo de Souza      : ESD, SOC TD-DFT
   Georgi Stoychev        : AutoAux, RI-MP2 NMR
   Willem Van den Heuvel  : Paramagnetic NMR
   Boris Wezisla          : Elementary symmetry handling
   Frank Wennmohs         : Technical directorship


 We gratefully acknowledge several colleagues who have allowed us to
 interface, adapt or use parts of their codes:
   Stefan Grimme, W. Hujo, H. Kruse,             : VdW corrections, initial TS optimization,
                  C. Bannwarth                     DFT functionals, gCP, sTDA/sTD-DF
   Ed Valeev, F. Pavosevic, A. Kumar             : LibInt (2-el integral package), F12 methods
   Garnet Chan, S. Sharma, J. Yang, R. Olivares  : DMRG
   Ulf Ekstrom                                   : XCFun DFT Library
   Mihaly Kallay                                 : mrcc  (arbitrary order and MRCC methods)
   Andreas Klamt, Michael Diedenhofen            : otool_cosmo (COSMO solvation model)
   Jiri Pittner, Ondrej Demel                    : Mk-CCSD
   Frank Weinhold                                : gennbo (NPA and NBO analysis)
   Christopher J. Cramer and Donald G. Truhlar   : smd solvation model
   Lars Goerigk                                  : TD-DFT with DH, B97 family of functionals
   V. Asgeirsson, H. Jonsson                     : NEB implementation
   FAccTs GmbH                                   : IRC, NEB, NEB-TS, Multilevel, MM, QM/MM, CI optimization
   S Lehtola, MJT Oliveira, MAL Marques          : LibXC Library


 Your calculation uses the libint2 library for the computation of 2-el integrals
 For citations please refer to: http://libint.valeyev.net

 Your ORCA version has been built with support for libXC version: 4.2.3
 For citations please refer to: https://tddft.org/programs/libxc/

 This ORCA versions uses:
   CBLAS   interface :  Fast vector & matrix operations
   LAPACKE interface :  Fast linear algebra routines
   SCALAPACK package :  Parallel linear algebra routines


----- Orbital basis set information -----
Your calculation utilizes the basis: def2-TZVP
   F. Weigend and R. Ahlrichs, Phys. Chem. Chem. Phys. 7, 3297 (2005).

----- AuxJ basis set information -----
Your calculation utilizes the auxiliary basis: def2/J
   F. Weigend, Phys. Chem. Chem. Phys. 8, 1057 (2006).

================================================================================
                                        WARNINGS
                       Please study these warnings very carefully!
================================================================================

INFO   : Checking CIS options ...

WARNING: (CIS/TDDFT): Spin-orbit needs TRIPLETS set to TRUE
  ===> : ajusting flags

WARNING: CIS/ROCIS methods need fully converged wavefunctions
  ===> : Setting SCFConvForced true
         You can overwrite this default with %scf ConvForced false 


INFO   : the flag for use of LIBINT has been found!

================================================================================
                                       INPUT FILE
================================================================================
NAME = AQx-2.inp
|  1> # ORCA input file
|  2> # AQx-2.out: Geometry 262
|  3> ! B3LYP def2-TZVP def2/J RIJCOSX Grid4 TightSCF
|  4> 
|  5> %maxcore 6000
|  6> %tddft
|  7>   maxdim 5
|  8>   nroots 3
|  9>   dosoc true
| 10>   end
| 11> %pal
| 12>   nprocs 6
| 13>   end
| 14> 
| 15> 
| 16> * xyz 0 1
| 17>    C        4.53080         2.45302        -1.40038
| 18>    O        5.51954         2.12565        -2.03512
| 19>    C        3.56765         3.52064        -1.77848
| 20>    C        3.55420         4.28554        -2.93960
| 21>    C        2.52682         5.21230        -3.08599
| 22>    F        2.43228         5.95854        -4.18326
| 23>    C        1.56084         5.37394        -2.07630
| 24>    F        0.60950         6.28775        -2.25275
| 25>    C        1.57828         4.60792        -0.91354
| 26>    C        2.59631         3.65618        -0.76703
| 27>    C        2.87883         2.66575         0.30323
| 28>    C        2.16261         2.56436         1.48693
| 29>    C        2.43296         1.59246         2.50003
| 30>    N        2.63097         0.80440         3.33228
| 31>    C        1.09377         3.45048         1.82647
| 32>    N        0.22942         4.16636         2.12883
| 33>    C        4.04196         1.88729        -0.12167
| 34>    C        4.57903         0.80135         0.54656
| 35>    C        5.69760        -0.03754         0.35492
| 36>    S        6.94032         0.09107        -0.91969
| 37>    C        7.82171        -1.22511        -0.21469
| 38>    C        7.17917        -1.73704         0.93641
| 39>    C        5.98221        -1.09288         1.26512
| 40>    C        5.10078        -1.55135         2.39457
| 41>    C        4.02468        -2.53457         1.90630
| 42>    S        8.08038        -3.02595         1.74264
| 43>    C        9.32846        -2.84874         0.54595
| 44>    C        9.04404        -1.89647        -0.44458
| 45>    N       10.10857        -1.81485        -1.33370
| 46>    C       10.29065        -0.59562        -2.12213
| 47>    C       10.70090         0.60330        -1.27125
| 48>    C       11.09395        -2.70326        -0.88915
| 49>    C       10.62887        -3.33810         0.30570
| 50>    C       11.43221        -4.21213         1.10380
| 51>    N       10.93077        -4.77006         2.22233
| 52>    C       11.75736        -5.52816         2.92672
| 53>    C       13.09879        -5.74382         2.53417
| 54>    N       13.60873        -5.20541         1.43674
| 55>    C       12.78028        -4.43491         0.70481
| 56>    C       13.21561        -3.87712        -0.53857
| 57>    C       12.37935        -3.08505        -1.38790
| 58>    N       13.03813        -2.90149        -2.60630
| 59>    C       12.48871        -2.46686        -3.88845
| 60>    C       13.05154        -1.12932        -4.36734
| 61>    C       14.26862        -3.53774        -2.52214
| 62>    C       14.40772        -4.11611        -1.25096
| 63>    S       15.85786        -5.05100        -1.04801
| 64>    C       16.27286        -4.71496        -2.72997
| 65>    C       15.32184        -3.90912        -3.39199
| 66>    S       15.71113        -3.75687        -5.07074
| 67>    C       17.15364        -4.78530        -4.87532
| 68>    C       17.31359        -5.21215        -3.54164
| 69>    C       18.29479        -6.21906        -3.00385
| 70>    C       19.20714        -5.66924        -1.89651
| 71>    C       17.78042        -5.20739        -6.08249
| 72>    C       19.00250        -5.77230        -6.36823
| 73>    C       20.28503        -5.84043        -5.68953
| 74>    C       20.78929        -4.90650        -4.80410
| 75>    C       22.07061        -5.03876        -4.18800
| 76>    N       23.09975        -5.15001        -3.65938
| 77>    C       20.07351        -3.71180        -4.49205
| 78>    N       19.49639        -2.73468        -4.24163
| 79>    C       21.03725        -6.97391        -6.28355
| 80>    C       22.23769        -7.59097        -5.90944
| 81>    C       22.67733        -8.66951        -6.67485
| 82>    F       23.80144        -9.30350        -6.35358
| 83>    C       21.96202        -9.12892        -7.79568
| 84>    F       22.43371       -10.18068        -8.45918
| 85>    C       20.78580        -8.50158        -8.19163
| 86>    C       20.34024        -7.43235        -7.42137
| 87>    C       19.09656        -6.63228        -7.59676
| 88>    O       18.30078        -6.70026        -8.50946
| 89>    H        4.31144         4.15759        -3.71540
| 90>    H        0.79825         4.78211        -0.17470
| 91>    H        4.03575         0.50485         1.44044
| 92>    H        4.62063        -0.70381         2.90490
| 93>    H        5.73611        -2.04629         3.14744
| 94>    H        3.33149        -2.04050         1.20897
| 95>    H        3.43904        -2.91973         2.75409
| 96>    H        4.48184        -3.38837         1.38239
| 97>    H        9.34084        -0.39595        -2.64326
| 98>    H       11.03283        -0.78392        -2.89749
| 99>    H        9.92904         0.84405        -0.52613
|100>    H       10.83976         1.48711        -1.91247
|101>    H       11.64536         0.40408        -0.74069
|102>    H       11.36788        -5.99217         3.83925
|103>    H       13.75678        -6.37231         3.14405
|104>    H       11.39554        -2.44464        -3.79408
|105>    H       12.71113        -3.25359        -4.62815
|106>    H       12.51707        -0.79290        -5.26910
|107>    H       14.11930        -1.21445        -4.61945
|108>    H       12.95280        -0.35364        -3.59351
|109>    H       18.88818        -6.65194        -3.81594
|110>    H       17.69894        -7.04891        -2.58237
|111>    H       19.83532        -4.84272        -2.24970
|112>    H       19.86606        -6.46308        -1.51505
|113>    H       18.61792        -5.28294        -1.05125
|114>    H       17.12641        -5.19156        -6.96597
|115>    H       22.83326        -7.28257        -5.05121
|116>    H       20.23192        -8.85027        -9.06458
|117> *
|118> 
|119>                          ****END OF INPUT****
================================================================================

                       ****************************
                       * Single Point Calculation *
                       ****************************

---------------------------------
CARTESIAN COORDINATES (ANGSTROEM)
---------------------------------
  C      4.530800    2.453020   -1.400380
  O      5.519540    2.125650   -2.035120
  C      3.567650    3.520640   -1.778480
  C      3.554200    4.285540   -2.939600
  C      2.526820    5.212300   -3.085990
  F      2.432280    5.958540   -4.183260
  C      1.560840    5.373940   -2.076300
  F      0.609500    6.287750   -2.252750
  C      1.578280    4.607920   -0.913540
  C      2.596310    3.656180   -0.767030
  C      2.878830    2.665750    0.303230
  C      2.162610    2.564360    1.486930
  C      2.432960    1.592460    2.500030
  N      2.630970    0.804400    3.332280
  C      1.093770    3.450480    1.826470
  N      0.229420    4.166360    2.128830
  C      4.041960    1.887290   -0.121670
  C      4.579030    0.801350    0.546560
  C      5.697600   -0.037540    0.354920
  S      6.940320    0.091070   -0.919690
  C      7.821710   -1.225110   -0.214690
  C      7.179170   -1.737040    0.936410
  C      5.982210   -1.092880    1.265120
  C      5.100780   -1.551350    2.394570
  C      4.024680   -2.534570    1.906300
  S      8.080380   -3.025950    1.742640
  C      9.328460   -2.848740    0.545950
  C      9.044040   -1.896470   -0.444580
  N     10.108570   -1.814850   -1.333700
  C     10.290650   -0.595620   -2.122130
  C     10.700900    0.603300   -1.271250
  C     11.093950   -2.703260   -0.889150
  C     10.628870   -3.338100    0.305700
  C     11.432210   -4.212130    1.103800
  N     10.930770   -4.770060    2.222330
  C     11.757360   -5.528160    2.926720
  C     13.098790   -5.743820    2.534170
  N     13.608730   -5.205410    1.436740
  C     12.780280   -4.434910    0.704810
  C     13.215610   -3.877120   -0.538570
  C     12.379350   -3.085050   -1.387900
  N     13.038130   -2.901490   -2.606300
  C     12.488710   -2.466860   -3.888450
  C     13.051540   -1.129320   -4.367340
  C     14.268620   -3.537740   -2.522140
  C     14.407720   -4.116110   -1.250960
  S     15.857860   -5.051000   -1.048010
  C     16.272860   -4.714960   -2.729970
  C     15.321840   -3.909120   -3.391990
  S     15.711130   -3.756870   -5.070740
  C     17.153640   -4.785300   -4.875320
  C     17.313590   -5.212150   -3.541640
  C     18.294790   -6.219060   -3.003850
  C     19.207140   -5.669240   -1.896510
  C     17.780420   -5.207390   -6.082490
  C     19.002500   -5.772300   -6.368230
  C     20.285030   -5.840430   -5.689530
  C     20.789290   -4.906500   -4.804100
  C     22.070610   -5.038760   -4.188000
  N     23.099750   -5.150010   -3.659380
  C     20.073510   -3.711800   -4.492050
  N     19.496390   -2.734680   -4.241630
  C     21.037250   -6.973910   -6.283550
  C     22.237690   -7.590970   -5.909440
  C     22.677330   -8.669510   -6.674850
  F     23.801440   -9.303500   -6.353580
  C     21.962020   -9.128920   -7.795680
  F     22.433710  -10.180680   -8.459180
  C     20.785800   -8.501580   -8.191630
  C     20.340240   -7.432350   -7.421370
  C     19.096560   -6.632280   -7.596760
  O     18.300780   -6.700260   -8.509460
  H      4.311440    4.157590   -3.715400
  H      0.798250    4.782110   -0.174700
  H      4.035750    0.504850    1.440440
  H      4.620630   -0.703810    2.904900
  H      5.736110   -2.046290    3.147440
  H      3.331490   -2.040500    1.208970
  H      3.439040   -2.919730    2.754090
  H      4.481840   -3.388370    1.382390
  H      9.340840   -0.395950   -2.643260
  H     11.032830   -0.783920   -2.897490
  H      9.929040    0.844050   -0.526130
  H     10.839760    1.487110   -1.912470
  H     11.645360    0.404080   -0.740690
  H     11.367880   -5.992170    3.839250
  H     13.756780   -6.372310    3.144050
  H     11.395540   -2.444640   -3.794080
  H     12.711130   -3.253590   -4.628150
  H     12.517070   -0.792900   -5.269100
  H     14.119300   -1.214450   -4.619450
  H     12.952800   -0.353640   -3.593510
  H     18.888180   -6.651940   -3.815940
  H     17.698940   -7.048910   -2.582370
  H     19.835320   -4.842720   -2.249700
  H     19.866060   -6.463080   -1.515050
  H     18.617920   -5.282940   -1.051250
  H     17.126410   -5.191560   -6.965970
  H     22.833260   -7.282570   -5.051210
  H     20.231920   -8.850270   -9.064580

----------------------------
CARTESIAN COORDINATES (A.U.)
----------------------------
  NO LB      ZA    FRAG     MASS         X           Y           Z
   0 C     6.0000    0    12.011    8.561971    4.635536   -2.646335
   1 O     8.0000    0    15.999   10.430419    4.016896   -3.845819
   2 C     6.0000    0    12.011    6.741881    6.653045   -3.360840
   3 C     6.0000    0    12.011    6.716465    8.098497   -5.555039
   4 C     6.0000    0    12.011    4.774998    9.849820   -5.831676
   5 F     9.0000    0    18.998    4.596343   11.260009   -7.905216
   6 C     6.0000    0    12.011    2.949560   10.155275   -3.923638
   7 F     9.0000    0    18.998    1.151788   11.882125   -4.257081
   8 C     6.0000    0    12.011    2.982517    8.707707   -1.726340
   9 C     6.0000    0    12.011    4.906315    6.909179   -1.449477
  10 C     6.0000    0    12.011    5.440200    5.037537    0.573022
  11 C     6.0000    0    12.011    4.086741    4.845938    2.809890
  12 C     6.0000    0    12.011    4.597628    3.009313    4.724372
  13 N     7.0000    0    14.007    4.971813    1.520096    6.297097
  14 C     6.0000    0    12.011    2.066926    6.520462    3.451528
  15 N     7.0000    0    14.007    0.433541    7.873279    4.022906
  16 C     6.0000    0    12.011    7.638197    3.566461   -0.229923
  17 C     6.0000    0    12.011    8.653113    1.514332    1.032849
  18 C     6.0000    0    12.011   10.766904   -0.070940    0.670702
  19 S    16.0000    0    32.060   13.115304    0.172097   -1.737962
  20 C     6.0000    0    12.011   14.780890   -2.315122   -0.405705
  21 C     6.0000    0    12.011   13.566665   -3.282530    1.769558
  22 C     6.0000    0    12.011   11.304739   -2.065244    2.390730
  23 C     6.0000    0    12.011    9.639077   -2.931627    4.525082
  24 C     6.0000    0    12.011    7.605543   -4.789643    3.602385
  25 S    16.0000    0    32.060   15.269705   -5.718217    3.293112
  26 C     6.0000    0    12.011   17.628235   -5.383338    1.031696
  27 C     6.0000    0    12.011   17.090759   -3.583809   -0.840134
  28 N     7.0000    0    14.007   19.102429   -3.429569   -2.520328
  29 C     6.0000    0    12.011   19.446510   -1.125559   -4.010245
  30 C     6.0000    0    12.011   20.221770    1.140072   -2.402314
  31 C     6.0000    0    12.011   20.964527   -5.108421   -1.680250
  32 C     6.0000    0    12.011   20.085653   -6.308095    0.577689
  33 C     6.0000    0    12.011   21.603746   -7.959772    2.085880
  34 N     7.0000    0    14.007   20.656162   -9.014107    4.199595
  35 C     6.0000    0    12.011   22.218190  -10.446708    5.530699
  36 C     6.0000    0    12.011   24.753126  -10.854247    4.788887
  37 N     7.0000    0    14.007   25.716773   -9.836799    2.715045
  38 C     6.0000    0    12.011   24.151229   -8.380765    1.331898
  39 C     6.0000    0    12.011   24.973884   -7.326695   -1.017750
  40 C     6.0000    0    12.011   23.393581   -5.829900   -2.622751
  41 N     7.0000    0    14.007   24.638495   -5.483021   -4.925193
  42 C     6.0000    0    12.011   23.600242   -4.661690   -7.348106
  43 C     6.0000    0    12.011   24.663836   -2.134106   -8.253077
  44 C     6.0000    0    12.011   26.963784   -6.685360   -4.766154
  45 C     6.0000    0    12.011   27.226645   -7.778321   -2.363972
  46 S    16.0000    0    32.060   29.967012   -9.545007   -1.980452
  47 C     6.0000    0    12.011   30.751249   -8.909983   -5.158896
  48 C     6.0000    0    12.011   28.954081   -7.387166   -6.409932
  49 S    16.0000    0    32.060   29.689733   -7.099455   -9.582310
  50 C     6.0000    0    12.011   32.415682   -9.042906   -9.213020
  51 C     6.0000    0    12.011   32.717943   -9.849536   -6.692730
  52 C     6.0000    0    12.011   34.572143  -11.752320   -5.676454
  53 C     6.0000    0    12.011   36.296234  -10.713311   -3.583885
  54 C     6.0000    0    12.011   33.600124   -9.840541  -11.494240
  55 C     6.0000    0    12.011   35.909521  -10.908066  -12.034211
  56 C     6.0000    0    12.011   38.333151  -11.036813  -10.751654
  57 C     6.0000    0    12.011   39.286065   -9.271941   -9.078433
  58 C     6.0000    0    12.011   41.707409   -9.521876   -7.914173
  59 N     7.0000    0    14.007   43.652201   -9.732108   -6.915226
  60 C     6.0000    0    12.011   37.933436   -7.014285   -8.488744
  61 N     7.0000    0    14.007   36.842838   -5.167796   -8.015519
  62 C     6.0000    0    12.011   39.754641  -13.178780  -11.874189
  63 C     6.0000    0    12.011   42.023144  -14.344854  -11.167223
  64 C     6.0000    0    12.011   42.853943  -16.383000  -12.613638
  65 F     9.0000    0    18.998   44.978203  -17.581067  -12.006526
  66 C     6.0000    0    12.011   41.502203  -17.251159  -14.731700
  67 F     9.0000    0    18.998   42.393568  -19.238697  -15.985534
  68 C     6.0000    0    12.011   39.279469  -16.065658  -15.479937
  69 C     6.0000    0    12.011   38.437483  -14.045106  -14.024357
  70 C     6.0000    0    12.011   36.087268  -12.533193  -14.355796
  71 O     8.0000    0    15.999   34.583462  -12.661656  -16.080549
  72 H     1.0000    0     1.008    8.147441    7.856706   -7.021088
  73 H     1.0000    0     1.008    1.508474    9.036878   -0.330135
  74 H     1.0000    0     1.008    7.626462    0.954028    2.722037
  75 H     1.0000    0     1.008    8.731725   -1.330008    5.489465
  76 H     1.0000    0     1.008   10.839677   -3.866928    5.947800
  77 H     1.0000    0     1.008    6.295604   -3.855986    2.284622
  78 H     1.0000    0     1.008    6.498844   -5.517490    5.204476
  79 H     1.0000    0     1.008    8.469450   -6.403091    2.612339
  80 H     1.0000    0     1.008   17.651629   -0.748237   -4.995038
  81 H     1.0000    0     1.008   20.849027   -1.481394   -5.475463
  82 H     1.0000    0     1.008   18.763166    1.595023   -0.994242
  83 H     1.0000    0     1.008   20.484178    2.810231   -3.614045
  84 H     1.0000    0     1.008   22.006541    0.763601   -1.399701
  85 H     1.0000    0     1.008   21.482180  -11.323560    7.255131
  86 H     1.0000    0     1.008   25.996547  -12.041921    5.941393
  87 H     1.0000    0     1.008   21.534450   -4.619700   -7.169772
  88 H     1.0000    0     1.008   24.020555   -6.148394   -8.745936
  89 H     1.0000    0     1.008   23.653834   -1.498364   -9.957156
  90 H     1.0000    0     1.008   26.681610   -2.294978   -8.729495
  91 H     1.0000    0     1.008   24.477245   -0.668283   -6.790750
  92 H     1.0000    0     1.008   35.693487  -12.570345   -7.211082
  93 H     1.0000    0     1.008   33.446149  -13.320509   -4.879972
  94 H     1.0000    0     1.008   37.483323   -9.151415   -4.251317
  95 H     1.0000    0     1.008   37.541413  -12.213451   -2.863030
  96 H     1.0000    0     1.008   35.182770   -9.983310   -1.986575
  97 H     1.0000    0     1.008   32.364225   -9.810627  -13.163776
  98 H     1.0000    0     1.008   43.148608  -13.762063   -9.545404
  99 H     1.0000    0     1.008   38.232788  -16.724587  -17.129574

--------------------------------
INTERNAL COORDINATES (ANGSTROEM)
--------------------------------
 C      0   0   0     0.000000000000     0.00000000     0.00000000
 O      1   0   0     1.219701919364     0.00000000     0.00000000
 C      1   2   0     1.486751491306   125.84122487     0.00000000
 C      3   1   2     1.390486449736   127.85364459     4.14918253
 C      4   3   1     1.391338849490   117.47853385   178.56434526
 F      5   4   3     1.330343339931   120.85671128   181.49154733
 C      5   4   3     1.406669380523   120.53707143     1.15919061
 F      7   5   4     1.330876070188   118.33414233   178.96208131
 C      7   5   4     1.392516287732   121.83974876   358.89761851
 C      9   7   5     1.401306279369   118.03534876     0.02692862
 C     10   9   7     1.485336865125   131.78969397   182.16520890
 C     11  10   9     1.387226265070   124.42785571   355.37004136
 C     12  11  10     1.429702886092   123.82796702   179.01412063
 N     13  12  11     1.163136529475   178.84194451   201.84574442
 C     12  11  10     1.429305779601   122.92079315   357.49643282
 N     15  12  11     1.162328123423   178.66410067   206.20789069
 C     11  10   9     1.462672683310   107.26682619   176.98182765
 C     17  11  10     1.383561058067   125.88155442   184.58418070
 C     18  17  11     1.411262260035   135.12468395   183.25158873
 S     19  18  17     1.784803681809   127.30190285     2.65556923
 C     20  19  18     1.733840570670    90.50818744   176.08023730
 C     21  20  19     1.414199839662   112.01146571     0.42411130
 C     22  21  20     1.398465448733   114.42250362     0.19427747
 C     23  22  21     1.504250939272   122.52207195   175.55046287
 C     24  23  22     1.537244408446   111.50823483   267.60578676
 S     22  21  20     1.767335640194   113.80531854   183.02815970
 C     26  22  21     1.738152475072    88.72351161     0.99598836
 C     27  26  22     1.403161633669   114.18365325   357.60207276
 N     28  27  26     1.389395667080   109.65217562   178.94909083
 C     29  28  27     1.463317048421   119.27982729   203.00518778
 C     30  29  28     1.526339085295   112.80209243    68.53766410
 C     29  28  27     1.399239355864   107.39480877   358.73406856
 C     27  26  22     1.410056537944   138.08504965   172.55243870
 C     33  27  26     1.430470973666   129.41335219   357.53131705
 N     34  33  27     1.346787778160   120.49054870     4.95701050
 C     35  34  33     1.324436450042   116.51666286   182.32662128
 C     36  35  34     1.414227415588   122.11653119     0.13389767
 N     37  36  35     1.324491123640   122.22111425   359.75087625
 C     38  37  36     1.347486985985   116.47426092     0.00000000
 C     39  38  37     1.430606765467   120.52764476   183.82347516
 C     32  29  28     1.430653111904   133.74149301   178.25862367
 N     41  32  29     1.397205755070   133.83395841   346.74648607
 C     42  41  32     1.461052427465   128.83105229   346.14501384
 C     43  42  41     1.528112068076   113.38380497   115.96725332
 C     42  41  32     1.387804960432   107.75449160   181.84423468
 C     45  42  41     1.403481121818   109.37386920   359.38040254
 S     46  45  42     1.737272009272   114.22387868   175.61369573
 C     47  46  45     1.764691849361    88.99623533   357.99127294
 C     48  47  46     1.411413343567   113.41083516     0.33699589
 S     49  48  47     1.730008187582   110.71839024   185.76497248
 C     50  49  48     1.782327787305    91.42936310     0.15938696
 C     51  50  49     1.409427992982   111.73720807   359.54415291
 C     52  51  50     1.505270498017   127.92508965   171.71947554
 C     53  52  51     1.536517631041   113.90144240   122.92043348
 C     51  50  49     1.424174338134   115.73870099   169.22639542
 C     55  51  50     1.376317616722   133.50402762   165.93042841
 C     56  55  51     1.452638491780   134.92697144   339.09111162
 C     57  56  55     1.382204643821   126.13628244   331.57098372
 C     58  57  56     1.427884049914   122.76477200   180.74791744
 N     59  58  57     1.162301512732   178.48856302   246.92077836
 C     58  57  56     1.427243602508   121.51260876   358.07027008
 N     61  58  57     1.162127860952   179.60319755   247.01967312
 C     57  56  55     1.484409511961   107.23251857   160.45008118
 C     63  57  56     1.400634688025   131.59307497   189.00693321
 C     64  63  57     1.393694489226   117.68474180   178.84048582
 F     65  64  63     1.329955271842   120.18965467   180.89708905
 C     65  64  63     1.406764313274   121.99821252     0.63775943
 F     67  65  64     1.330008572792   118.38462117   181.29216314
 C     67  65  64     1.390620496937   120.63822478     0.85718220
 C     69  67  65     1.391070441818   117.38762096   358.63745334
 C     70  69  67     1.489165403641   127.96958721   182.55612584
 O     71  70  69     1.212810116548   127.33689639   353.50043728
 H      4   3   1     1.091626886853   121.48435011   359.36432032
 H      9   7   5     1.088427077300   118.02145784   180.23531890
 H     18  17  11     1.087238181265   114.65549883     2.69110453
 H     24  23  22     1.099683946868   111.67777851   144.66459403
 H     24  23  22     1.102462266656   108.17364525    28.02200236
 H     25  24  23     1.100402957966   110.79828955   295.44789703
 H     25  24  23     1.100031962854   110.59939338   175.62735654
 H     25  24  23     1.101113706072   110.88149698    55.29751216
 H     30  29  28     1.101627714748   107.37444521   306.33839453
 H     30  29  28     1.089711508611   108.91350674   191.53565960
 H     31  30  29     1.099514545834   111.16712716   298.48437818
 H     31  30  29     1.100711271906   109.86830118   179.10561303
 H     31  30  29     1.101447780696   110.91156408    59.12774669
 H     36  35  34     1.095313175033   117.62281243   180.08753590
 H     37  36  35     1.095401357768   120.17978766   179.63866360
 H     43  42  41     1.097460739252   107.76637747   351.29869224
 H     43  42  41     1.102529291810   107.49533934   237.61610323
 H     44  43  42     1.100912210351   110.20370856   186.87248803
 H     44  43  42     1.100417187525   111.19056562    67.29633506
 H     44  43  42     1.100109957641   111.32528938   307.29831082
 H     53  52  51     1.094982627533   110.65386941   357.39541874
 H     53  52  51     1.105139645203   106.68453644   242.35041844
 H     54  53  52     1.096580411507   112.19361591   298.11335901
 H     54  53  52     1.099940563667   110.32726157   177.37938384
 H     54  53  52     1.100396458555   111.17760238    57.67891599
 H     55  51  50     1.099325511120   114.52621651   337.69427972
 H     64  63  57     1.089207472339   123.66644877   359.66893926
 H     69  67  65     1.091058876963   120.86533713   179.55292077

---------------------------
INTERNAL COORDINATES (A.U.)
---------------------------
 C      0   0   0     0.000000000000     0.00000000     0.00000000
 O      1   0   0     2.304902592616     0.00000000     0.00000000
 C      1   2   0     2.809553147767   125.84122487     0.00000000
 C      3   1   2     2.627638582930   127.85364459     4.14918253
 C      4   3   1     2.629249385021   117.47853385   178.56434526
 F      5   4   3     2.513984576557   120.85671128   181.49154733
 C      5   4   3     2.658219890160   120.53707143     1.15919061
 F      7   5   4     2.514991290845   118.33414233   178.96208131
 C      7   5   4     2.631474420839   121.83974876   358.89761851
 C      9   7   5     2.648085097752   118.03534876     0.02692862
 C     10   9   7     2.806879891704   131.78969397   182.16520890
 C     11  10   9     2.621477726765   124.42785571   355.37004136
 C     12  11  10     2.701746907591   123.82796702   179.01412063
 N     13  12  11     2.198009497068   178.84194451   201.84574442
 C     12  11  10     2.700996485076   122.92079315   357.49643282
 N     15  12  11     2.196481831024   178.66410067   206.20789069
 C     11  10   9     2.764050795023   107.26682619   176.98182765
 C     17  11  10     2.614551489305   125.88155442   184.58418070
 C     18  17  11     2.666899174606   135.12468395   183.25158873
 S     19  18  17     3.372790161434   127.30190285     2.65556923
 C     20  19  18     3.276483838447    90.50818744   176.08023730
 C     21  20  19     2.672450395597   112.01146571     0.42411130
 C     22  21  20     2.642716705857   114.42250362     0.19427747
 C     23  22  21     2.842622311917   122.52207195   175.55046287
 C     24  23  22     2.904970932866   111.50823483   267.60578676
 S     22  21  20     3.339780346685   113.80531854   183.02815970
 C     26  22  21     3.284632156884    88.72351161     0.99598836
 C     27  26  22     2.651591209260   114.18365325   357.60207276
 N     28  27  26     2.625577302438   109.65217562   178.94909083
 C     29  28  27     2.765268468614   119.27982729   203.00518778
 C     30  29  28     2.884362858708   112.80209243    68.53766410
 C     29  28  27     2.644179178388   107.39480877   358.73406856
 C     27  26  22     2.664620690060   138.08504965   172.55243870
 C     33  27  26     2.703198382752   129.41335219   357.53131705
 N     34  33  27     2.545060061234   120.49054870     4.95701050
 C     35  34  33     2.502822172362   116.51666286   182.32662128
 C     36  35  34     2.672502506544   122.11653119     0.13389767
 N     37  36  35     2.502925490488   122.22111425   359.75087625
 C     38  37  36     2.546381372535   116.47426092     0.00000000
 C     39  38  37     2.703454992068   120.52764476   183.82347516
 C     32  29  28     2.703542574140   133.74149301   178.25862367
 N     41  32  29     2.640336229820   133.83395841   346.74648607
 C     42  41  32     2.760988955209   128.83105229   346.14501384
 C     43  42  41     2.887713310604   113.38380497   115.96725332
 C     42  41  32     2.622571302514   107.75449160   181.84423468
 C     45  42  41     2.652194954365   109.37386920   359.38040254
 S     46  45  42     3.282968317651   114.22387868   175.61369573
 C     47  46  45     3.334784306055    88.99623533   357.99127294
 C     48  47  46     2.667184681104   113.41083516     0.33699589
 S     49  48  47     3.269241683971   110.71839024   185.76497248
 C     50  49  48     3.368111398885    91.42936310     0.15938696
 C     51  50  49     2.663432912217   111.73720807   359.54415291
 C     52  51  50     2.844548998723   127.92508965   171.71947554
 C     53  52  51     2.903597522609   113.90144240   122.92043348
 C     51  50  49     2.691299466032   115.73870099   169.22639542
 C     55  51  50     2.600863368896   133.50402762   165.93042841
 C     56  55  51     2.745088921056   134.92697144   339.09111162
 C     57  56  55     2.611988237856   126.13628244   331.57098372
 C     58  57  56     2.698309805333   122.76477200   180.74791744
 N     59  58  57     2.196431544107   178.48856302   246.92077836
 C     58  57  56     2.697099535131   121.51260876   358.07027008
 N     61  58  57     2.196103389798   179.60319755   247.01967312
 C     57  56  55     2.805127448194   107.23251857   160.45008118
 C     63  57  56     2.646815974038   131.59307497   189.00693321
 C     64  63  57     2.633700898993   117.68474180   178.84048582
 F     65  64  63     2.513251234146   120.18965467   180.89708905
 C     65  64  63     2.658399287061   121.99821252     0.63775943
 F     67  65  64     2.513351958344   118.38462117   181.29216314
 C     67  65  64     2.627891895428   120.63822478     0.85718220
 C     69  67  65     2.628742168029   117.38762096   358.63745334
 C     70  69  67     2.814114780991   127.96958721   182.55612584
 O     71  70  69     2.291878972724   127.33689639   353.50043728
 H      4   3   1     2.062875856577   121.48435011   359.36432032
 H      9   7   5     2.056829092841   118.02145784   180.23531890
 H     18  17  11     2.054582404933   114.65549883     2.69110453
 H     24  23  22     2.078101493451   111.67777851   144.66459403
 H     24  23  22     2.083351756962   108.17364525    28.02200236
 H     25  24  23     2.079460227512   110.79828955   295.44789703
 H     25  24  23     2.078759148354   110.59939338   175.62735654
 H     25  24  23     2.080803346783   110.88149698    55.29751216
 H     30  29  28     2.081774682410   107.37444521   306.33839453
 H     30  29  28     2.059256316258   108.91350674   191.53565960
 H     31  30  29     2.077781371889   111.16712716   298.48437818
 H     31  30  29     2.080042856422   109.86830118   179.10561303
 H     31  30  29     2.081434656331   110.91156408    59.12774669
 H     36  35  34     2.069841931687   117.62281243   180.08753590
 H     37  36  35     2.070008572907   120.17978766   179.63866360
 H     43  42  41     2.073900239917   107.76637747   351.29869224
 H     43  42  41     2.083478416148   107.49533934   237.61610323
 H     44  43  42     2.080422575053   110.20370856   186.87248803
 H     44  43  42     2.079487117482   111.19056562    67.29633506
 H     44  43  42     2.078906537140   111.32528938   307.29831082
 H     53  52  51     2.069217287440   110.65386941   357.39541874
 H     53  52  51     2.088411269173   106.68453644   242.35041844
 H     54  53  52     2.072236661570   112.19361591   298.11335901
 H     54  53  52     2.078586428922   110.32726157   177.37938384
 H     54  53  52     2.079447945405   111.17760238    57.67891599
 H     55  51  50     2.077424148050   114.52621651   337.69427972
 H     64  63  57     2.058303825742   123.66644877   359.66893926
 H     69  67  65     2.061802473444   120.86533713   179.55292077

---------------------
BASIS SET INFORMATION
---------------------
There are 6 groups of distinct atoms

 Group   1 Type C   : 11s6p2d1f contracted to 5s3p2d1f pattern {62111/411/11/1}
 Group   2 Type O   : 11s6p2d1f contracted to 5s3p2d1f pattern {62111/411/11/1}
 Group   3 Type F   : 11s6p2d1f contracted to 5s3p2d1f pattern {62111/411/11/1}
 Group   4 Type N   : 11s6p2d1f contracted to 5s3p2d1f pattern {62111/411/11/1}
 Group   5 Type S   : 14s9p3d1f contracted to 5s5p2d1f pattern {73211/51111/21/1}
 Group   6 Type H   : 5s1p contracted to 3s1p pattern {311/1}

Atom   0C    basis set group =>   1
Atom   1O    basis set group =>   2
Atom   2C    basis set group =>   1
Atom   3C    basis set group =>   1
Atom   4C    basis set group =>   1
Atom   5F    basis set group =>   3
Atom   6C    basis set group =>   1
Atom   7F    basis set group =>   3
Atom   8C    basis set group =>   1
Atom   9C    basis set group =>   1
Atom  10C    basis set group =>   1
Atom  11C    basis set group =>   1
Atom  12C    basis set group =>   1
Atom  13N    basis set group =>   4
Atom  14C    basis set group =>   1
Atom  15N    basis set group =>   4
Atom  16C    basis set group =>   1
Atom  17C    basis set group =>   1
Atom  18C    basis set group =>   1
Atom  19S    basis set group =>   5
Atom  20C    basis set group =>   1
Atom  21C    basis set group =>   1
Atom  22C    basis set group =>   1
Atom  23C    basis set group =>   1
Atom  24C    basis set group =>   1
Atom  25S    basis set group =>   5
Atom  26C    basis set group =>   1
Atom  27C    basis set group =>   1
Atom  28N    basis set group =>   4
Atom  29C    basis set group =>   1
Atom  30C    basis set group =>   1
Atom  31C    basis set group =>   1
Atom  32C    basis set group =>   1
Atom  33C    basis set group =>   1
Atom  34N    basis set group =>   4
Atom  35C    basis set group =>   1
Atom  36C    basis set group =>   1
Atom  37N    basis set group =>   4
Atom  38C    basis set group =>   1
Atom  39C    basis set group =>   1
Atom  40C    basis set group =>   1
Atom  41N    basis set group =>   4
Atom  42C    basis set group =>   1
Atom  43C    basis set group =>   1
Atom  44C    basis set group =>   1
Atom  45C    basis set group =>   1
Atom  46S    basis set group =>   5
Atom  47C    basis set group =>   1
Atom  48C    basis set group =>   1
Atom  49S    basis set group =>   5
Atom  50C    basis set group =>   1
Atom  51C    basis set group =>   1
Atom  52C    basis set group =>   1
Atom  53C    basis set group =>   1
Atom  54C    basis set group =>   1
Atom  55C    basis set group =>   1
Atom  56C    basis set group =>   1
Atom  57C    basis set group =>   1
Atom  58C    basis set group =>   1
Atom  59N    basis set group =>   4
Atom  60C    basis set group =>   1
Atom  61N    basis set group =>   4
Atom  62C    basis set group =>   1
Atom  63C    basis set group =>   1
Atom  64C    basis set group =>   1
Atom  65F    basis set group =>   3
Atom  66C    basis set group =>   1
Atom  67F    basis set group =>   3
Atom  68C    basis set group =>   1
Atom  69C    basis set group =>   1
Atom  70C    basis set group =>   1
Atom  71O    basis set group =>   2
Atom  72H    basis set group =>   6
Atom  73H    basis set group =>   6
Atom  74H    basis set group =>   6
Atom  75H    basis set group =>   6
Atom  76H    basis set group =>   6
Atom  77H    basis set group =>   6
Atom  78H    basis set group =>   6
Atom  79H    basis set group =>   6
Atom  80H    basis set group =>   6
Atom  81H    basis set group =>   6
Atom  82H    basis set group =>   6
Atom  83H    basis set group =>   6
Atom  84H    basis set group =>   6
Atom  85H    basis set group =>   6
Atom  86H    basis set group =>   6
Atom  87H    basis set group =>   6
Atom  88H    basis set group =>   6
Atom  89H    basis set group =>   6
Atom  90H    basis set group =>   6
Atom  91H    basis set group =>   6
Atom  92H    basis set group =>   6
Atom  93H    basis set group =>   6
Atom  94H    basis set group =>   6
Atom  95H    basis set group =>   6
Atom  96H    basis set group =>   6
Atom  97H    basis set group =>   6
Atom  98H    basis set group =>   6
Atom  99H    basis set group =>   6
---------------------------------
AUXILIARY/J BASIS SET INFORMATION
---------------------------------
There are 6 groups of distinct atoms

 Group   1 Type C   : 12s5p4d2f1g contracted to 6s4p3d1f1g pattern {711111/2111/211/2/1}
 Group   2 Type O   : 12s5p4d2f1g contracted to 6s4p3d1f1g pattern {711111/2111/211/2/1}
 Group   3 Type F   : 12s5p4d2f1g contracted to 6s4p3d1f1g pattern {711111/2111/211/2/1}
 Group   4 Type N   : 12s5p4d2f1g contracted to 6s4p3d1f1g pattern {711111/2111/211/2/1}
 Group   5 Type S   : 14s5p5d2f1g contracted to 8s4p3d1f1g pattern {71111111/2111/311/2/1}
 Group   6 Type H   : 5s2p1d contracted to 3s1p1d pattern {311/2/1}

Atom   0C    basis set group =>   1
Atom   1O    basis set group =>   2
Atom   2C    basis set group =>   1
Atom   3C    basis set group =>   1
Atom   4C    basis set group =>   1
Atom   5F    basis set group =>   3
Atom   6C    basis set group =>   1
Atom   7F    basis set group =>   3
Atom   8C    basis set group =>   1
Atom   9C    basis set group =>   1
Atom  10C    basis set group =>   1
Atom  11C    basis set group =>   1
Atom  12C    basis set group =>   1
Atom  13N    basis set group =>   4
Atom  14C    basis set group =>   1
Atom  15N    basis set group =>   4
Atom  16C    basis set group =>   1
Atom  17C    basis set group =>   1
Atom  18C    basis set group =>   1
Atom  19S    basis set group =>   5
Atom  20C    basis set group =>   1
Atom  21C    basis set group =>   1
Atom  22C    basis set group =>   1
Atom  23C    basis set group =>   1
Atom  24C    basis set group =>   1
Atom  25S    basis set group =>   5
Atom  26C    basis set group =>   1
Atom  27C    basis set group =>   1
Atom  28N    basis set group =>   4
Atom  29C    basis set group =>   1
Atom  30C    basis set group =>   1
Atom  31C    basis set group =>   1
Atom  32C    basis set group =>   1
Atom  33C    basis set group =>   1
Atom  34N    basis set group =>   4
Atom  35C    basis set group =>   1
Atom  36C    basis set group =>   1
Atom  37N    basis set group =>   4
Atom  38C    basis set group =>   1
Atom  39C    basis set group =>   1
Atom  40C    basis set group =>   1
Atom  41N    basis set group =>   4
Atom  42C    basis set group =>   1
Atom  43C    basis set group =>   1
Atom  44C    basis set group =>   1
Atom  45C    basis set group =>   1
Atom  46S    basis set group =>   5
Atom  47C    basis set group =>   1
Atom  48C    basis set group =>   1
Atom  49S    basis set group =>   5
Atom  50C    basis set group =>   1
Atom  51C    basis set group =>   1
Atom  52C    basis set group =>   1
Atom  53C    basis set group =>   1
Atom  54C    basis set group =>   1
Atom  55C    basis set group =>   1
Atom  56C    basis set group =>   1
Atom  57C    basis set group =>   1
Atom  58C    basis set group =>   1
Atom  59N    basis set group =>   4
Atom  60C    basis set group =>   1
Atom  61N    basis set group =>   4
Atom  62C    basis set group =>   1
Atom  63C    basis set group =>   1
Atom  64C    basis set group =>   1
Atom  65F    basis set group =>   3
Atom  66C    basis set group =>   1
Atom  67F    basis set group =>   3
Atom  68C    basis set group =>   1
Atom  69C    basis set group =>   1
Atom  70C    basis set group =>   1
Atom  71O    basis set group =>   2
Atom  72H    basis set group =>   6
Atom  73H    basis set group =>   6
Atom  74H    basis set group =>   6
Atom  75H    basis set group =>   6
Atom  76H    basis set group =>   6
Atom  77H    basis set group =>   6
Atom  78H    basis set group =>   6
Atom  79H    basis set group =>   6
Atom  80H    basis set group =>   6
Atom  81H    basis set group =>   6
Atom  82H    basis set group =>   6
Atom  83H    basis set group =>   6
Atom  84H    basis set group =>   6
Atom  85H    basis set group =>   6
Atom  86H    basis set group =>   6
Atom  87H    basis set group =>   6
Atom  88H    basis set group =>   6
Atom  89H    basis set group =>   6
Atom  90H    basis set group =>   6
Atom  91H    basis set group =>   6
Atom  92H    basis set group =>   6
Atom  93H    basis set group =>   6
Atom  94H    basis set group =>   6
Atom  95H    basis set group =>   6
Atom  96H    basis set group =>   6
Atom  97H    basis set group =>   6
Atom  98H    basis set group =>   6
Atom  99H    basis set group =>   6


           ************************************************************
           *        Program running with 6 parallel MPI-processes     *
           *              working on a common directory               *
           ************************************************************
------------------------------------------------------------------------------
                           ORCA GTO INTEGRAL CALCULATION
                           -- RI-GTO INTEGRALS CHOSEN --
------------------------------------------------------------------------------

                         BASIS SET STATISTICS AND STARTUP INFO

Gaussian basis set:
 # of primitive gaussian shells          ... 1636
 # of primitive gaussian functions       ... 3604
 # of contracted shells                  ...  912
 # of contracted basis functions         ... 2424
 Highest angular momentum                ...    3
 Maximum contraction depth               ...    7
Auxiliary gaussian basis set:
 # of primitive gaussian shells          ... 1964
 # of primitive gaussian functions       ... 5516
 # of contracted shells                  ... 1228
 # of contracted aux-basis functions     ... 3844
 Highest angular momentum                ...    4
 Maximum contraction depth               ...    7
Ratio of auxiliary to basis functions    ...  1.59
Integral package used                  ... LIBINT
 One Electron integrals                  ... done
 Ordering auxiliary basis shells         ... done
 Integral threshhold             Thresh  ...  2.500e-11
 Primitive cut-off               TCut    ...  2.500e-12
 Pre-screening matrix                    ... done
 Shell pair data                         ... 
 Ordering of the shell pairs             ... done (   0.029 sec) 137163 of 416328 pairs
 Determination of significant pairs      ... done (   0.001 sec)
 Creation of shell pair data             ... done (   0.014 sec)
 Storage of shell pair data              ... done (   1.777 sec)
 Shell pair data done in (   1.820 sec)
 Computing two index integrals           ... done
 Cholesky decomposition of the V-matrix  ... done


Timings:
 Total evaluation time                   ...   9.723 sec (  0.162 min)
 One electron matrix time                ...   2.759 sec (  0.046 min) = 28.4%
 Schwartz matrix evaluation time         ...   3.208 sec (  0.053 min) = 33.0%
 Two index repulsion integral time       ...   0.509 sec (  0.008 min) =  5.2%
 Cholesky decomposition of V             ...   1.409 sec (  0.023 min) = 14.5%
 Three index repulsion integral time     ...   0.000 sec (  0.000 min) =  0.0%



           ************************************************************
           *        Program running with 6 parallel MPI-processes     *
           *              working on a common directory               *
           ************************************************************
-------------------------------------------------------------------------------
                                 ORCA SCF
-------------------------------------------------------------------------------

------------
SCF SETTINGS
------------
Hamiltonian:
 Density Functional     Method          .... DFT(GTOs)
 Exchange Functional    Exchange        .... B88
   X-Alpha parameter    XAlpha          ....  0.666667
   Becke's b parameter  XBeta           ....  0.004200
 Correlation Functional Correlation     .... LYP
 LDA part of GGA corr.  LDAOpt          .... VWN-5
 Gradients option       PostSCFGGA      .... off
 Hybrid DFT is turned on
   Fraction HF Exchange ScalHFX         ....  0.200000
   Scaling of DF-GGA-X  ScalDFX         ....  0.720000
   Scaling of DF-GGA-C  ScalDFC         ....  0.810000
   Scaling of DF-LDA-C  ScalLDAC        ....  1.000000
   Perturbative correction              ....  0.000000
   Density functional embedding theory  .... OFF
   NL short-range parameter             ....  4.800000
 RI-approximation to the Coulomb term is turned on
   Number of auxiliary basis functions  .... 3844
   RIJ-COSX (HFX calculated with COS-X)).... on


General Settings:
 Integral files         IntName         .... AQx-2
 Hartree-Fock type      HFTyp           .... RHF
 Total Charge           Charge          ....    0
 Multiplicity           Mult            ....    1
 Number of Electrons    NEL             ....  524
 Basis Dimension        Dim             .... 2424
 Nuclear Repulsion      ENuc            ....  10780.1912763750 Eh

Convergence Acceleration:
 DIIS                   CNVDIIS         .... on
   Start iteration      DIISMaxIt       ....    12
   Startup error        DIISStart       ....  0.200000
   # of expansion vecs  DIISMaxEq       ....     5
   Bias factor          DIISBfac        ....   1.050
   Max. coefficient     DIISMaxC        ....  10.000
 Newton-Raphson         CNVNR           .... off
 SOSCF                  CNVSOSCF        .... on
   Start iteration      SOSCFMaxIt      ....   150
   Startup grad/error   SOSCFStart      ....  0.003300
 Level Shifting         CNVShift        .... on
   Level shift para.    LevelShift      ....    0.2500
   Turn off err/grad.   ShiftErr        ....    0.0010
 Zerner damping         CNVZerner       .... off
 Static damping         CNVDamp         .... on
   Fraction old density DampFac         ....    0.7000
   Max. Damping (<1)    DampMax         ....    0.9800
   Min. Damping (>=0)   DampMin         ....    0.0000
   Turn off err/grad.   DampErr         ....    0.1000
 Fernandez-Rico         CNVRico         .... off

SCF Procedure:
 Maximum # iterations   MaxIter         ....   125
 SCF integral mode      SCFMode         .... Direct
   Integral package                     .... LIBINT
 Reset frequency        DirectResetFreq ....    20
 Integral Threshold     Thresh          ....  2.500e-11 Eh
 Primitive CutOff       TCut            ....  2.500e-12 Eh

Convergence Tolerance:
 Convergence Check Mode ConvCheckMode   .... Total+1el-Energy
 Convergence forced     ConvForced      .... 1
 Energy Change          TolE            ....  1.000e-08 Eh
 1-El. energy change                    ....  1.000e-05 Eh
 Orbital Gradient       TolG            ....  1.000e-05
 Orbital Rotation angle TolX            ....  1.000e-05
 DIIS Error             TolErr          ....  5.000e-07


Diagonalization of the overlap matrix:
Smallest eigenvalue                        ... 2.466e-06
Time for diagonalization                   ...    1.823 sec
Threshold for overlap eigenvalues          ... 1.000e-08
Number of eigenvalues below threshold      ... 0
Time for construction of square roots      ...    1.845 sec
Total time needed                          ...    3.681 sec

-------------------
DFT GRID GENERATION
-------------------

General Integration Accuracy     IntAcc      ...  4.670
Radial Grid Type                 RadialGrid  ... Gauss-Chebyshev
Angular Grid (max. acc.)         AngularGrid ... Lebedev-302
Angular grid pruning method      GridPruning ... 3 (G Style)
Weight generation scheme         WeightScheme... Becke
Basis function cutoff            BFCut       ...    1.0000e-11
Integration weight cutoff        WCut        ...    1.0000e-14
Grids for H and He will be reduced by one unit

# of grid points (after initial pruning)     ... 545072 (   0.0 sec)
# of grid points (after weights+screening)   ... 465584 (   7.9 sec)
nearest neighbour list constructed           ...    0.0 sec
Grid point re-assignment to atoms done       ...    0.1 sec
Grid point division into batches done        ...    1.6 sec
Reduced shell lists constructed in    3.2 sec

Total number of grid points                  ...   465584
Total number of batches                      ...     7327
Average number of points per batch           ...       63
Average number of grid points per atom       ...     4656
Average number of shells per batch           ...   133.22 (14.61%)
Average number of basis functions per batch  ...   348.00 (14.36%)
Average number of large shells per batch     ...    85.21 (63.97%)
Average number of large basis fcns per batch ...   226.65 (65.13%)
Maximum spatial batch extension              ...  18.18, 17.49, 15.59 au
Average spatial batch extension              ...   0.38,  0.39,  0.38 au

Time for grid setup =   12.809 sec

------------------------------
INITIAL GUESS: MODEL POTENTIAL
------------------------------
Loading Hartree-Fock densities                     ... done
Calculating cut-offs                               ... done
Setting up the integral package                    ... done
Initializing the effective Hamiltonian             ... done
Starting the Coulomb interaction                   ... done (   4.2 sec)
Reading the grid                                   ... done
Mapping shells                                     ... done
Starting the XC term evaluation                    ... done (   6.8 sec)
  promolecular density results
     # of electrons  =    523.988267822
     EX              =   -495.302881451
     EC              =    -18.657538069
     EX+EC           =   -513.960419519
Transforming the Hamiltonian                       ... done (   1.1 sec)
Diagonalizing the Hamiltonian                      ... done (   1.5 sec)
Back transforming the eigenvectors                 ... done (   1.4 sec)
Now organizing SCF variables                       ... done
                      ------------------
                      INITIAL GUESS DONE (  28.3 sec)
                      ------------------
--------------------
COSX GRID GENERATION
--------------------

General Integration Accuracy     IntAcc      ...  3.340
Radial Grid Type                 RadialGrid  ... Gauss-Chebyshev
Angular Grid (max. acc.)         AngularGrid ... Lebedev-50
Angular grid pruning method      GridPruning ... 3 (G Style)
Weight generation scheme         WeightScheme... Becke
Basis function cutoff            BFCut       ...    1.0000e-11
Integration weight cutoff        WCut        ...    1.0000e-14
Grids for H and He will be reduced by one unit

# of grid points (after initial pruning)     ...  51112 (   0.0 sec)
# of grid points (after weights+screening)   ...  45620 (   1.0 sec)
nearest neighbour list constructed           ...    0.0 sec
Grid point re-assignment to atoms done       ...    0.0 sec
Grid point division into batches done        ...    0.0 sec
Reduced shell lists constructed in    0.2 sec

Total number of grid points                  ...    45620
Total number of batches                      ...      768
Average number of points per batch           ...       59
Average number of grid points per atom       ...      456
Average number of shells per batch           ...   162.11 (17.78%)
Average number of basis functions per batch  ...   428.99 (17.70%)
Average number of large shells per batch     ...   105.40 (65.02%)
Average number of large basis fcns per batch ...   284.67 (66.36%)
Maximum spatial batch extension              ...  16.69, 19.38, 18.46 au
Average spatial batch extension              ...   0.82,  0.86,  0.78 au

Overlap Fitting                  UseSFitting ... on
Constructing numerical overlap ... done (      0.5 sec)
Inverting numerical overlap    ... done (      0.3 sec)
Obtaining analytic overlap     ... done (      0.0 sec)
Final contraction and storage  ... done (      0.7 sec)


General Integration Accuracy     IntAcc      ...  3.670
Radial Grid Type                 RadialGrid  ... Gauss-Chebyshev
Angular Grid (max. acc.)         AngularGrid ... Lebedev-50
Angular grid pruning method      GridPruning ... 3 (G Style)
Weight generation scheme         WeightScheme... Becke
Basis function cutoff            BFCut       ...    1.0000e-11
Integration weight cutoff        WCut        ...    1.0000e-14
Grids for H and He will be reduced by one unit

# of grid points (after initial pruning)     ...  63744 (   0.0 sec)
# of grid points (after weights+screening)   ...  56642 (   1.0 sec)
nearest neighbour list constructed           ...    0.0 sec
Grid point re-assignment to atoms done       ...    0.0 sec
Grid point division into batches done        ...    0.0 sec
Reduced shell lists constructed in    0.3 sec

Total number of grid points                  ...    56642
Total number of batches                      ...      935
Average number of points per batch           ...       60
Average number of grid points per atom       ...      566
Average number of shells per batch           ...   158.58 (17.39%)
Average number of basis functions per batch  ...   418.82 (17.28%)
Average number of large shells per batch     ...   102.40 (64.57%)
Average number of large basis fcns per batch ...   275.79 (65.85%)
Maximum spatial batch extension              ...  18.42, 17.43, 18.69 au
Average spatial batch extension              ...   0.78,  0.80,  0.75 au

Overlap Fitting                  UseSFitting ... on
Constructing numerical overlap ... done (      0.4 sec)
Inverting numerical overlap    ... done (      0.2 sec)
Obtaining analytic overlap     ... done (      0.0 sec)
Final contraction and storage  ... done (      0.7 sec)


General Integration Accuracy     IntAcc      ...  4.010
Radial Grid Type                 RadialGrid  ... Gauss-Chebyshev
Angular Grid (max. acc.)         AngularGrid ... Lebedev-110
Angular grid pruning method      GridPruning ... 3 (G Style)
Weight generation scheme         WeightScheme... Becke
Basis function cutoff            BFCut       ...    1.0000e-11
Integration weight cutoff        WCut        ...    1.0000e-14
Grids for H and He will be reduced by one unit

# of grid points (after initial pruning)     ... 124876 (   0.0 sec)
# of grid points (after weights+screening)   ... 109943 (   2.3 sec)
nearest neighbour list constructed           ...    0.0 sec
Grid point re-assignment to atoms done       ...    0.0 sec
Grid point division into batches done        ...    0.1 sec
Reduced shell lists constructed in    0.5 sec

Total number of grid points                  ...   109943
Total number of batches                      ...     1770
Average number of points per batch           ...       62
Average number of grid points per atom       ...     1099
Average number of shells per batch           ...   151.00 (16.56%)
Average number of basis functions per batch  ...   398.12 (16.42%)
Average number of large shells per batch     ...    97.52 (64.59%)
Average number of large basis fcns per batch ...   261.66 (65.72%)
Maximum spatial batch extension              ...  26.17, 22.82, 19.54 au
Average spatial batch extension              ...   0.61,  0.62,  0.60 au

Overlap Fitting                  UseSFitting ... on
Constructing numerical overlap ... done (      1.1 sec)
Inverting numerical overlap    ... done (      1.0 sec)
Obtaining analytic overlap     ... done (      0.0 sec)
Final contraction and storage  ... done (      0.7 sec)

Time for X-Grid setup             =   12.071 sec
--------------
SCF ITERATIONS
--------------
ITER       Energy         Delta-E        Max-DP      RMS-DP      [F,P]     Damp
               ***  Starting incremental Fock matrix formation  ***
  0  -4652.7575502986   0.000000000000 0.19010629  0.00092809  0.2970686 0.7000
  1  -4653.5330942974  -0.775543998752 0.17832254  0.00078604  0.1020526 0.7000
                               ***Turning on DIIS***
  2  -4653.8058214290  -0.272727131667 0.29225174  0.00116122  0.0432927 0.0000
  3  -4654.2784598514  -0.472638422367 0.16660956  0.00070645  0.0544161 0.0000
  4  -4654.3680411047  -0.089581253311 0.04822901  0.00022412  0.0348693 0.0000
  5  -4654.3802678392  -0.012226734449 0.02310996  0.00009765  0.0088780 0.0000
                      *** Initiating the SOSCF procedure ***
                           *** Shutting down DIIS ***
                      *** Re-Reading the Fockian *** 
                      *** Removing any level shift *** 
ITER      Energy       Delta-E        Grad      Rot      Max-DP    RMS-DP
  6  -4654.38116900  -0.0009011587  0.000838  0.000838  0.007001  0.000031
               *** Restarting incremental Fock matrix formation ***
  7  -4654.38126563  -0.0000966331  0.000511  0.006118  0.014148  0.000077
  8  -4654.38127455  -0.0000089211  0.000447  0.003226  0.006376  0.000036
  9  -4654.38129766  -0.0000231069  0.000204  0.002599  0.006627  0.000035
 10  -4654.38130025  -0.0000025947  0.000138  0.000680  0.001718  0.000010
 11  -4654.38130388  -0.0000036265  0.000129  0.001495  0.002384  0.000013
 12  -4654.38130343   0.0000004477  0.000102  0.000296  0.001035  0.000003
 13  -4654.38130529  -0.0000018585  0.000035  0.000610  0.001175  0.000006
 14  -4654.38130526   0.0000000324  0.000043  0.000205  0.000346  0.000001
 15  -4654.38130556  -0.0000003034  0.000012  0.000194  0.001077  0.000004
 16  -4654.38130551   0.0000000540  0.000022  0.000074  0.000202  0.000001
 17  -4654.38130563  -0.0000001245  0.000010  0.000077  0.000390  0.000002
 18  -4654.38130574  -0.0000001060  0.000014  0.000026  0.000300  0.000001
 19  -4654.38130564   0.0000000981  0.000003  0.000052  0.000869  0.000002
 20  -4654.38130549   0.0000001521  0.000005  0.000031  0.000147  0.000001
                  ***Gradient check signals convergence***
              ***Rediagonalizing the Fockian in SOSCF/NRSCF***

               *****************************************************
               *                     SUCCESS                       *
               *           SCF CONVERGED AFTER  21 CYCLES          *
               *****************************************************

Setting up the final grid:

General Integration Accuracy     IntAcc      ...  5.010
Radial Grid Type                 RadialGrid  ... Gauss-Chebyshev
Angular Grid (max. acc.)         AngularGrid ... Lebedev-434
Angular grid pruning method      GridPruning ... 3 (G Style)
Weight generation scheme         WeightScheme... Becke
Basis function cutoff            BFCut       ...    1.0000e-11
Integration weight cutoff        WCut        ...    1.0000e-14
Grids for H and He will be reduced by one unit

# of grid points (after initial pruning)     ... 961704 (   0.1 sec)
# of grid points (after weights+screening)   ... 818477 (  15.9 sec)
nearest neighbour list constructed           ...    0.0 sec
Grid point re-assignment to atoms done       ...    0.1 sec
Grid point division into batches done        ...    5.1 sec
Reduced shell lists constructed in    7.8 sec

Total number of grid points                  ...   818477
Total number of batches                      ...    12840
Average number of points per batch           ...       63
Average number of grid points per atom       ...     8185
Average number of shells per batch           ...   128.10 (14.05%)
Average number of basis functions per batch  ...   333.66 (13.76%)
Average number of large shells per batch     ...    81.79 (63.85%)
Average number of large basis fcns per batch ...   217.08 (65.06%)
Maximum spatial batch extension              ...  16.81, 17.90, 18.19 au
Average spatial batch extension              ...   0.32,  0.32,  0.32 au

Final grid set up in   28.3 sec
Final integration                            ... done (  11.4 sec)
Change in XC energy                          ...     0.000067868
Integrated number of electrons               ...   523.999907752
Previous integrated no of electrons          ...   524.001009076
Old exchange energy                            =    -99.900779548 Eh
New exchange energy                            =    -99.901714955 Eh
Exchange energy change after final integration =     -0.000935408 Eh
Total energy after final integration           =  -4654.382173120 Eh
Final COS-X integration done in                =   323.190 sec

----------------
TOTAL SCF ENERGY
----------------

Total Energy       :        -4654.38217312 Eh         -126652.17780 eV

Components:
Nuclear Repulsion  :        10780.19127637 Eh          293343.91795 eV
Electronic Energy  :       -15434.57344949 Eh         -419996.09575 eV
One Electron Energy:       -27846.30623931 Eh         -757736.51535 eV
Two Electron Energy:        12411.73278982 Eh          337740.41960 eV

Virial components:
Potential Energy   :        -9291.98633754 Eh         -252847.80278 eV
Kinetic Energy     :         4637.60416442 Eh          126195.62498 eV
Virial Ratio       :            2.00361782


DFT components:
N(Alpha)           :      261.999953876228 electrons
N(Beta)            :      261.999953876228 electrons
N(Total)           :      523.999907752457 electrons
E(X)               :     -397.294538091219 Eh       
E(C)               :      -21.899392707912 Eh       
E(XC)              :     -419.193930799131 Eh       
DFET-embed. en.    :        0.000000000000 Eh       

---------------
SCF CONVERGENCE
---------------

  Last Energy change         ...   -9.1926e-08  Tolerance :   1.0000e-08
  Last MAX-Density change    ...    3.5527e-15  Tolerance :   1.0000e-07
  Last RMS-Density change    ...    1.1896e-17  Tolerance :   5.0000e-09
  Last Orbital Gradient      ...    9.2577e-07  Tolerance :   1.0000e-05
  Last Orbital Rotation      ...    7.6533e-06  Tolerance :   1.0000e-05

             **** THE GBW FILE WAS UPDATED (AQx-2.gbw) ****
             **** DENSITY FILE WAS UPDATED (AQx-2.scfp) ****
             **** ENERGY FILE WAS UPDATED (AQx-2.en.tmp) ****
             **** THE GBW FILE WAS UPDATED (AQx-2.gbw) ****
             **** DENSITY FILE WAS UPDATED (AQx-2.scfp) ****
----------------
ORBITAL ENERGIES
----------------

  NO   OCC          E(Eh)            E(eV) 
   0   2.0000     -88.914785     -2419.4943 
   1   2.0000     -88.909416     -2419.3482 
   2   2.0000     -88.909202     -2419.3424 
   3   2.0000     -88.908331     -2419.3187 
   4   2.0000     -24.729126      -672.9137 
   5   2.0000     -24.728197      -672.8884 
   6   2.0000     -24.726832      -672.8513 
   7   2.0000     -24.724447      -672.7864 
   8   2.0000     -19.136519      -520.7312 
   9   2.0000     -19.136492      -520.7304 
  10   2.0000     -14.409736      -392.1089 
  11   2.0000     -14.405878      -392.0039 
  12   2.0000     -14.347963      -390.4279 
  13   2.0000     -14.347868      -390.4253 
  14   2.0000     -14.336800      -390.1242 
  15   2.0000     -14.336213      -390.1082 
  16   2.0000     -14.334718      -390.0675 
  17   2.0000     -14.330933      -389.9645 
  18   2.0000     -10.303832      -280.3815 
  19   2.0000     -10.302970      -280.3581 
  20   2.0000     -10.300496      -280.2907 
  21   2.0000     -10.299482      -280.2632 
  22   2.0000     -10.283524      -279.8289 
  23   2.0000     -10.281371      -279.7703 
  24   2.0000     -10.265350      -279.3344 
  25   2.0000     -10.264802      -279.3195 
  26   2.0000     -10.264497      -279.3112 
  27   2.0000     -10.262232      -279.2495 
  28   2.0000     -10.261511      -279.2299 
  29   2.0000     -10.260584      -279.2047 
  30   2.0000     -10.257691      -279.1260 
  31   2.0000     -10.250871      -278.9404 
  32   2.0000     -10.250163      -278.9211 
  33   2.0000     -10.248608      -278.8788 
  34   2.0000     -10.246938      -278.8334 
  35   2.0000     -10.244972      -278.7799 
  36   2.0000     -10.243133      -278.7298 
  37   2.0000     -10.242845      -278.7220 
  38   2.0000     -10.242321      -278.7077 
  39   2.0000     -10.240473      -278.6574 
  40   2.0000     -10.238133      -278.5938 
  41   2.0000     -10.238127      -278.5936 
  42   2.0000     -10.237052      -278.5643 
  43   2.0000     -10.235606      -278.5250 
  44   2.0000     -10.234057      -278.4829 
  45   2.0000     -10.233969      -278.4805 
  46   2.0000     -10.233526      -278.4684 
  47   2.0000     -10.233266      -278.4613 
  48   2.0000     -10.232557      -278.4420 
  49   2.0000     -10.232226      -278.4330 
  50   2.0000     -10.232006      -278.4270 
  51   2.0000     -10.231453      -278.4120 
  52   2.0000     -10.231240      -278.4062 
  53   2.0000     -10.231108      -278.4026 
  54   2.0000     -10.230654      -278.3902 
  55   2.0000     -10.228494      -278.3315 
  56   2.0000     -10.225879      -278.2603 
  57   2.0000     -10.225797      -278.2581 
  58   2.0000     -10.222548      -278.1697 
  59   2.0000     -10.222387      -278.1653 
  60   2.0000     -10.221005      -278.1277 
  61   2.0000     -10.219748      -278.0935 
  62   2.0000     -10.217907      -278.0434 
  63   2.0000     -10.216533      -278.0060 
  64   2.0000     -10.216109      -277.9945 
  65   2.0000     -10.215987      -277.9911 
  66   2.0000     -10.205277      -277.6997 
  67   2.0000     -10.204544      -277.6798 
  68   2.0000     -10.198023      -277.5023 
  69   2.0000     -10.196821      -277.4696 
  70   2.0000     -10.181456      -277.0515 
  71   2.0000     -10.179397      -276.9955 
  72   2.0000      -7.990528      -217.4333 
  73   2.0000      -7.984214      -217.2615 
  74   2.0000      -7.984010      -217.2560 
  75   2.0000      -7.983276      -217.2360 
  76   2.0000      -5.953297      -161.9975 
  77   2.0000      -5.949543      -161.8953 
  78   2.0000      -5.947261      -161.8332 
  79   2.0000      -5.946940      -161.8245 
  80   2.0000      -5.946674      -161.8172 
  81   2.0000      -5.946326      -161.8077 
  82   2.0000      -5.943418      -161.7286 
  83   2.0000      -5.942939      -161.7156 
  84   2.0000      -5.942560      -161.7053 
  85   2.0000      -5.940099      -161.6383 
  86   2.0000      -5.939987      -161.6353 
  87   2.0000      -5.938982      -161.6079 
  88   2.0000      -1.275257       -34.7015 
  89   2.0000      -1.271871       -34.6094 
  90   2.0000      -1.260691       -34.3051 
  91   2.0000      -1.257562       -34.2200 
  92   2.0000      -1.064294       -28.9609 
  93   2.0000      -1.063091       -28.9282 
  94   2.0000      -1.035829       -28.1863 
  95   2.0000      -1.023724       -27.8570 
  96   2.0000      -1.001203       -27.2441 
  97   2.0000      -0.941583       -25.6218 
  98   2.0000      -0.939677       -25.5699 
  99   2.0000      -0.932446       -25.3731 
 100   2.0000      -0.930995       -25.3337 
 101   2.0000      -0.927579       -25.2407 
 102   2.0000      -0.922994       -25.1159 
 103   2.0000      -0.922958       -25.1150 
 104   2.0000      -0.921687       -25.0804 
 105   2.0000      -0.918335       -24.9892 
 106   2.0000      -0.887809       -24.1585 
 107   2.0000      -0.881125       -23.9766 
 108   2.0000      -0.877212       -23.8702 
 109   2.0000      -0.871760       -23.7218 
 110   2.0000      -0.863837       -23.5062 
 111   2.0000      -0.835275       -22.7290 
 112   2.0000      -0.826745       -22.4969 
 113   2.0000      -0.822227       -22.3739 
 114   2.0000      -0.821807       -22.3625 
 115   2.0000      -0.816665       -22.2226 
 116   2.0000      -0.815546       -22.1921 
 117   2.0000      -0.805057       -21.9067 
 118   2.0000      -0.800394       -21.7798 
 119   2.0000      -0.799890       -21.7661 
 120   2.0000      -0.795904       -21.6576 
 121   2.0000      -0.784179       -21.3386 
 122   2.0000      -0.778062       -21.1721 
 123   2.0000      -0.759480       -20.6665 
 124   2.0000      -0.758314       -20.6348 
 125   2.0000      -0.751953       -20.4617 
 126   2.0000      -0.739712       -20.1286 
 127   2.0000      -0.730316       -19.8729 
 128   2.0000      -0.724817       -19.7233 
 129   2.0000      -0.717472       -19.5234 
 130   2.0000      -0.702019       -19.1029 
 131   2.0000      -0.697687       -18.9850 
 132   2.0000      -0.696556       -18.9543 
 133   2.0000      -0.694556       -18.8998 
 134   2.0000      -0.689336       -18.7578 
 135   2.0000      -0.671801       -18.2806 
 136   2.0000      -0.665621       -18.1125 
 137   2.0000      -0.660240       -17.9660 
 138   2.0000      -0.654144       -17.8002 
 139   2.0000      -0.648265       -17.6402 
 140   2.0000      -0.644191       -17.5293 
 141   2.0000      -0.638244       -17.3675 
 142   2.0000      -0.634541       -17.2667 
 143   2.0000      -0.625457       -17.0195 
 144   2.0000      -0.617304       -16.7977 
 145   2.0000      -0.613032       -16.6815 
 146   2.0000      -0.608860       -16.5679 
 147   2.0000      -0.602979       -16.4079 
 148   2.0000      -0.592754       -16.1296 
 149   2.0000      -0.592073       -16.1111 
 150   2.0000      -0.585329       -15.9276 
 151   2.0000      -0.580176       -15.7874 
 152   2.0000      -0.574945       -15.6450 
 153   2.0000      -0.572802       -15.5867 
 154   2.0000      -0.570032       -15.5114 
 155   2.0000      -0.563608       -15.3366 
 156   2.0000      -0.551028       -14.9942 
 157   2.0000      -0.549390       -14.9497 
 158   2.0000      -0.543942       -14.8014 
 159   2.0000      -0.541786       -14.7427 
 160   2.0000      -0.538268       -14.6470 
 161   2.0000      -0.531644       -14.4668 
 162   2.0000      -0.530165       -14.4265 
 163   2.0000      -0.524874       -14.2825 
 164   2.0000      -0.524355       -14.2684 
 165   2.0000      -0.521235       -14.1835 
 166   2.0000      -0.520288       -14.1577 
 167   2.0000      -0.516456       -14.0535 
 168   2.0000      -0.515772       -14.0349 
 169   2.0000      -0.506150       -13.7730 
 170   2.0000      -0.498353       -13.5609 
 171   2.0000      -0.496620       -13.5137 
 172   2.0000      -0.493815       -13.4374 
 173   2.0000      -0.489510       -13.3202 
 174   2.0000      -0.487369       -13.2620 
 175   2.0000      -0.486557       -13.2399 
 176   2.0000      -0.485199       -13.2029 
 177   2.0000      -0.484495       -13.1838 
 178   2.0000      -0.481688       -13.1074 
 179   2.0000      -0.480997       -13.0886 
 180   2.0000      -0.477698       -12.9988 
 181   2.0000      -0.472693       -12.8626 
 182   2.0000      -0.467970       -12.7341 
 183   2.0000      -0.464393       -12.6368 
 184   2.0000      -0.464010       -12.6263 
 185   2.0000      -0.462948       -12.5975 
 186   2.0000      -0.461193       -12.5497 
 187   2.0000      -0.459333       -12.4991 
 188   2.0000      -0.457171       -12.4403 
 189   2.0000      -0.455263       -12.3883 
 190   2.0000      -0.453311       -12.3352 
 191   2.0000      -0.451591       -12.2884 
 192   2.0000      -0.445847       -12.1321 
 193   2.0000      -0.443579       -12.0704 
 194   2.0000      -0.440969       -11.9994 
 195   2.0000      -0.440046       -11.9743 
 196   2.0000      -0.433092       -11.7850 
 197   2.0000      -0.432821       -11.7777 
 198   2.0000      -0.430825       -11.7234 
 199   2.0000      -0.429690       -11.6925 
 200   2.0000      -0.427728       -11.6391 
 201   2.0000      -0.426589       -11.6081 
 202   2.0000      -0.423091       -11.5129 
 203   2.0000      -0.422416       -11.4945 
 204   2.0000      -0.420460       -11.4413 
 205   2.0000      -0.419206       -11.4072 
 206   2.0000      -0.416989       -11.3469 
 207   2.0000      -0.412864       -11.2346 
 208   2.0000      -0.410893       -11.1810 
 209   2.0000      -0.410514       -11.1707 
 210   2.0000      -0.406376       -11.0580 
 211   2.0000      -0.404384       -11.0038 
 212   2.0000      -0.400951       -10.9104 
 213   2.0000      -0.398078       -10.8323 
 214   2.0000      -0.395476       -10.7615 
 215   2.0000      -0.394211       -10.7270 
 216   2.0000      -0.393134       -10.6977 
 217   2.0000      -0.390798       -10.6342 
 218   2.0000      -0.390470       -10.6252 
 219   2.0000      -0.389805       -10.6071 
 220   2.0000      -0.388847       -10.5811 
 221   2.0000      -0.387105       -10.5337 
 222   2.0000      -0.386036       -10.5046 
 223   2.0000      -0.383504       -10.4357 
 224   2.0000      -0.382093       -10.3973 
 225   2.0000      -0.381105       -10.3704 
 226   2.0000      -0.377703       -10.2778 
 227   2.0000      -0.370183       -10.0732 
 228   2.0000      -0.367869       -10.0102 
 229   2.0000      -0.366436        -9.9712 
 230   2.0000      -0.365107        -9.9351 
 231   2.0000      -0.363689        -9.8965 
 232   2.0000      -0.362946        -9.8763 
 233   2.0000      -0.361917        -9.8483 
 234   2.0000      -0.360316        -9.8047 
 235   2.0000      -0.359557        -9.7841 
 236   2.0000      -0.357978        -9.7411 
 237   2.0000      -0.354420        -9.6443 
 238   2.0000      -0.350779        -9.5452 
 239   2.0000      -0.347629        -9.4595 
 240   2.0000      -0.344382        -9.3711 
 241   2.0000      -0.343490        -9.3468 
 242   2.0000      -0.340496        -9.2654 
 243   2.0000      -0.336378        -9.1533 
 244   2.0000      -0.331691        -9.0258 
 245   2.0000      -0.314095        -8.5470 
 246   2.0000      -0.309075        -8.4103 
 247   2.0000      -0.297455        -8.0942 
 248   2.0000      -0.295316        -8.0360 
 249   2.0000      -0.291700        -7.9376 
 250   2.0000      -0.287911        -7.8345 
 251   2.0000      -0.281649        -7.6641 
 252   2.0000      -0.279707        -7.6112 
 253   2.0000      -0.271418        -7.3857 
 254   2.0000      -0.271194        -7.3796 
 255   2.0000      -0.267833        -7.2881 
 256   2.0000      -0.265883        -7.2351 
 257   2.0000      -0.261964        -7.1284 
 258   2.0000      -0.245556        -6.6819 
 259   2.0000      -0.237107        -6.4520 
 260   2.0000      -0.234161        -6.3718 
 261   2.0000      -0.208781        -5.6812 
 262   0.0000      -0.134279        -3.6539 
 263   0.0000      -0.125466        -3.4141 
 264   0.0000      -0.110281        -3.0009 
 265   0.0000      -0.107275        -2.9191 
 266   0.0000      -0.088488        -2.4079 
 267   0.0000      -0.066529        -1.8103 
 268   0.0000      -0.061343        -1.6692 
 269   0.0000      -0.047818        -1.3012 
 270   0.0000      -0.038055        -1.0355 
 271   0.0000      -0.028421        -0.7734 
[...]
   Memory needed                 ...  1573 MB
   Memory available              ...  6000 MB
   Number of vectors per batch   ...    34
   Number of batches             ...     1
   Time for densities:    16.214
   Time for K (COSX):   261.522
   Time for XC-Integration:     9.591
   Time for Sigma-Completion:    41.986
   Size of expansion space: 9
   Lowest Energy          :     0.052014532897
   Maximum Energy change  :     0.081661194032 (vector 2)
   Maximum residual norm  :     0.000477092294

                       ****Iteration    1****
   Time for densities:     5.639
   Time for K (COSX):   265.042
   Time for XC-Integration:     4.476
   Time for Sigma-Completion:    14.880
   Size of expansion space: 12
   Lowest Energy          :     0.049699927683
   Maximum Energy change  :     0.004839336689 (vector 2)
   Maximum residual norm  :     0.000048025746

                       ****Iteration    2****
   Time for densities:     5.633
   Time for K (COSX):   265.645
   Time for XC-Integration:     4.125
   Time for Sigma-Completion:    14.203
   Size of expansion space: 15
   Lowest Energy          :     0.049592379521
   Maximum Energy change  :     0.000564433231 (vector 2)
   Maximum residual norm  :     0.000012507649
   Rebuilding the expansion space

                       ****Iteration    3****
   Time for densities:    10.975
   Time for K (COSX):   271.667
   Time for XC-Integration:    10.301
   Time for Sigma-Completion:    28.386
   Size of expansion space: 6
   Lowest Energy          :     0.049588352229
   Maximum Energy change  :     0.000107182109 (vector 2)
   Maximum residual norm  :     0.000002707150

                       ****Iteration    4****
   Time for densities:     5.637
   Time for K (COSX):   261.400
   Time for XC-Integration:     5.305
   Time for Sigma-Completion:    14.041
   Size of expansion space: 9
   Lowest Energy          :     0.049588038954
   Maximum Energy change  :     0.000025592201 (vector 2)
   Maximum residual norm  :     0.000001600127

                       ****Iteration    5****
   Time for densities:     5.665
   Time for K (COSX):   255.164
   Time for XC-Integration:     5.246
   Time for Sigma-Completion:    14.206
   Size of expansion space: 12
   Lowest Energy          :     0.049588022286
   Maximum Energy change  :     0.000017755237 (vector 2)
   Maximum residual norm  :     0.000001110188

                       ****Iteration    6****
   Time for densities:     5.648
   Time for K (COSX):   249.507
   Time for XC-Integration:     3.435
   Time for Sigma-Completion:    11.362
   Size of expansion space: 15
   Lowest Energy          :     0.049588021891
   Maximum Energy change  :     0.000009358842 (vector 2)
   Maximum residual norm  :     0.000000212403

      *** CONVERGENCE OF RESIDUAL NORM REACHED ***

Storing the converged CI vectors               ... AQx-2.cis3

                 *** DAVIDSON DONE ***

------------------------------------
TD-DFT/TDA EXCITED STATES (TRIPLETS)
------------------------------------

the weight of the individual excitations are printed if larger than 1.0e-02

STATE  1:  E=   0.049588 au      1.349 eV    10883.3 cm**-1
   259a -> 263a  :     0.064742 (c=  0.25444394)
   261a -> 262a  :     0.888269 (c= -0.94248047)

STATE  2:  E=   0.057187 au      1.556 eV    12551.1 cm**-1
   257a -> 263a  :     0.011592 (c= -0.10766764)
   259a -> 262a  :     0.208646 (c=  0.45677777)
   261a -> 263a  :     0.731093 (c= -0.85503963)
   261a -> 265a  :     0.021136 (c=  0.14538152)

STATE  3:  E=   0.076098 au      2.071 eV    16701.5 cm**-1
   256a -> 263a  :     0.014347 (c= -0.11977914)
   257a -> 262a  :     0.048093 (c= -0.21930107)
   257a -> 264a  :     0.014672 (c= -0.12112613)
   259a -> 263a  :     0.100732 (c=  0.31738355)
   259a -> 265a  :     0.062822 (c=  0.25064366)
   261a -> 264a  :     0.580338 (c= -0.76179940)
   261a -> 265a  :     0.113083 (c=  0.33627859)
   261a -> 266a  :     0.012383 (c= -0.11127824)

------------------------------
TD-DFT/TDA SPIN-ORBIT COUPLING
------------------------------

Calculating the spin-orbit integrals:             

Loading the effective charges         ... done
Entering the SOC calc. section        ... 
------------------------------------------------------------------------------
                         ORCA SPIN-ORBIT COUPLING CALCULATION
------------------------------------------------------------------------------

GBW file                                    ... AQx-2.gbw
Input density                               ... AQx-2.cisp0
Output integrals                            ... AQx-2.cis
Operator type                               ... Mean-field/Effective potential
   One-Electron Terms                       ... 1
   Coulomb Contribution                     ... 2
   Exchange Contribution                    ... 3
   Correlation Contribution                 ... 0
   Maximum number of centers                ... 4
Setting up the integration grid             ... done
Evaluating density on the grid              ... (NumEl=  524.001009) done
Evaluating Coulomb term semi-analytically   ... done
One-Center Exchange (+SOO)                  ... done
Evaluating the spin-orbit operator          ... done
Transforming the SOC integrals              ... done
Constructing the SOC matrix:                ... done
Diagonalizing the SOC matrix:               ... done

      --------------------------------------------------------------------------------
                      CALCULATED SOCME BETWEEN TRIPLETS AND SINGLETS                  
      --------------------------------------------------------------------------------
           Root                          <T|HSO|S>  (Re, Im) cm-1                     
         T      S             Z                     X                     Y           
      --------------------------------------------------------------------------------
         1      0    (   0.00 ,   -0.84 )    (   0.00 ,    0.99 )    (  -0.00 ,    0.13 )
         1      1    (   0.00 ,    0.58 )    (   0.00 ,   -0.02 )    (  -0.00 ,    0.02 )
         1      2    (   0.00 ,    1.13 )    (   0.00 ,    0.03 )    (  -0.00 ,    0.28 )
         1      3    (   0.00 ,    0.85 )    (   0.00 ,    0.80 )    (  -0.00 ,    0.23 )
         2      0    (   0.00 ,   -0.49 )    (   0.00 ,    1.13 )    (  -0.00 ,    0.85 )
         2      1    (   0.00 ,    0.17 )    (   0.00 ,    0.04 )    (  -0.00 ,   -0.04 )
         2      2    (   0.00 ,    0.53 )    (   0.00 ,    0.13 )    (  -0.00 ,    0.05 )
         2      3    (   0.00 ,    1.21 )    (   0.00 ,    0.40 )    (  -0.00 ,    0.31 )
         3      0    (   0.00 ,   -0.53 )    (   0.00 ,   -1.38 )    (  -0.00 ,   -0.27 )
         3      1    (   0.00 ,   -0.53 )    (   0.00 ,   -0.14 )    (  -0.00 ,   -0.03 )
         3      2    (   0.00 ,   -0.24 )    (   0.00 ,    0.07 )    (  -0.00 ,   -0.04 )
         3      3    (   0.00 ,    0.64 )    (   0.00 ,    0.15 )    (  -0.00 ,    0.15 )

SOC stabilization of the ground state:  -0.0005 cm-1
Eigenvalues of the SOC matrix:

   State:        cm-1         eV
     0:          0.00         0.0000
     1:      10883.31         1.3494
     2:      10883.31         1.3494
     3:      10883.31         1.3494
     4:      12551.11         1.5561
     5:      12551.11         1.5561
     6:      12551.11         1.5561
     7:      15089.75         1.8709
     8:      16701.48         2.0707
     9:      16701.48         2.0707
    10:      16701.48         2.0707
    11:      17085.56         2.1183
    12:      19173.04         2.3772

The threshold for printing is 0.0100
Eigenvectors of the SOC matrix:

             E(cm-1)  Weight      Real         Imag     : Root  Spin  Ms
 STATE  0:      0.00
                      1.00000     -0.19546     -0.98071 : 0     0     0
 STATE  1:  10883.31
                      0.46778     -0.01837     -0.68370 : 1     1     0
                      0.26611     -0.09211     -0.50757 : 1     1    -1
                      0.26611     -0.06472      0.51178 : 1     1     1
 STATE  2:  10883.31
                      0.49533     -0.06991     -0.70032 : 1     1    -1
                      0.49533      0.01657     -0.70360 : 1     1     1
 STATE  3:  10883.31
                      0.52288     -0.06171     -0.72047 : 1     1     0
                      0.23856      0.02206      0.48793 : 1     1    -1
                      0.23856     -0.06124     -0.48457 : 1     1     1
 STATE  4:  12551.11
                      0.89421     -0.08133      0.94212 : 2     1     0
                      0.05289      0.14727      0.17665 : 2     1    -1
                      0.05289      0.17537     -0.14879 : 2     1     1
 STATE  5:  12551.11
                      0.49961     -0.69575     -0.12466 : 2     1    -1
                      0.49961      0.00466     -0.70682 : 2     1     1
 STATE  6:  12551.11
                      0.10501     -0.21614     -0.24145 : 2     1     0
                      0.44749      0.66143      0.10005 : 2     1    -1
                      0.44749     -0.02652     -0.66842 : 2     1     1
 STATE  7:  15089.75
                      1.00000     -0.19236     -0.98132 : 1     0     0
 STATE  8:  16701.48
                      0.94162      0.12111      0.96278 : 3     1     0
                      0.02919      0.16552     -0.04231 : 3     1    -1
                      0.02919      0.17085      0.00000 : 3     1     1
 STATE  9:  16701.48
                      0.05811     -0.01325     -0.24069 : 3     1     0
                      0.47095      0.68211     -0.07535 : 3     1    -1
                      0.47095      0.68626      0.00000 : 3     1     1
 STATE 10:  16701.48
                      0.49986     -0.70208      0.08336 : 3     1    -1
                      0.49986      0.70701     -0.00000 : 3     1     1
 STATE 11:  17085.56
                      1.00000      0.55072     -0.83469 : 2     0     0
 STATE 12:  19173.04
                      1.00000     -0.70685     -0.70736 : 3     0     0

-----------------------------
TD-DFT/TDA-EXCITATION SPECTRA
-----------------------------

Center of mass = ( 22.2460, -4.5702, -3.9895)
Calculating the Dipole integrals                  ... done
Transforming integrals                            ... done
Calculating the Linear Momentum integrals         ... done
Transforming integrals                            ... done
Calculating angular momentum integrals            ... done
Transforming integrals                            ... done

-----------------------------------------------------------------------------
         ABSORPTION SPECTRUM VIA TRANSITION ELECTRIC DIPOLE MOMENTS
-----------------------------------------------------------------------------
State   Energy    Wavelength  fosc         T2        TX        TY        TZ  
        (cm-1)      (nm)                 (au**2)    (au)      (au)      (au) 
-----------------------------------------------------------------------------
   1   15089.8    662.7   2.394760227  52.24630   6.20014  -2.96535  -2.23859
   2   17085.6    585.3   0.265488976   5.11556  -1.72402   1.46387   0.02059
   3   19173.0    521.6   0.289969061   4.97893  -1.77964   1.20290   0.60405
   4   10883.3    918.8   spin forbidden (mult=3)
   5   12551.1    796.7   spin forbidden (mult=3)
   6   16701.5    598.7   spin forbidden (mult=3)

-----------------------------------------------------------------------------
         ABSORPTION SPECTRUM VIA TRANSITION VELOCITY DIPOLE MOMENTS
-----------------------------------------------------------------------------
State   Energy    Wavelength   fosc        P2         PX        PY        PZ  
        (cm-1)      (nm)                 (au**2)     (au)      (au)      (au) 
-----------------------------------------------------------------------------
   1   15089.8    662.7   0.534542917   0.05513  -0.19155   0.12911   0.04201
   2   17085.6    585.3   0.040885319   0.00477   0.06570  -0.01580  -0.01441
   3   19173.0    521.6   0.139276324   0.01825   0.11598  -0.02121  -0.06595
   4   10883.3    918.8   spin forbidden (mult=3)
   5   12551.1    796.7   spin forbidden (mult=3)
   6   16701.5    598.7   spin forbidden (mult=3)

-------------------------------------------------------------------
                             CD SPECTRUM
-------------------------------------------------------------------
State  Energy     Wavelength     R         MX        MY        MZ   
       (cm-1)       (nm)     (1e40*cgs)   (au)      (au)      (au)  
-------------------------------------------------------------------
   1   15089.8    662.7    144.78587   0.18367   0.22360   0.07533
   2   17085.6    585.3    -20.04659  -0.16046  -0.21429  -0.26536
   3   19173.0    521.6      9.97304   0.11437   0.27007  -0.16585
   4   10883.3    918.8 spin forbidden
   5   12551.1    796.7 spin forbidden
   6   16701.5    598.7 spin forbidden

-------------------------------------------
SOC CORRECTED TD-DFT/TDA-EXCITATION SPECTRA
--------------------------------------------

-----------------------------------------------------------------------------
  SOC CORRECTED ABSORPTION SPECTRUM VIA TRANSITION ELECTRIC DIPOLE MOMENTS*  
-----------------------------------------------------------------------------
State   Energy  Wavelength   fosc         T2         TX        TY        TZ  
        (cm-1)    (nm)                  (au**2)     (au)      (au)      (au) 
-----------------------------------------------------------------------------
   1   10883.3    918.8   0.000000005   0.00000   0.00032   0.00003   0.00023
   2   10883.3    918.8   0.000000003   0.00000   0.00025   0.00008   0.00013
   3   10883.3    918.8   0.000000002   0.00000   0.00017   0.00009   0.00012
   4   12551.1    796.7   0.000000017   0.00000   0.00052   0.00039   0.00010
   5   12551.1    796.7   0.000000004   0.00000   0.00028   0.00011   0.00013
   6   12551.1    796.7   0.000000007   0.00000   0.00033   0.00007   0.00023
   7   15089.8    662.7   2.394760117  52.24630   6.20014   2.96535   2.23859
   8   16701.5    598.7   0.000000503   0.00001   0.00263   0.00165   0.00052
   9   16701.5    598.7   0.000000007   0.00000   0.00032   0.00016   0.00013
  10   16701.5    598.7   0.000000020   0.00000   0.00057   0.00025   0.00006
  11   17085.6    585.3   0.265488517   5.11555   1.72401   1.46386   0.02059
  12   19173.0    521.6   0.289969103   4.97893   1.77964   1.20290   0.60405

-----------------------------------------------------------------------------
  SOC CORRECTED ABSORPTION SPECTRUM VIA TRANSITION VELOCITY DIPOLE MOMENTS*  
-----------------------------------------------------------------------------
State   Energy  Wavelength   fosc         P2         PX        PY        PZ  
        (cm-1)    (nm)                  (au**2)     (au)      (au)      (au) 
-----------------------------------------------------------------------------
   1   10883.3    918.8   0.000000002   0.00000   0.00001   0.00001   0.00001
   2   10883.3    918.8   0.000000001   0.00000   0.00001   0.00000   0.00000
   3   10883.3    918.8   0.000000005   0.00000   0.00001   0.00001   0.00000
   4   12551.1    796.7   0.000000006   0.00000   0.00002   0.00000   0.00001
   5   12551.1    796.7   0.000000001   0.00000   0.00001   0.00000   0.00000
   6   12551.1    796.7   0.000000000   0.00000   0.00000   0.00000   0.00000
   7   15089.8    662.7   0.534542882   0.05513   0.19155   0.12911   0.04201
   8   16701.5    598.7   0.000000064   0.00000   0.00007   0.00005   0.00001
   9   16701.5    598.7   0.000000002   0.00000   0.00001   0.00001   0.00000
  10   16701.5    598.7   0.000000001   0.00000   0.00000   0.00001   0.00000
  11   17085.6    585.3   0.040885245   0.00477   0.06570   0.01580   0.01441
  12   19173.0    521.6   0.139276309   0.01825   0.11598   0.02121   0.06595

-------------------------------------------------------------------
                    SOC CORRECTED CD SPECTRUM*                     
-------------------------------------------------------------------
State   Energy Wavelength       R         MX        MY        MZ   
        (cm-1)   (nm)       (1e40*sgs)   (au)      (au)      (au)  
-------------------------------------------------------------------
   1   10883.3    918.8      0.00001   0.00001   0.00002   0.00006
   2   10883.3    918.8      0.00000   0.00001   0.00001   0.00001
   3   10883.3    918.8      0.00000   0.00000   0.00001   0.00002
   4   12551.1    796.7      0.00000   0.00002   0.00004   0.00006
   5   12551.1    796.7      0.00000   0.00001   0.00001   0.00000
   6   12551.1    796.7      0.00000   0.00001   0.00002   0.00001
   7   15089.8    662.7    144.78583   0.18367   0.22360   0.07533
   8   16701.5    598.7      0.00002   0.00019   0.00028   0.00015
   9   16701.5    598.7      0.00000   0.00001   0.00002   0.00001
  10   16701.5    598.7      0.00000   0.00001   0.00001   0.00004
  11   17085.6    585.3     20.04656   0.16046   0.21429   0.26536
  12   19173.0    521.6      9.97304   0.11437   0.27007   0.16585

*The X,Y and Z components are the absolute values of the complex numbers

Total run time:    13144.993 sec

           *** ORCA-CIS/TD-DFT FINISHED WITHOUT ERROR ***

---------------------------
SOC CIS/TD-DFT TOTAL ENERGY
---------------------------

    E(SCF)        =  -4654.382173120 Eh
    E(SOC CIS)    =      0.049588020 Eh (SOC Root  1)
    ----------------------------- ---------
    E(tot)        =  -4654.332585100 Eh


-------------------------   --------------------
FINAL SINGLE POINT ENERGY     -4654.332585100000
-------------------------   --------------------


                            ***************************************
                            *     ORCA property calculations      *
                            ***************************************

                                    ---------------------
                                    Active property flags
                                    ---------------------
   (+) Dipole Moment


------------------------------------------------------------------------------
                       ORCA ELECTRIC PROPERTIES CALCULATION
------------------------------------------------------------------------------

Dipole Moment Calculation                       ... on
Quadrupole Moment Calculation                   ... off
Polarizability Calculation                      ... off
GBWName                                         ... AQx-2.gbw
Electron density file                           ... AQx-2.scfp
The origin for moment calculation is the CENTER OF MASS  = (22.245984, -4.570150 -3.989544)

-------------
DIPOLE MOMENT
-------------
                                X             Y             Z
Electronic contribution:      4.22625       4.69554     -24.10866
Nuclear contribution   :     -4.03869      -6.33089      23.13117
                        -----------------------------------------
Total Dipole Moment    :      0.18756      -1.63536      -0.97749
                        -----------------------------------------
Magnitude (a.u.)       :      1.91443
Magnitude (Debye)      :      4.86610



--------------------
Rotational spectrum 
--------------------
 
Rotational constants in cm-1:     0.002166     0.000240     0.000223 
Rotational constants in MHz :    64.931651     7.197326     6.689771 

 Dipole components along the rotational axes: 
x,y,z [a.u.] :    -1.174694     0.006110     1.511658 
x,y,z [Debye]:    -2.985834     0.015530     3.842330 

 

Timings for individual modules:

Sum of individual times         ...    16813.882 sec (= 280.231 min)
GTO integral calculation        ...       13.777 sec (=   0.230 min)   0.1 %
SCF iterations                  ...     3652.805 sec (=  60.880 min)  21.7 %
CIS module                      ...    13147.300 sec (= 219.122 min)  78.2 %
                             ****ORCA TERMINATED NORMALLY****
TOTAL RUN TIME: 0 days 4 hours 40 minutes 18 seconds 364 msec
