
                                 *****************
                                 * O   R   C   A *
                                 *****************

           --- An Ab Initio, DFT and Semiempirical electronic structure package ---

                  #######################################################
                  #                        -***-                        #
                  #          Department of theory and spectroscopy      #
                  #               Directorship: Frank Neese             #
                  #        Max Planck Institute fuer Kohlenforschung    #
                  #                Kaiser Wilhelm Platz 1               #
                  #                 D-45470 Muelheim/Ruhr               #
                  #                      Germany                        #
                  #                                                     #
                  #                  All rights reserved                #
                  #                        -***-                        #
                  #######################################################


                         Program Version 4.2.0 -  RELEASE  -


 With contributions from (in alphabetic order):
   Daniel Aravena         : Magnetic Suceptibility
   Michael Atanasov       : Ab Initio Ligand Field Theory (pilot matlab implementation)
   Alexander A. Auer      : GIAO ZORA, VPT2
   Ute Becker             : Parallelization
   Giovanni Bistoni       : ED, misc. LED, open-shell LED, HFLED
   Martin Brehm           : Molecular dynamics
   Dmytro Bykov           : SCF Hessian
   Vijay G. Chilkuri      : MRCI spin determinant printing, contributions to CSF-ICE
   Dipayan Datta          : RHF DLPNO-CCSD density
   Achintya Kumar Dutta   : EOM-CC, STEOM-CC
   Dmitry Ganyushin       : Spin-Orbit,Spin-Spin,Magnetic field MRCI
   Miquel Garcia          : C-PCM Hessian, Gaussian charge scheme
   Yang Guo               : DLPNO-NEVPT2, CIM, IAO-localization
   Andreas Hansen         : Spin unrestricted coupled pair/coupled cluster methods
   Benjamin Helmich-Paris : CASSCF linear response (MC-RPA)
   Lee Huntington         : MR-EOM, pCC
   Robert Izsak           : Overlap fitted RIJCOSX, COSX-SCS-MP3, EOM
   Christian Kollmar      : KDIIS, OOCD, Brueckner-CCSD(T), CCSD density
   Simone Kossmann        : Meta GGA functionals, TD-DFT gradient, OOMP2, MP2 Hessian
   Martin Krupicka        : AUTO-CI
   Lucas Lang             : DCDCAS
   Dagmar Lenk            : GEPOL surface, SMD
   Dimitrios Liakos       : Extrapolation schemes; Compound Job, initial MDCI parallelization
   Dimitrios Manganas     : Further ROCIS development; embedding schemes
   Dimitrios Pantazis     : SARC Basis sets
   Taras Petrenko         : DFT Hessian,TD-DFT gradient, ASA, ECA, R-Raman, ABS, FL, XAS/XES, NRVS
   Peter Pinski           : DLPNO-MP2, DLPNO-MP2 Gradient
   Christoph Reimann      : Effective Core Potentials
   Marius Retegan         : Local ZFS, SOC
   Christoph Riplinger    : Optimizer, TS searches, QM/MM, DLPNO-CCSD(T), (RO)-DLPNO pert. Triples
   Tobias Risthaus        : Range-separated hybrids, TD-DFT gradient, RPA, STAB
   Michael Roemelt        : Original ROCIS implementation
   Masaaki Saitow         : Open-shell DLPNO-CCSD energy and density
   Barbara Sandhoefer     : DKH picture change effects
   Avijit Sen             : IP-ROCIS
   Kantharuban Sivalingam : CASSCF convergence, NEVPT2, FIC-MRCI
   Bernardo de Souza      : ESD, SOC TD-DFT
   Georgi Stoychev        : AutoAux, RI-MP2 NMR
   Willem Van den Heuvel  : Paramagnetic NMR
   Boris Wezisla          : Elementary symmetry handling
   Frank Wennmohs         : Technical directorship


 We gratefully acknowledge several colleagues who have allowed us to
 interface, adapt or use parts of their codes:
   Stefan Grimme, W. Hujo, H. Kruse,             : VdW corrections, initial TS optimization,
                  C. Bannwarth                     DFT functionals, gCP, sTDA/sTD-DF
   Ed Valeev, F. Pavosevic, A. Kumar             : LibInt (2-el integral package), F12 methods
   Garnet Chan, S. Sharma, J. Yang, R. Olivares  : DMRG
   Ulf Ekstrom                                   : XCFun DFT Library
   Mihaly Kallay                                 : mrcc  (arbitrary order and MRCC methods)
   Andreas Klamt, Michael Diedenhofen            : otool_cosmo (COSMO solvation model)
   Jiri Pittner, Ondrej Demel                    : Mk-CCSD
   Frank Weinhold                                : gennbo (NPA and NBO analysis)
   Christopher J. Cramer and Donald G. Truhlar   : smd solvation model
   Lars Goerigk                                  : TD-DFT with DH, B97 family of functionals
   V. Asgeirsson, H. Jonsson                     : NEB implementation
   FAccTs GmbH                                   : IRC, NEB, NEB-TS, Multilevel, MM, QM/MM, CI optimization
   S Lehtola, MJT Oliveira, MAL Marques          : LibXC Library


 Your calculation uses the libint2 library for the computation of 2-el integrals
 For citations please refer to: http://libint.valeyev.net

 Your ORCA version has been built with support for libXC version: 4.2.3
 For citations please refer to: https://tddft.org/programs/libxc/

 This ORCA versions uses:
   CBLAS   interface :  Fast vector & matrix operations
   LAPACKE interface :  Fast linear algebra routines
   SCALAPACK package :  Parallel linear algebra routines


----- Orbital basis set information -----
Your calculation utilizes the basis: def2-TZVP
   F. Weigend and R. Ahlrichs, Phys. Chem. Chem. Phys. 7, 3297 (2005).

----- AuxJ basis set information -----
Your calculation utilizes the auxiliary basis: def2/J
   F. Weigend, Phys. Chem. Chem. Phys. 8, 1057 (2006).

================================================================================
                                        WARNINGS
                       Please study these warnings very carefully!
================================================================================

INFO   : Checking CIS options ...

WARNING: (CIS/TDDFT): Spin-orbit needs TRIPLETS set to TRUE
  ===> : ajusting flags

WARNING: CIS/ROCIS methods need fully converged wavefunctions
  ===> : Setting SCFConvForced true
         You can overwrite this default with %scf ConvForced false 


INFO   : the flag for use of LIBINT has been found!

================================================================================
                                       INPUT FILE
================================================================================
NAME = AQx.inp
|  1> # ORCA input file
|  2> # AQx.out
|  3> ! B3LYP def2-TZVP def2/J RIJCOSX Grid4 TightSCF
|  4> 
|  5> %maxcore 6000
|  6> %tddft
|  7>   maxdim 5
|  8>   nroots 3
|  9>   dosoc true
| 10>   end
| 11> %pal
| 12>   nprocs 6
| 13>   end
| 14> 
| 15> 
| 16> * xyz 0 1
| 17>    C        8.85689         2.86215         1.35253
| 18>    O        9.48754         1.82917         1.20864
| 19>    C        9.37919         4.12391         1.91845
| 20>    C       10.64834         4.39208         2.38985
| 21>    C       10.89516         5.66453         2.88014
| 22>    F       12.11180         5.96997         3.34821
| 23>    C        9.88796         6.62904         2.89062
| 24>    F       10.15350         7.84958         3.36992
| 25>    C        8.61254         6.35793         2.41622
| 26>    C        8.35741         5.08786         1.92416
| 27>    C        7.14375         4.48948         1.36313
| 28>    C        5.94378         5.13873         1.21856
| 29>    C        4.76296         4.58385         0.68292
| 30>    N        3.76293         4.20986         0.25758
| 31>    C        5.72000         6.47976         1.59632
| 32>    N        5.46915         7.56266         1.88238
| 33>    C        7.45879         3.12040         1.01409
| 34>    C        6.57594         2.22042         0.45829
| 35>    C        6.73383         0.88225         0.10002
| 36>    S        8.21676        -0.05410         0.30831
| 37>    C        7.43994        -1.44811        -0.33788
| 38>    C        6.10411        -1.18984        -0.70233
| 39>    C        5.69451         0.11176        -0.45989
| 40>    C        4.33357         0.61267        -0.81562
| 41>    C        4.35087         1.30958        -2.17919
| 42>    S        5.27473        -2.58746        -1.36506
| 43>    C        6.72038        -3.50759        -1.14522
| 44>    C        7.78210        -2.77546        -0.60139
| 45>    N        8.87384        -3.58448        -0.44475
| 46>    C       10.05125        -3.03974         0.19012
| 47>    C       10.92401        -2.27087        -0.80167
| 48>    C        8.54358        -4.84498        -0.90414
| 49>    C        7.17837        -4.81711        -1.32645
| 50>    C        6.45712        -5.95067        -1.78208
| 51>    N        5.17475        -5.85000        -2.15185
| 52>    C        4.55782        -6.94909        -2.53187
| 53>    C        3.12896        -6.81719        -2.94123
| 54>    C        5.22580        -8.20047        -2.54769
| 55>    C        4.53316        -9.45417        -2.96607
| 56>    N        6.48957        -8.30492        -2.19378
| 57>    C        7.12335        -7.19040        -1.80965
| 58>    C        8.49381        -7.21769        -1.44365
| 59>    C        9.24090        -6.07425        -1.02694
| 60>    N       10.55552        -6.46584        -0.84678
| 61>    C       11.75990        -5.76596        -0.46599
| 62>    C       12.06602        -5.94473         1.02135
| 63>    C       10.63572        -7.80686        -1.09846
| 64>    C        9.37864        -8.30265        -1.46339
| 65>    S        9.36516        -9.99615        -1.79864
| 66>    C       11.08047       -10.05181        -1.45345
| 67>    C       11.61333        -8.80032        -1.10520
| 68>    S       13.30249        -8.90207        -0.78733
| 69>    C       13.27949       -10.64145        -1.08709
| 70>    C       12.01269       -11.08959        -1.46066
| 71>    C       11.66537       -12.51557        -1.71998
| 72>    C       11.49862       -13.27082        -0.39855
| 73>    C       14.45664       -11.40689        -1.03915
| 74>    C       15.65610       -11.10040        -0.45743
| 75>    C       16.01643       -10.12002         0.53821
| 76>    C       15.21799        -9.67386         1.56034
| 77>    C       15.62324        -8.73648         2.52922
| 78>    N       15.88905        -7.94566         3.31821
| 79>    C       13.91828       -10.17350         1.78690
| 80>    N       12.88088       -10.60060         2.03044
| 81>    C       17.46205        -9.92033         0.44467
| 82>    C       18.29436        -8.99501         1.05159
| 83>    C       19.65424        -9.07774         0.79091
| 84>    F       20.47757        -8.18461         1.35206
| 85>    C       20.18028       -10.06441        -0.04328
| 86>    F       21.50025       -10.10956        -0.26273
| 87>    C       19.35237       -10.99591        -0.65034
| 88>    C       17.99730       -10.90776        -0.40164
| 89>    C       16.89798       -11.74526        -0.94197
| 90>    O       16.99054       -12.71224        -1.66255
| 91>    H       11.42350         3.64260         2.38024
| 92>    H        7.87140         7.13935         2.44771
| 93>    H        5.58214         2.59937         0.26411
| 94>    H        3.95839         1.30505        -0.06068
| 95>    H        3.65745        -0.24315        -0.86179
| 96>    H        5.01922         2.16720        -2.16588
| 97>    H        3.35182         1.65636        -2.42684
| 98>    H        4.68418         0.62063        -2.95181
| 99>    H       10.60065        -3.83274         0.68977
|100>    H        9.70679        -2.34158         0.95972
|101>    H       11.16476        -2.87563        -1.67417
|102>    H       11.84610        -1.96109        -0.31843
|103>    H       10.40165        -1.38058        -1.14138
|104>    H        2.82827        -5.77703        -2.85551
|105>    H        2.49294        -7.43084        -2.30495
|106>    H        2.99537        -7.14905        -3.96978
|107>    H        3.67815        -9.64930        -2.32045
|108>    H        5.23005       -10.28488        -2.90234
|109>    H        4.16868        -9.36514        -3.98840
|110>    H       11.68512        -4.71867        -0.74352
|111>    H       12.57940        -6.20217        -1.04716
|112>    H       11.22743        -5.63187         1.64023
|113>    H       12.94227        -5.36335         1.29357
|114>    H       12.26742        -6.99063         1.23943
|115>    H       12.44641       -12.99225        -2.31573
|116>    H       10.72891       -12.54985        -2.27979
|117>    H       12.42260       -13.24629         0.17403
|118>    H       11.23177       -14.30610        -0.59272
|119>    H       10.71491       -12.81374         0.19987
|120>    H       14.45083       -12.32446        -1.61973
|121>    H       17.92977        -8.21612         1.70143
|122>    H       19.75961       -11.75952        -1.29367
|123> *
|124> 
|125>                          ****END OF INPUT****
================================================================================

                       ****************************
                       * Single Point Calculation *
                       ****************************

---------------------------------
CARTESIAN COORDINATES (ANGSTROEM)
---------------------------------
  C      8.856890    2.862150    1.352530
  O      9.487540    1.829170    1.208640
  C      9.379190    4.123910    1.918450
  C     10.648340    4.392080    2.389850
  C     10.895160    5.664530    2.880140
  F     12.111800    5.969970    3.348210
  C      9.887960    6.629040    2.890620
  F     10.153500    7.849580    3.369920
  C      8.612540    6.357930    2.416220
  C      8.357410    5.087860    1.924160
  C      7.143750    4.489480    1.363130
  C      5.943780    5.138730    1.218560
  C      4.762960    4.583850    0.682920
  N      3.762930    4.209860    0.257580
  C      5.720000    6.479760    1.596320
  N      5.469150    7.562660    1.882380
  C      7.458790    3.120400    1.014090
  C      6.575940    2.220420    0.458290
  C      6.733830    0.882250    0.100020
  S      8.216760   -0.054100    0.308310
  C      7.439940   -1.448110   -0.337880
  C      6.104110   -1.189840   -0.702330
  C      5.694510    0.111760   -0.459890
  C      4.333570    0.612670   -0.815620
  C      4.350870    1.309580   -2.179190
  S      5.274730   -2.587460   -1.365060
  C      6.720380   -3.507590   -1.145220
  C      7.782100   -2.775460   -0.601390
  N      8.873840   -3.584480   -0.444750
  C     10.051250   -3.039740    0.190120
  C     10.924010   -2.270870   -0.801670
  C      8.543580   -4.844980   -0.904140
  C      7.178370   -4.817110   -1.326450
  C      6.457120   -5.950670   -1.782080
  N      5.174750   -5.850000   -2.151850
  C      4.557820   -6.949090   -2.531870
  C      3.128960   -6.817190   -2.941230
  C      5.225800   -8.200470   -2.547690
  C      4.533160   -9.454170   -2.966070
  N      6.489570   -8.304920   -2.193780
  C      7.123350   -7.190400   -1.809650
  C      8.493810   -7.217690   -1.443650
  C      9.240900   -6.074250   -1.026940
  N     10.555520   -6.465840   -0.846780
  C     11.759900   -5.765960   -0.465990
  C     12.066020   -5.944730    1.021350
  C     10.635720   -7.806860   -1.098460
  C      9.378640   -8.302650   -1.463390
  S      9.365160   -9.996150   -1.798640
  C     11.080470  -10.051810   -1.453450
  C     11.613330   -8.800320   -1.105200
  S     13.302490   -8.902070   -0.787330
  C     13.279490  -10.641450   -1.087090
  C     12.012690  -11.089590   -1.460660
  C     11.665370  -12.515570   -1.719980
  C     11.498620  -13.270820   -0.398550
  C     14.456640  -11.406890   -1.039150
  C     15.656100  -11.100400   -0.457430
  C     16.016430  -10.120020    0.538210
  C     15.217990   -9.673860    1.560340
  C     15.623240   -8.736480    2.529220
  N     15.889050   -7.945660    3.318210
  C     13.918280  -10.173500    1.786900
  N     12.880880  -10.600600    2.030440
  C     17.462050   -9.920330    0.444670
  C     18.294360   -8.995010    1.051590
  C     19.654240   -9.077740    0.790910
  F     20.477570   -8.184610    1.352060
  C     20.180280  -10.064410   -0.043280
  F     21.500250  -10.109560   -0.262730
  C     19.352370  -10.995910   -0.650340
  C     17.997300  -10.907760   -0.401640
  C     16.897980  -11.745260   -0.941970
  O     16.990540  -12.712240   -1.662550
  H     11.423500    3.642600    2.380240
  H      7.871400    7.139350    2.447710
  H      5.582140    2.599370    0.264110
  H      3.958390    1.305050   -0.060680
  H      3.657450   -0.243150   -0.861790
  H      5.019220    2.167200   -2.165880
  H      3.351820    1.656360   -2.426840
  H      4.684180    0.620630   -2.951810
  H     10.600650   -3.832740    0.689770
  H      9.706790   -2.341580    0.959720
  H     11.164760   -2.875630   -1.674170
  H     11.846100   -1.961090   -0.318430
  H     10.401650   -1.380580   -1.141380
  H      2.828270   -5.777030   -2.855510
  H      2.492940   -7.430840   -2.304950
  H      2.995370   -7.149050   -3.969780
  H      3.678150   -9.649300   -2.320450
  H      5.230050  -10.284880   -2.902340
  H      4.168680   -9.365140   -3.988400
  H     11.685120   -4.718670   -0.743520
  H     12.579400   -6.202170   -1.047160
  H     11.227430   -5.631870    1.640230
  H     12.942270   -5.363350    1.293570
  H     12.267420   -6.990630    1.239430
  H     12.446410  -12.992250   -2.315730
  H     10.728910  -12.549850   -2.279790
  H     12.422600  -13.246290    0.174030
  H     11.231770  -14.306100   -0.592720
  H     10.714910  -12.813740    0.199870
  H     14.450830  -12.324460   -1.619730
  H     17.929770   -8.216120    1.701430
  H     19.759610  -11.759520   -1.293670

----------------------------
CARTESIAN COORDINATES (A.U.)
----------------------------
  NO LB      ZA    FRAG     MASS         X           Y           Z
   0 C     6.0000    0    12.011   16.737096    5.408680    2.555911
   1 O     8.0000    0    15.999   17.928852    3.456630    2.283999
   2 C     6.0000    0    12.011   17.724100    7.793061    3.625345
   3 C     6.0000    0    12.011   20.122446    8.299828    4.516162
   4 C     6.0000    0    12.011   20.588869   10.704410    5.442676
   5 F     9.0000    0    18.998   22.887985   11.281608    6.327200
   6 C     6.0000    0    12.011   18.685536   12.527070    5.462480
   7 F     9.0000    0    18.998   19.187334   14.833556    6.368226
   8 C     6.0000    0    12.011   16.275342   12.014746    4.565994
   9 C     6.0000    0    12.011   15.793216    9.614662    3.636135
  10 C     6.0000    0    12.011   13.499731    8.483888    2.575942
  11 C     6.0000    0    12.011   11.232116    9.710792    2.302745
  12 C     6.0000    0    12.011    9.000690    8.662221    1.290532
  13 N     7.0000    0    14.007    7.110907    7.955482    0.486756
  14 C     6.0000    0    12.011   10.809233   12.244972    3.016608
  15 N     7.0000    0    14.007   10.335196   14.291356    3.557183
  16 C     6.0000    0    12.011   14.095070    5.896701    1.916352
  17 C     6.0000    0    12.011   12.426726    4.195986    0.866043
  18 C     6.0000    0    12.011   12.725095    1.667211    0.189010
  19 S    16.0000    0    32.060   15.527426   -0.102234    0.582621
  20 C     6.0000    0    12.011   14.059449   -2.736531   -0.638501
  21 C     6.0000    0    12.011   11.535096   -2.248472   -1.327211
  22 C     6.0000    0    12.011   10.761064    0.211196   -0.869066
  23 C     6.0000    0    12.011    8.189260    1.157779   -1.541298
  24 C     6.0000    0    12.011    8.221953    2.474748   -4.118072
  25 S    16.0000    0    32.060    9.967795   -4.889591   -2.579590
  26 C     6.0000    0    12.011   12.699678   -6.628384   -2.164152
  27 C     6.0000    0    12.011   14.706038   -5.244859   -1.136462
  28 N     7.0000    0    14.007   16.769127   -6.773686   -0.840456
  29 C     6.0000    0    12.011   18.994110   -5.744276    0.359275
  30 C     6.0000    0    12.011   20.643387   -4.291322   -1.514937
  31 C     6.0000    0    12.011   16.145026   -9.155685   -1.708577
  32 C     6.0000    0    12.011   13.565153   -9.103019   -2.506627
  33 C     6.0000    0    12.011   12.202188  -11.245137   -3.367643
  34 N     7.0000    0    14.007    9.778860  -11.054898   -4.066407
  35 C     6.0000    0    12.011    8.613032  -13.131877   -4.784541
  36 C     6.0000    0    12.011    5.912877  -12.882622   -5.558119
  37 C     6.0000    0    12.011    9.875331  -15.496642   -4.814436
  38 C     6.0000    0    12.011    8.566431  -17.865792   -5.605060
  39 N     7.0000    0    14.007   12.263510  -15.694024   -4.145643
  40 C     6.0000    0    12.011   13.461181  -13.587887   -3.419743
  41 C     6.0000    0    12.011   16.050975  -13.639457   -2.728103
  42 C     6.0000    0    12.011   17.462770  -11.478669   -1.940635
  43 N     7.0000    0    14.007   19.947042  -12.218667   -1.600182
  44 C     6.0000    0    12.011   22.222990  -10.896085   -0.880593
  45 C     6.0000    0    12.011   22.801473  -11.233912    1.930072
  46 C     6.0000    0    12.011   20.098598  -14.752827   -2.075789
  47 C     6.0000    0    12.011   17.723061  -15.689735   -2.765406
  48 S    16.0000    0    32.060   17.697588  -18.889986   -3.398937
  49 C     6.0000    0    12.011   20.939054  -18.995168   -2.746622
  50 C     6.0000    0    12.011   21.946013  -16.630195   -2.088525
  51 S    16.0000    0    32.060   25.138063  -16.822474   -1.487838
  52 C     6.0000    0    12.011   25.094599  -20.109426   -2.054302
  53 C     6.0000    0    12.011   22.700694  -20.956288   -2.760247
  54 C     6.0000    0    12.011   22.044355  -23.651000   -3.250291
  55 C     6.0000    0    12.011   21.729243  -25.078215   -0.753150
  56 C     6.0000    0    12.011   27.319090  -21.555898   -1.963709
  57 C     6.0000    0    12.011   29.585741  -20.976716   -0.864417
  58 C     6.0000    0    12.011   30.266666  -19.124066    1.017070
  59 C     6.0000    0    12.011   28.757833  -18.280946    2.948615
  60 C     6.0000    0    12.011   29.523645  -16.509555    4.779533
  61 N     7.0000    0    14.007   30.025953  -15.015121    6.270508
  62 C     6.0000    0    12.011   26.301737  -19.225129    3.376752
  63 N     7.0000    0    14.007   24.341336  -20.032231    3.836976
  64 C     6.0000    0    12.011   32.998492  -18.746707    0.840305
  65 C     6.0000    0    12.011   34.571330  -16.998105    1.987217
  66 C     6.0000    0    12.011   37.141131  -17.154443    1.494603
  67 F     9.0000    0    18.998   38.696999  -15.466671    2.555023
  68 C     6.0000    0    12.011   38.135203  -19.018979   -0.081787
  69 F     9.0000    0    18.998   40.629584  -19.104300   -0.496488
  70 C     6.0000    0    12.011   36.570679  -20.779258   -1.228964
  71 C     6.0000    0    12.011   34.009968  -20.612679   -0.758990
  72 C     6.0000    0    12.011   31.932554  -22.195325   -1.780065
  73 O     8.0000    0    15.999   32.107467  -24.022652   -3.141764
  74 H     1.0000    0     1.008   21.587286    6.883516    4.498002
  75 H     1.0000    0     1.008   14.874790   13.491416    4.625502
  76 H     1.0000    0     1.008   10.548716    4.912097    0.499096
  77 H     1.0000    0     1.008    7.480273    2.466187   -0.114669
  78 H     1.0000    0     1.008    6.911579   -0.459487   -1.628547
  79 H     1.0000    0     1.008    9.484951    4.095414   -4.092920
  80 H     1.0000    0     1.008    6.334022    3.130067   -4.586063
  81 H     1.0000    0     1.008    8.851817    1.172821   -5.578112
  82 H     1.0000    0     1.008   20.032325   -7.242829    1.303476
  83 H     1.0000    0     1.008   18.343175   -4.424945    1.813608
  84 H     1.0000    0     1.008   21.098339   -5.434153   -3.163723
  85 H     1.0000    0     1.008   22.385885   -3.705923   -0.601745
  86 H     1.0000    0     1.008   19.656270   -2.608918   -2.156896
  87 H     1.0000    0     1.008    5.344656  -10.917005   -5.396132
  88 H     1.0000    0     1.008    4.710974  -14.042253   -4.355724
  89 H     1.0000    0     1.008    5.660429  -13.509747   -7.501797
  90 H     1.0000    0     1.008    6.950696  -18.234534   -4.385015
  91 H     1.0000    0     1.008    9.883362  -19.435607   -5.484628
  92 H     1.0000    0     1.008    7.877664  -17.697550   -7.536984
  93 H     1.0000    0     1.008   22.081677   -8.916994   -1.405049
  94 H     1.0000    0     1.008   23.771621  -11.720403   -1.978846
  95 H     1.0000    0     1.008   21.216768  -10.642692    3.099585
  96 H     1.0000    0     1.008   24.457346  -10.135263    2.444493
  97 H     1.0000    0     1.008   23.182064  -13.210376    2.342183
  98 H     1.0000    0     1.008   23.520306  -24.551794   -4.376096
  99 H     1.0000    0     1.008   20.274702  -23.715780   -4.308179
 100 H     1.0000    0     1.008   23.475312  -25.031860    0.328869
 101 H     1.0000    0     1.008   21.224969  -27.034611   -1.120078
 102 H     1.0000    0     1.008   20.248245  -24.214459    0.377700
 103 H     1.0000    0     1.008   27.308111  -23.289854   -3.060846
 104 H     1.0000    0     1.008   33.882355  -15.526217    3.215237
 105 H     1.0000    0     1.008   37.340251  -22.222272   -2.444682

--------------------------------
INTERNAL COORDINATES (ANGSTROEM)
--------------------------------
 C      0   0   0     0.000000000000     0.00000000     0.00000000
 O      1   0   0     1.218799177469     0.00000000     0.00000000
 C      1   2   0     1.478208724775   125.86008029     0.00000000
 C      3   1   2     1.380172029640   128.42735384   359.92483890
 C      4   3   1     1.385797026624   117.58274444   180.18919010
 F      5   4   3     1.338878638301   119.67004551   179.98312243
 C      5   4   3     1.394575638142   120.60203458     0.00000000
 F      7   5   4     1.337893072409   119.36015580   179.98628126
 C      7   5   4     1.387534564795   121.74678049     0.00000000
 C      9   7   5     1.385746068152   118.01598952     0.00000000
 C     10   9   7     1.464849439669   131.52364723   179.92403623
 C     11  10   9     1.371989084614   124.86841080   359.79415037
 C     12  11  10     1.410368000346   125.88151064   180.05418850
 N     13  12  11     1.149279181313   175.63457446   181.98860577
 C     12  11  10     1.411078157616   124.07113468   359.93258207
 N     15  12  11     1.147792862889   176.38265989   181.48450487
 C     11  10   9     1.447570091429   107.36015965   180.14148393
 C     17  11  10     1.377788722156   125.14183757   179.85565614
 C     18  17  11     1.394268838460   131.14895821   181.38896726
 S     19  18  17     1.766130638288   125.00288833     0.80009114
 C     20  19  18     1.721706917161    90.35267267   178.73261177
 C     21  20  19     1.408534339056   112.12033146     0.40524480
 C     22  21  20     1.385897497508   114.03145022   359.56649788
 C     23  22  21     1.493188650037   122.87143473   177.76803527
 C     24  23  22     1.531439186844   110.76180534   264.45443653
 S     22  21  20     1.755113643529   113.56867523   180.05469976
 C     26  22  21     1.727678432174    88.89085669     0.14911608
 C     21  20  19     1.395839893469   136.90258650   180.28429382
 N     28  21  20     1.367825163389   137.43201500     1.70992022
 C     29  28  21     1.444332334541   118.54931621     2.18749053
 C     30  29  28     1.528567466159   111.71287677   276.53627423
 C     29  28  21     1.381655199281   108.10373174   178.96253236
 C     27  26  22     1.399086052893   139.10555185   178.11417610
 C     33  27  26     1.418717213894   128.53815104   357.76513549
 N     34  33  27     1.338408427462   121.04598549     2.37220374
 C     35  34  33     1.316440903877   117.77294327   181.69172551
 C     36  35  34     1.492184344912   117.00966259   180.03356625
 C     36  35  34     1.418590658788   121.26758608     0.12288221
 C     38  36  35     1.492164764361   121.71594200   179.50042704
 N     38  36  35     1.316539670310   121.26449546   359.41233978
 C     40  38  36     1.338427351671   117.75117704     0.39968170
 C     41  40  38     1.418753451344   121.02610439   181.47146076
 C     32  29  28     1.418604862285   134.57434805   178.55684103
 N     43  32  29     1.383483320499   134.51396535   353.07493423
 C     44  43  32     1.444079022388   133.60302466   359.44527094
 C     45  44  43     1.529002433909   111.51942999    98.28161293
 C     44  43  32     1.366788024092   108.02838465   179.20160093
 C     47  44  43     1.399725600037   110.04984410     0.80175573
 S     48  47  44     1.726417250522   113.89688069   180.23808018
 C     49  48  47     1.750583493524    89.15468383   359.71509575
 C     47  44  43     1.393818320765   137.84826539   179.96069021
 S     51  47  44     1.721817616648   136.82893128     0.35377976
 C     52  51  47     1.765170768509    90.80775329   178.13362597
 C     53  52  51     1.394692168365   111.95911177     1.97935249
 C     54  53  52     1.490401625469   124.45107134   182.85038459
 C     55  54  53     1.531138586118   110.31345675    77.29034509
 C     53  52  51     1.404947956225   121.34199167   177.42544291
 C     57  53  52     1.367859119244   128.83992465    18.55956592
 C     58  57  53     1.443011317662   131.65359824    17.77239456
 C     59  58  57     1.371610336830   126.14341794    31.82780815
 C     60  59  58     1.407706390303   124.18889753   178.46579006
 N     61  60  59     1.148284132347   176.51342254   143.46261212
 C     60  59  58     1.410750030055   122.73625658     2.11272975
 N     63  60  59     1.148009103448   176.71444990   118.79411211
 C     59  58  57     1.462341619493   107.18704759   199.25921124
 C     65  59  58     1.384669247474   131.10440641   171.67011910
 C     66  65  59     1.387109198910   117.84368455   178.28009753
 F     67  66  65     1.338074291024   118.98684914   179.16672381
 C     67  66  65     1.395030009211   121.61708842   359.38190648
 F     69  67  66     1.338849366396   119.57938501   180.25496302
 C     69  67  66     1.386235572224   120.79184699     0.43666784
 C     71  69  67     1.380520487860   117.67321743     0.15004818
 C     58  57  53     1.480840763080   119.91135787   204.16030733
 O     73  58  57     1.209484687956   127.39282862   346.00688814
 H      4   3   1     1.078279021450   121.53108143     0.14390847
 H      9   7   5     1.077449458722   118.72367556   179.98047969
 H     18  17  11     1.081178715523   115.62575194     1.03980775
 H     24  23  22     1.090909941471   111.19245658   142.65709468
 H     24  23  22     1.091649117482   108.15472408    23.88226149
 H     25  24  23     1.087373414702   110.79104739   299.04217740
 H     25  24  23     1.086134334878   109.75020743   179.31675991
 H     25  24  23     1.087515205871   110.34926769    59.43051040
 H     30  29  28     1.086434297369   109.82192423   151.45980791
 H     30  29  28     1.094698240247   107.04053988    35.00590798
 H     31  30  29     1.088554762104   111.52367892   306.76489619
 H     31  30  29     1.086155842455   109.84685839   185.67370937
 H     31  30  29     1.086682629750   109.90549747    66.64953943
 H     37  36  35     1.086137753740   109.15323864     0.32418760
 H     37  36  35     1.089008724162   110.43556567   240.03967388
 H     37  36  35     1.088986891657   110.46537552   120.67069147
 H     39  38  36     1.089010101606   110.41168610   300.24667995
 H     39  38  36     1.086184279531   109.16586557   179.96380238
 H     39  38  36     1.089004426162   110.48046587    59.60592569
 H     45  44  43     1.086016249142   110.03286535   333.32417849
 H     45  44  43     1.095270735024   106.92270720   216.92029860
 H     46  45  44     1.088176006949   111.42793323   304.25293300
 H     46  45  44     1.086241453499   110.04180067   183.24937440
 H     46  45  44     1.087210953035   110.16259503    63.81996283
 H     55  54  53     1.091863254487   110.23926068   316.26249959
 H     55  54  53     1.091567536207   108.61476005   197.29979390
 H     56  55  54     1.087284975386   110.53692417   299.54396221
 H     56  55  54     1.086607376102   110.02842614   179.20233319
 H     56  55  54     1.086844049025   110.25982275    59.21038017
 H     57  53  52     1.085836818956   115.95479407   205.01338388
 H     66  65  59     1.077908867113   122.94380878   357.57061675
 H     71  69  67     1.078340455793   120.76723123   180.11133030

---------------------------
INTERNAL COORDINATES (A.U.)
---------------------------
 C      0   0   0     0.000000000000     0.00000000     0.00000000
 O      1   0   0     2.303196657666     0.00000000     0.00000000
 C      1   2   0     2.793409658597   125.86008029     0.00000000
 C      3   1   2     2.608147153717   128.42735384   359.92483890
 C      4   3   1     2.618776857522   117.58274444   180.18919010
 F      5   4   3     2.530113952947   119.67004551   179.98312243
 C      5   4   3     2.635366029127   120.60203458     0.00000000
 F      7   5   4     2.528251503323   119.36015580   179.98628126
 C      7   5   4     2.622060328812   121.74678049     0.00000000
 C      9   7   5     2.618680559966   118.01598952     0.00000000
 C     10   9   7     2.768164268403   131.52364723   179.92403623
 C     11  10   9     2.592683628650   124.86841080   359.79415037
 C     12  11  10     2.665209268700   125.88151064   180.05418850
 N     13  12  11     2.171822904099   175.63457446   181.98860577
 C     12  11  10     2.666551271452   124.07113468   359.93258207
 N     15  12  11     2.169014169331   176.38265989   181.48450487
 C     11  10   9     2.735511032456   107.36015965   180.14148393
 C     17  11  10     2.603643355280   125.14183757   179.85565614
 C     18  17  11     2.634786261749   131.14895821   181.38896726
 S     19  18  17     3.337503223092   125.00288833     0.80009114
 C     20  19  18     3.253554556312    90.35267267   178.73261177
 C     21  20  19     2.661744151040   112.12033146     0.40524480
 C     22  21  20     2.618966719978   114.03145022   359.56649788
 C     23  22  21     2.821717614850   122.87143473   177.76803527
 C     24  23  22     2.894000653889   110.76180534   264.45443653
 S     22  21  20     3.316684120178   113.56867523   180.05469976
 C     26  22  21     3.264839084292    88.89085669     0.14911608
 C     21  20  19     2.637755125459   136.90258650   180.28429382
 N     28  21  20     2.584814957891   137.43201500     1.70992022
 C     29  28  21     2.729392558649   118.54931621     2.18749053
 C     30  29  28     2.888573888263   111.71287677   276.53627423
 C     29  28  21     2.610949938149   108.10373174   178.96253236
 C     27  26  22     2.643889477757   139.10555185   178.11417610
 C     33  27  26     2.680986995740   128.53815104   357.76513549
 N     34  33  27     2.529225383234   121.04598549     2.37220374
 C     35  34  33     2.487712779819   117.77294327   181.69172551
 C     36  35  34     2.819819753208   117.00966259   180.03356625
 C     36  35  34     2.680747841248   121.26758608     0.12288221
 C     38  36  35     2.819782751329   121.71594200   179.50042704
 N     38  36  35     2.487899421329   121.26449546   359.41233978
 C     40  38  36     2.529261144807   117.75117704     0.39968170
 C     41  40  38     2.681055474595   121.02610439   181.47146076
 C     32  29  28     2.680774681969   134.57434805   178.55684103
 N     43  32  29     2.614404586592   134.51396535   353.07493423
 C     44  43  32     2.728913868053   133.60302466   359.44527094
 C     45  44  43     2.889395858187   111.51942999    98.28161293
 C     44  43  32     2.582855048656   108.02838465   179.20160093
 C     47  44  43     2.645098046709   110.04984410     0.80175573
 S     48  47  44     3.262455796364   113.89688069   180.23808018
 C     49  48  47     3.308123377324    89.15468383   359.71509575
 C     47  44  43     2.633934906688   137.84826539   179.96069021
 S     51  47  44     3.253763748026   136.82893128     0.35377976
 C     52  51  47     3.335689332086    90.80775329   178.13362597
 C     53  52  51     2.635586239336   111.95911177     1.97935249
 C     54  53  52     2.816450901687   124.45107134   182.85038459
 C     55  54  53     2.893432600843   110.31345675    77.29034509
 C     53  52  51     2.654966869677   121.34199167   177.42544291
 C     57  53  52     2.584879125159   128.83992465    18.55956592
 C     58  57  53     2.726896198530   131.65359824    17.77239456
 C     59  58  57     2.591967899065   126.14341794    31.82780815
 C     60  59  58     2.660179554644   124.18889753   178.46579006
 N     61  60  59     2.169942534063   176.51342254   143.46261212
 C     60  59  58     2.665931200225   122.73625658     2.11272975
 N     63  60  59     2.169422804766   176.71444990   118.79411211
 C     59  58  57     2.763425175076   107.18704759   199.25921124
 C     65  59  58     2.616645663789   131.10440641   171.67011910
 C     66  65  59     2.621256503782   117.84368455   178.28009753
 F     67  66  65     2.528593956877   118.98684914   179.16672381
 C     67  66  65     2.636224666011   121.61708842   359.38190648
 F     69  67  66     2.530058637063   119.57938501   180.25496302
 C     69  67  66     2.619605588604   120.79184699     0.43666784
 C     71  69  67     2.608805644322   117.67321743     0.15004818
 C     58  57  53     2.798383490169   119.91135787   204.16030733
 O     73  58  57     2.285594823408   127.39282862   346.00688814
 H      4   3   1     2.037652046494   121.53108143     0.14390847
 H      9   7   5     2.036084400126   118.72367556   179.98047969
 H     18  17  11     2.043131674163   115.62575194     1.03980775
 H     24  23  22     2.061521026152   111.19245658   142.65709468
 H     24  23  22     2.062917866378   108.15472408    23.88226149
 H     25  24  23     2.054837959093   110.79104739   299.04217740
 H     25  24  23     2.052496437567   109.75020743   179.31675991
 H     25  24  23     2.055105905571   110.34926769    59.43051040
 H     30  29  28     2.053063284527   109.82192423   151.45980791
 H     30  29  28     2.068679873352   107.04053988    35.00590798
 H     31  30  29     2.057070382153   111.52367892   306.76489619
 H     31  30  29     2.052537080999   109.84685839   185.67370937
 H     31  30  29     2.053532564717   109.90549747    66.64953943
 H     37  36  35     2.052502898282   109.15323864     0.32418760
 H     37  36  35     2.057928246116   110.43556567   240.03967388
 H     37  36  35     2.057886988661   110.46537552   120.67069147
 H     39  38  36     2.057930849109   110.41168610   300.24667995
 H     39  38  36     2.052590819284   109.16586557   179.96380238
 H     39  38  36     2.057920124074   110.48046587    59.60592569
 H     45  44  43     2.052273287866   110.03286535   333.32417849
 H     45  44  43     2.069761731694   106.92270720   216.92029860
 H     46  45  44     2.056354638638   111.42793323   304.25293300
 H     46  45  44     2.052698862426   110.04180067   183.24937440
 H     46  45  44     2.054530951036   110.16259503    63.81996283
 H     55  54  53     2.063322526673   110.23926068   316.26249959
 H     55  54  53     2.062763700110   108.61476005   197.29979390
 H     56  55  54     2.054670833007   110.53692417   299.54396221
 H     56  55  54     2.053390355932   110.02842614   179.20233319
 H     56  55  54     2.053837602938   110.25982275    59.21038017
 H     57  53  52     2.051934213955   115.95479407   205.01338388
 H     66  65  59     2.036952556168   122.94380878   357.57061675
 H     71  69  67     2.037768140577   120.76723123   180.11133030

---------------------
BASIS SET INFORMATION
---------------------
There are 6 groups of distinct atoms

 Group   1 Type C   : 11s6p2d1f contracted to 5s3p2d1f pattern {62111/411/11/1}
 Group   2 Type O   : 11s6p2d1f contracted to 5s3p2d1f pattern {62111/411/11/1}
 Group   3 Type F   : 11s6p2d1f contracted to 5s3p2d1f pattern {62111/411/11/1}
 Group   4 Type N   : 11s6p2d1f contracted to 5s3p2d1f pattern {62111/411/11/1}
 Group   5 Type S   : 14s9p3d1f contracted to 5s5p2d1f pattern {73211/51111/21/1}
 Group   6 Type H   : 5s1p contracted to 3s1p pattern {311/1}

Atom   0C    basis set group =>   1
Atom   1O    basis set group =>   2
Atom   2C    basis set group =>   1
Atom   3C    basis set group =>   1
Atom   4C    basis set group =>   1
Atom   5F    basis set group =>   3
Atom   6C    basis set group =>   1
Atom   7F    basis set group =>   3
Atom   8C    basis set group =>   1
Atom   9C    basis set group =>   1
Atom  10C    basis set group =>   1
Atom  11C    basis set group =>   1
Atom  12C    basis set group =>   1
Atom  13N    basis set group =>   4
Atom  14C    basis set group =>   1
Atom  15N    basis set group =>   4
Atom  16C    basis set group =>   1
Atom  17C    basis set group =>   1
Atom  18C    basis set group =>   1
Atom  19S    basis set group =>   5
Atom  20C    basis set group =>   1
Atom  21C    basis set group =>   1
Atom  22C    basis set group =>   1
Atom  23C    basis set group =>   1
Atom  24C    basis set group =>   1
Atom  25S    basis set group =>   5
Atom  26C    basis set group =>   1
Atom  27C    basis set group =>   1
Atom  28N    basis set group =>   4
Atom  29C    basis set group =>   1
Atom  30C    basis set group =>   1
Atom  31C    basis set group =>   1
Atom  32C    basis set group =>   1
Atom  33C    basis set group =>   1
Atom  34N    basis set group =>   4
Atom  35C    basis set group =>   1
Atom  36C    basis set group =>   1
Atom  37C    basis set group =>   1
Atom  38C    basis set group =>   1
Atom  39N    basis set group =>   4
Atom  40C    basis set group =>   1
Atom  41C    basis set group =>   1
Atom  42C    basis set group =>   1
Atom  43N    basis set group =>   4
Atom  44C    basis set group =>   1
Atom  45C    basis set group =>   1
Atom  46C    basis set group =>   1
Atom  47C    basis set group =>   1
Atom  48S    basis set group =>   5
Atom  49C    basis set group =>   1
Atom  50C    basis set group =>   1
Atom  51S    basis set group =>   5
Atom  52C    basis set group =>   1
Atom  53C    basis set group =>   1
Atom  54C    basis set group =>   1
Atom  55C    basis set group =>   1
Atom  56C    basis set group =>   1
Atom  57C    basis set group =>   1
Atom  58C    basis set group =>   1
Atom  59C    basis set group =>   1
Atom  60C    basis set group =>   1
Atom  61N    basis set group =>   4
Atom  62C    basis set group =>   1
Atom  63N    basis set group =>   4
Atom  64C    basis set group =>   1
Atom  65C    basis set group =>   1
Atom  66C    basis set group =>   1
Atom  67F    basis set group =>   3
Atom  68C    basis set group =>   1
Atom  69F    basis set group =>   3
Atom  70C    basis set group =>   1
Atom  71C    basis set group =>   1
Atom  72C    basis set group =>   1
Atom  73O    basis set group =>   2
Atom  74H    basis set group =>   6
Atom  75H    basis set group =>   6
Atom  76H    basis set group =>   6
Atom  77H    basis set group =>   6
Atom  78H    basis set group =>   6
Atom  79H    basis set group =>   6
Atom  80H    basis set group =>   6
Atom  81H    basis set group =>   6
Atom  82H    basis set group =>   6
Atom  83H    basis set group =>   6
Atom  84H    basis set group =>   6
Atom  85H    basis set group =>   6
Atom  86H    basis set group =>   6
Atom  87H    basis set group =>   6
Atom  88H    basis set group =>   6
Atom  89H    basis set group =>   6
Atom  90H    basis set group =>   6
Atom  91H    basis set group =>   6
Atom  92H    basis set group =>   6
Atom  93H    basis set group =>   6
Atom  94H    basis set group =>   6
Atom  95H    basis set group =>   6
Atom  96H    basis set group =>   6
Atom  97H    basis set group =>   6
Atom  98H    basis set group =>   6
Atom  99H    basis set group =>   6
Atom 100H    basis set group =>   6
Atom 101H    basis set group =>   6
Atom 102H    basis set group =>   6
Atom 103H    basis set group =>   6
Atom 104H    basis set group =>   6
Atom 105H    basis set group =>   6
---------------------------------
AUXILIARY/J BASIS SET INFORMATION
---------------------------------
There are 6 groups of distinct atoms

 Group   1 Type C   : 12s5p4d2f1g contracted to 6s4p3d1f1g pattern {711111/2111/211/2/1}
 Group   2 Type O   : 12s5p4d2f1g contracted to 6s4p3d1f1g pattern {711111/2111/211/2/1}
 Group   3 Type F   : 12s5p4d2f1g contracted to 6s4p3d1f1g pattern {711111/2111/211/2/1}
 Group   4 Type N   : 12s5p4d2f1g contracted to 6s4p3d1f1g pattern {711111/2111/211/2/1}
 Group   5 Type S   : 14s5p5d2f1g contracted to 8s4p3d1f1g pattern {71111111/2111/311/2/1}
 Group   6 Type H   : 5s2p1d contracted to 3s1p1d pattern {311/2/1}

Atom   0C    basis set group =>   1
Atom   1O    basis set group =>   2
Atom   2C    basis set group =>   1
Atom   3C    basis set group =>   1
Atom   4C    basis set group =>   1
Atom   5F    basis set group =>   3
Atom   6C    basis set group =>   1
Atom   7F    basis set group =>   3
Atom   8C    basis set group =>   1
Atom   9C    basis set group =>   1
Atom  10C    basis set group =>   1
Atom  11C    basis set group =>   1
Atom  12C    basis set group =>   1
Atom  13N    basis set group =>   4
Atom  14C    basis set group =>   1
Atom  15N    basis set group =>   4
Atom  16C    basis set group =>   1
Atom  17C    basis set group =>   1
Atom  18C    basis set group =>   1
Atom  19S    basis set group =>   5
Atom  20C    basis set group =>   1
Atom  21C    basis set group =>   1
Atom  22C    basis set group =>   1
Atom  23C    basis set group =>   1
Atom  24C    basis set group =>   1
Atom  25S    basis set group =>   5
Atom  26C    basis set group =>   1
Atom  27C    basis set group =>   1
Atom  28N    basis set group =>   4
Atom  29C    basis set group =>   1
Atom  30C    basis set group =>   1
Atom  31C    basis set group =>   1
Atom  32C    basis set group =>   1
Atom  33C    basis set group =>   1
Atom  34N    basis set group =>   4
Atom  35C    basis set group =>   1
Atom  36C    basis set group =>   1
Atom  37C    basis set group =>   1
Atom  38C    basis set group =>   1
Atom  39N    basis set group =>   4
Atom  40C    basis set group =>   1
Atom  41C    basis set group =>   1
Atom  42C    basis set group =>   1
Atom  43N    basis set group =>   4
Atom  44C    basis set group =>   1
Atom  45C    basis set group =>   1
Atom  46C    basis set group =>   1
Atom  47C    basis set group =>   1
Atom  48S    basis set group =>   5
Atom  49C    basis set group =>   1
Atom  50C    basis set group =>   1
Atom  51S    basis set group =>   5
Atom  52C    basis set group =>   1
Atom  53C    basis set group =>   1
Atom  54C    basis set group =>   1
Atom  55C    basis set group =>   1
Atom  56C    basis set group =>   1
Atom  57C    basis set group =>   1
Atom  58C    basis set group =>   1
Atom  59C    basis set group =>   1
Atom  60C    basis set group =>   1
Atom  61N    basis set group =>   4
Atom  62C    basis set group =>   1
Atom  63N    basis set group =>   4
Atom  64C    basis set group =>   1
Atom  65C    basis set group =>   1
Atom  66C    basis set group =>   1
Atom  67F    basis set group =>   3
Atom  68C    basis set group =>   1
Atom  69F    basis set group =>   3
Atom  70C    basis set group =>   1
Atom  71C    basis set group =>   1
Atom  72C    basis set group =>   1
Atom  73O    basis set group =>   2
Atom  74H    basis set group =>   6
Atom  75H    basis set group =>   6
Atom  76H    basis set group =>   6
Atom  77H    basis set group =>   6
Atom  78H    basis set group =>   6
Atom  79H    basis set group =>   6
Atom  80H    basis set group =>   6
Atom  81H    basis set group =>   6
Atom  82H    basis set group =>   6
Atom  83H    basis set group =>   6
Atom  84H    basis set group =>   6
Atom  85H    basis set group =>   6
Atom  86H    basis set group =>   6
Atom  87H    basis set group =>   6
Atom  88H    basis set group =>   6
Atom  89H    basis set group =>   6
Atom  90H    basis set group =>   6
Atom  91H    basis set group =>   6
Atom  92H    basis set group =>   6
Atom  93H    basis set group =>   6
Atom  94H    basis set group =>   6
Atom  95H    basis set group =>   6
Atom  96H    basis set group =>   6
Atom  97H    basis set group =>   6
Atom  98H    basis set group =>   6
Atom  99H    basis set group =>   6
Atom 100H    basis set group =>   6
Atom 101H    basis set group =>   6
Atom 102H    basis set group =>   6
Atom 103H    basis set group =>   6
Atom 104H    basis set group =>   6
Atom 105H    basis set group =>   6


           ************************************************************
           *        Program running with 6 parallel MPI-processes     *
           *              working on a common directory               *
           ************************************************************
------------------------------------------------------------------------------
                           ORCA GTO INTEGRAL CALCULATION
                           -- RI-GTO INTEGRALS CHOSEN --
------------------------------------------------------------------------------

                         BASIS SET STATISTICS AND STARTUP INFO

Gaussian basis set:
 # of primitive gaussian shells          ... 1700
 # of primitive gaussian functions       ... 3728
 # of contracted shells                  ...  950
 # of contracted basis functions         ... 2510
 Highest angular momentum                ...    3
 Maximum contraction depth               ...    7
Auxiliary gaussian basis set:
 # of primitive gaussian shells          ... 2044
 # of primitive gaussian functions       ... 5720
 # of contracted shells                  ... 1278
 # of contracted aux-basis functions     ... 3986
 Highest angular momentum                ...    4
 Maximum contraction depth               ...    7
Ratio of auxiliary to basis functions    ...  1.59
Integral package used                  ... LIBINT
 One Electron integrals                  ... done
 Ordering auxiliary basis shells         ... done
 Integral threshhold             Thresh  ...  2.500e-11
 Primitive cut-off               TCut    ...  2.500e-12
 Pre-screening matrix                    ... done
 Shell pair data                         ... 
 Ordering of the shell pairs             ... done (   0.038 sec) 150078 of 451725 pairs
 Determination of significant pairs      ... done (   0.001 sec)
 Creation of shell pair data             ... done (   0.016 sec)
 Storage of shell pair data              ... done (   0.026 sec)
 Shell pair data done in (   0.082 sec)
 Computing two index integrals           ... done
 Cholesky decomposition of the V-matrix  ... done


Timings:
 Total evaluation time                   ...   7.742 sec (  0.129 min)
 One electron matrix time                ...   2.540 sec (  0.042 min) = 32.8%
 Schwartz matrix evaluation time         ...   3.666 sec (  0.061 min) = 47.4%
 Two index repulsion integral time       ...   0.486 sec (  0.008 min) =  6.3%
 Cholesky decomposition of V             ...   0.950 sec (  0.016 min) = 12.3%
 Three index repulsion integral time     ...   0.000 sec (  0.000 min) =  0.0%



           ************************************************************
           *        Program running with 6 parallel MPI-processes     *
           *              working on a common directory               *
           ************************************************************
-------------------------------------------------------------------------------
                                 ORCA SCF
-------------------------------------------------------------------------------

------------
SCF SETTINGS
------------
Hamiltonian:
 Density Functional     Method          .... DFT(GTOs)
 Exchange Functional    Exchange        .... B88
   X-Alpha parameter    XAlpha          ....  0.666667
   Becke's b parameter  XBeta           ....  0.004200
 Correlation Functional Correlation     .... LYP
 LDA part of GGA corr.  LDAOpt          .... VWN-5
 Gradients option       PostSCFGGA      .... off
 Hybrid DFT is turned on
   Fraction HF Exchange ScalHFX         ....  0.200000
   Scaling of DF-GGA-X  ScalDFX         ....  0.720000
   Scaling of DF-GGA-C  ScalDFC         ....  0.810000
   Scaling of DF-LDA-C  ScalLDAC        ....  1.000000
   Perturbative correction              ....  0.000000
   Density functional embedding theory  .... OFF
   NL short-range parameter             ....  4.800000
 RI-approximation to the Coulomb term is turned on
   Number of auxiliary basis functions  .... 3986
   RIJ-COSX (HFX calculated with COS-X)).... on


General Settings:
 Integral files         IntName         .... AQx
 Hartree-Fock type      HFTyp           .... RHF
 Total Charge           Charge          ....    0
 Multiplicity           Mult            ....    1
 Number of Electrons    NEL             ....  540
 Basis Dimension        Dim             .... 2510
 Nuclear Repulsion      ENuc            ....  11629.2021237809 Eh

Convergence Acceleration:
 DIIS                   CNVDIIS         .... on
   Start iteration      DIISMaxIt       ....    12
   Startup error        DIISStart       ....  0.200000
   # of expansion vecs  DIISMaxEq       ....     5
   Bias factor          DIISBfac        ....   1.050
   Max. coefficient     DIISMaxC        ....  10.000
 Newton-Raphson         CNVNR           .... off
 SOSCF                  CNVSOSCF        .... on
   Start iteration      SOSCFMaxIt      ....   150
   Startup grad/error   SOSCFStart      ....  0.003300
 Level Shifting         CNVShift        .... on
   Level shift para.    LevelShift      ....    0.2500
   Turn off err/grad.   ShiftErr        ....    0.0010
 Zerner damping         CNVZerner       .... off
 Static damping         CNVDamp         .... on
   Fraction old density DampFac         ....    0.7000
   Max. Damping (<1)    DampMax         ....    0.9800
   Min. Damping (>=0)   DampMin         ....    0.0000
   Turn off err/grad.   DampErr         ....    0.1000
 Fernandez-Rico         CNVRico         .... off

SCF Procedure:
 Maximum # iterations   MaxIter         ....   125
 SCF integral mode      SCFMode         .... Direct
   Integral package                     .... LIBINT
 Reset frequency        DirectResetFreq ....    20
 Integral Threshold     Thresh          ....  2.500e-11 Eh
 Primitive CutOff       TCut            ....  2.500e-12 Eh

Convergence Tolerance:
 Convergence Check Mode ConvCheckMode   .... Total+1el-Energy
 Convergence forced     ConvForced      .... 1
 Energy Change          TolE            ....  1.000e-08 Eh
 1-El. energy change                    ....  1.000e-05 Eh
 Orbital Gradient       TolG            ....  1.000e-05
 Orbital Rotation angle TolX            ....  1.000e-05
 DIIS Error             TolErr          ....  5.000e-07


Diagonalization of the overlap matrix:
Smallest eigenvalue                        ... 1.324e-06
Time for diagonalization                   ...    1.513 sec
Threshold for overlap eigenvalues          ... 1.000e-08
Number of eigenvalues below threshold      ... 0
Time for construction of square roots      ...    1.207 sec
Total time needed                          ...    2.761 sec

-------------------
DFT GRID GENERATION
-------------------

General Integration Accuracy     IntAcc      ...  4.670
Radial Grid Type                 RadialGrid  ... Gauss-Chebyshev
Angular Grid (max. acc.)         AngularGrid ... Lebedev-302
Angular grid pruning method      GridPruning ... 3 (G Style)
Weight generation scheme         WeightScheme... Becke
Basis function cutoff            BFCut       ...    1.0000e-11
Integration weight cutoff        WCut        ...    1.0000e-14
Grids for H and He will be reduced by one unit

# of grid points (after initial pruning)     ... 571072 (   0.0 sec)
# of grid points (after weights+screening)   ... 485598 (   7.0 sec)
nearest neighbour list constructed           ...    0.0 sec
Grid point re-assignment to atoms done       ...    0.1 sec
Grid point division into batches done        ...    1.7 sec
Reduced shell lists constructed in    3.8 sec

Total number of grid points                  ...   485598
Total number of batches                      ...     7641
Average number of points per batch           ...       63
Average number of grid points per atom       ...     4581
Average number of shells per batch           ...   133.69 (14.07%)
Average number of basis functions per batch  ...   348.29 (13.88%)
Average number of large shells per batch     ...    85.10 (63.65%)
Average number of large basis fcns per batch ...   225.88 (64.85%)
Maximum spatial batch extension              ...  19.49, 17.61, 21.53 au
Average spatial batch extension              ...   0.38,  0.36,  0.41 au

Time for grid setup =   11.500 sec

------------------------------
INITIAL GUESS: MODEL POTENTIAL
------------------------------
Loading Hartree-Fock densities                     ... done
Calculating cut-offs                               ... done
Setting up the integral package                    ... done
Initializing the effective Hamiltonian             ... done
Starting the Coulomb interaction                   ... done (   4.9 sec)
Reading the grid                                   ... done
Mapping shells                                     ... done
Starting the XC term evaluation                    ... done (   4.6 sec)
  promolecular density results
     # of electrons  =    539.985435948
     EX              =   -507.148879449
     EC              =    -19.206311488
     EX+EC           =   -526.355190937
Transforming the Hamiltonian                       ... done (   0.8 sec)
Diagonalizing the Hamiltonian                      ... done (   1.5 sec)
Back transforming the eigenvectors                 ... done (   0.4 sec)
Now organizing SCF variables                       ... done
                      ------------------
                      INITIAL GUESS DONE (  24.3 sec)
                      ------------------
--------------------
COSX GRID GENERATION
--------------------

General Integration Accuracy     IntAcc      ...  3.340
Radial Grid Type                 RadialGrid  ... Gauss-Chebyshev
Angular Grid (max. acc.)         AngularGrid ... Lebedev-50
Angular grid pruning method      GridPruning ... 3 (G Style)
Weight generation scheme         WeightScheme... Becke
Basis function cutoff            BFCut       ...    1.0000e-11
Integration weight cutoff        WCut        ...    1.0000e-14
Grids for H and He will be reduced by one unit

# of grid points (after initial pruning)     ...  53552 (   0.0 sec)
# of grid points (after weights+screening)   ...  47653 (   0.6 sec)
nearest neighbour list constructed           ...    0.0 sec
Grid point re-assignment to atoms done       ...    0.0 sec
Grid point division into batches done        ...    0.0 sec
Reduced shell lists constructed in    0.3 sec

Total number of grid points                  ...    47653
Total number of batches                      ...      811
Average number of points per batch           ...       58
Average number of grid points per atom       ...      450
Average number of shells per batch           ...   162.58 (17.11%)
Average number of basis functions per batch  ...   428.82 (17.08%)
Average number of large shells per batch     ...   104.89 (64.52%)
Average number of large basis fcns per batch ...   282.72 (65.93%)
Maximum spatial batch extension              ...  18.21, 15.66, 22.79 au
Average spatial batch extension              ...   0.75,  0.72,  0.99 au

Overlap Fitting                  UseSFitting ... on
Constructing numerical overlap ... done (      0.5 sec)
Inverting numerical overlap    ... done (      0.3 sec)
Obtaining analytic overlap     ... done (      0.0 sec)
Final contraction and storage  ... done (      0.6 sec)


General Integration Accuracy     IntAcc      ...  3.670
Radial Grid Type                 RadialGrid  ... Gauss-Chebyshev
Angular Grid (max. acc.)         AngularGrid ... Lebedev-50
Angular grid pruning method      GridPruning ... 3 (G Style)
Weight generation scheme         WeightScheme... Becke
Basis function cutoff            BFCut       ...    1.0000e-11
Integration weight cutoff        WCut        ...    1.0000e-14
Grids for H and He will be reduced by one unit

# of grid points (after initial pruning)     ...  66900 (   0.0 sec)
# of grid points (after weights+screening)   ...  59334 (   0.8 sec)
nearest neighbour list constructed           ...    0.0 sec
Grid point re-assignment to atoms done       ...    0.0 sec
Grid point division into batches done        ...    0.0 sec
Reduced shell lists constructed in    0.4 sec

Total number of grid points                  ...    59334
Total number of batches                      ...      982
Average number of points per batch           ...       60
Average number of grid points per atom       ...      560
Average number of shells per batch           ...   159.74 (16.81%)
Average number of basis functions per batch  ...   419.81 (16.73%)
Average number of large shells per batch     ...   102.25 (64.01%)
Average number of large basis fcns per batch ...   274.96 (65.50%)
Maximum spatial batch extension              ...  19.19, 17.55, 23.93 au
Average spatial batch extension              ...   0.72,  0.68,  0.93 au

Overlap Fitting                  UseSFitting ... on
Constructing numerical overlap ... done (      0.6 sec)
Inverting numerical overlap    ... done (      0.3 sec)
Obtaining analytic overlap     ... done (      0.0 sec)
Final contraction and storage  ... done (      0.6 sec)


General Integration Accuracy     IntAcc      ...  4.010
Radial Grid Type                 RadialGrid  ... Gauss-Chebyshev
Angular Grid (max. acc.)         AngularGrid ... Lebedev-110
Angular grid pruning method      GridPruning ... 3 (G Style)
Weight generation scheme         WeightScheme... Becke
Basis function cutoff            BFCut       ...    1.0000e-11
Integration weight cutoff        WCut        ...    1.0000e-14
Grids for H and He will be reduced by one unit

# of grid points (after initial pruning)     ... 130484 (   0.0 sec)
# of grid points (after weights+screening)   ... 114513 (   1.6 sec)
nearest neighbour list constructed           ...    0.0 sec
Grid point re-assignment to atoms done       ...    0.0 sec
Grid point division into batches done        ...    0.1 sec
Reduced shell lists constructed in    0.7 sec

Total number of grid points                  ...   114513
Total number of batches                      ...     1848
Average number of points per batch           ...       61
Average number of grid points per atom       ...     1080
Average number of shells per batch           ...   150.95 (15.89%)
Average number of basis functions per batch  ...   396.44 (15.79%)
Average number of large shells per batch     ...    96.88 (64.18%)
Average number of large basis fcns per batch ...   259.49 (65.45%)
Maximum spatial batch extension              ...  19.99, 17.24, 34.75 au
Average spatial batch extension              ...   0.56,  0.55,  0.70 au

Overlap Fitting                  UseSFitting ... on
Constructing numerical overlap ... done (      0.8 sec)
Inverting numerical overlap    ... done (      0.3 sec)
Obtaining analytic overlap     ... done (      0.0 sec)
Final contraction and storage  ... done (      0.6 sec)

Time for X-Grid setup             =    9.999 sec
--------------
SCF ITERATIONS
--------------
ITER       Energy         Delta-E        Max-DP      RMS-DP      [F,P]     Damp
               ***  Starting incremental Fock matrix formation  ***
  0  -4731.2037483055   0.000000000000 0.23925677  0.00116314  0.2848595 0.7000
  1  -4732.0524377785  -0.848689472950 0.21747070  0.00099726  0.1070845 0.7000
                               ***Turning on DIIS***
  2  -4732.3588067652  -0.306368986681 0.42641529  0.00169103  0.0460997 0.0000
  3  -4732.8779970839  -0.519190318686 0.16252206  0.00075555  0.0572721 0.0000
  4  -4732.9794718619  -0.101474778059 0.04041610  0.00023824  0.0369657 0.0000
  5  -4732.9923244484  -0.012852586475 0.02068777  0.00010946  0.0103056 0.0000
                      *** Initiating the SOSCF procedure ***
                           *** Shutting down DIIS ***
                      *** Re-Reading the Fockian *** 
                      *** Removing any level shift *** 
ITER      Energy       Delta-E        Grad      Rot      Max-DP    RMS-DP
  6  -4732.99324183  -0.0009173833  0.000939  0.000939  0.006783  0.000036
               *** Restarting incremental Fock matrix formation ***
  7  -4732.99335331  -0.0001114765  0.000597  0.007286  0.035850  0.000129
  8  -4732.99337070  -0.0000173899  0.000380  0.003807  0.021642  0.000064
  9  -4732.99338596  -0.0000152597  0.000229  0.003007  0.022586  0.000064
 10  -4732.99339275  -0.0000067959  0.000167  0.001126  0.008102  0.000024
 11  -4732.99339513  -0.0000023719  0.000169  0.001781  0.007135  0.000024
 12  -4732.99339610  -0.0000009739  0.000109  0.000444  0.003668  0.000011
 13  -4732.99339698  -0.0000008784  0.000077  0.000603  0.003843  0.000012
 14  -4732.99339756  -0.0000005849  0.000037  0.000121  0.000873  0.000004
 15  -4732.99339774  -0.0000001739  0.000022  0.000217  0.001876  0.000006
 16  -4732.99339776  -0.0000000246  0.000021  0.000067  0.000751  0.000002
 17  -4732.99339783  -0.0000000734  0.000024  0.000061  0.001187  0.000003
 18  -4732.99339800  -0.0000001673  0.000009  0.000014  0.002589  0.000005
 19  -4732.99339789   0.0000001158  0.000008  0.000044  0.001074  0.000002
 20  -4732.99339786   0.0000000276  0.000003  0.000029  0.001631  0.000003
 21  -4732.99339794  -0.0000000840  0.000004  0.000009  0.000496  0.000001
                  ***Gradient check signals convergence***
              ***Rediagonalizing the Fockian in SOSCF/NRSCF***

               *****************************************************
               *                     SUCCESS                       *
               *           SCF CONVERGED AFTER  22 CYCLES          *
               *****************************************************

Setting up the final grid:

General Integration Accuracy     IntAcc      ...  5.010
Radial Grid Type                 RadialGrid  ... Gauss-Chebyshev
Angular Grid (max. acc.)         AngularGrid ... Lebedev-434
Angular grid pruning method      GridPruning ... 3 (G Style)
Weight generation scheme         WeightScheme... Becke
Basis function cutoff            BFCut       ...    1.0000e-11
Integration weight cutoff        WCut        ...    1.0000e-14
Grids for H and He will be reduced by one unit

# of grid points (after initial pruning)     ... 1009868 (   0.1 sec)
# of grid points (after weights+screening)   ... 855683 (  12.0 sec)
nearest neighbour list constructed           ...    0.0 sec
Grid point re-assignment to atoms done       ...    0.1 sec
Grid point division into batches done        ...    5.5 sec
Reduced shell lists constructed in    8.9 sec

Total number of grid points                  ...   855683
Total number of batches                      ...    13428
Average number of points per batch           ...       63
Average number of grid points per atom       ...     8072
Average number of shells per batch           ...   128.85 (13.56%)
Average number of basis functions per batch  ...   334.69 (13.33%)
Average number of large shells per batch     ...    81.84 (63.52%)
Average number of large basis fcns per batch ...   216.91 (64.81%)
Maximum spatial batch extension              ...  19.93, 16.60, 22.12 au
Average spatial batch extension              ...   0.31,  0.30,  0.32 au

Final grid set up in   22.2 sec
Final integration                            ... done (  10.8 sec)
Change in XC energy                          ...     0.000050585
Integrated number of electrons               ...   539.999966974
Previous integrated no of electrons          ...   540.000540471
Old exchange energy                            =   -102.403412009 Eh
New exchange energy                            =   -102.404883495 Eh
Exchange energy change after final integration =     -0.001471486 Eh
Total energy after final integration           =  -4732.994818909 Eh
Final COS-X integration done in                =   292.363 sec

----------------
TOTAL SCF ENERGY
----------------

Total Energy       :        -4732.99481891 Eh         -128791.33665 eV

Components:
Nuclear Repulsion  :        11629.20212378 Eh          316446.67763 eV
Electronic Energy  :       -16362.19694269 Eh         -445238.01427 eV
One Electron Energy:       -29648.24150180 Eh         -806769.66664 eV
Two Electron Energy:        13286.04455911 Eh          361531.65237 eV

Virial components:
Potential Energy   :        -9451.57093002 Eh         -257190.32031 eV
Kinetic Energy     :         4718.57611112 Eh          128398.98366 eV
Virial Ratio       :            2.00305573


DFT components:
N(Alpha)           :      269.999983487223 electrons
N(Beta)            :      269.999983487223 electrons
N(Total)           :      539.999966974446 electrons
E(X)               :     -407.153079531274 Eh       
E(C)               :      -22.547831395285 Eh       
E(XC)              :     -429.700910926559 Eh       
DFET-embed. en.    :        0.000000000000 Eh       

---------------
SCF CONVERGENCE
---------------

  Last Energy change         ...   -6.5877e-08  Tolerance :   1.0000e-08
  Last MAX-Density change    ...    4.4409e-15  Tolerance :   1.0000e-07
  Last RMS-Density change    ...    1.3090e-17  Tolerance :   5.0000e-09
  Last Orbital Gradient      ...    6.4634e-07  Tolerance :   1.0000e-05
  Last Orbital Rotation      ...    3.7516e-06  Tolerance :   1.0000e-05

             **** THE GBW FILE WAS UPDATED (AQx.gbw) ****
             **** DENSITY FILE WAS UPDATED (AQx.scfp) ****
             **** ENERGY FILE WAS UPDATED (AQx.en.tmp) ****
             **** THE GBW FILE WAS UPDATED (AQx.gbw) ****
             **** DENSITY FILE WAS UPDATED (AQx.scfp) ****
----------------
ORBITAL ENERGIES
----------------

  NO   OCC          E(Eh)            E(eV) 
   0   2.0000     -88.908504     -2419.3234 
   1   2.0000     -88.906847     -2419.2783 
   2   2.0000     -88.903380     -2419.1839 
   3   2.0000     -88.902037     -2419.1474 
   4   2.0000     -24.724169      -672.7788 
   5   2.0000     -24.724146      -672.7782 
   6   2.0000     -24.723928      -672.7723 
   7   2.0000     -24.721989      -672.7195 
   8   2.0000     -19.137582      -520.7601 
   9   2.0000     -19.130298      -520.5619 
  10   2.0000     -14.404731      -391.9727 
  11   2.0000     -14.403626      -391.9426 
  12   2.0000     -14.336000      -390.1024 
  13   2.0000     -14.335794      -390.0968 
  14   2.0000     -14.330603      -389.9555 
  15   2.0000     -14.329827      -389.9344 
  16   2.0000     -14.326191      -389.8355 
  17   2.0000     -14.324915      -389.8007 
  18   2.0000     -10.299740      -280.2702 
  19   2.0000     -10.298667      -280.2410 
  20   2.0000     -10.298273      -280.2302 
  21   2.0000     -10.297626      -280.2126 
  22   2.0000     -10.279723      -279.7255 
  23   2.0000     -10.276234      -279.6305 
  24   2.0000     -10.260226      -279.1949 
  25   2.0000     -10.259513      -279.1755 
  26   2.0000     -10.255077      -279.0548 
  27   2.0000     -10.254041      -279.0266 
  28   2.0000     -10.253709      -279.0176 
  29   2.0000     -10.253099      -279.0010 
  30   2.0000     -10.250535      -278.9312 
  31   2.0000     -10.248475      -278.8752 
  32   2.0000     -10.242077      -278.7011 
  33   2.0000     -10.241487      -278.6850 
  34   2.0000     -10.238971      -278.6166 
  35   2.0000     -10.233116      -278.4572 
  36   2.0000     -10.232990      -278.4538 
  37   2.0000     -10.232564      -278.4422 
  38   2.0000     -10.232422      -278.4383 
  39   2.0000     -10.231957      -278.4257 
  40   2.0000     -10.230138      -278.3762 
  41   2.0000     -10.229865      -278.3688 
  42   2.0000     -10.229627      -278.3623 
  43   2.0000     -10.229121      -278.3485 
  44   2.0000     -10.228504      -278.3317 
  45   2.0000     -10.228247      -278.3248 
  46   2.0000     -10.228176      -278.3228 
  47   2.0000     -10.227982      -278.3175 
  48   2.0000     -10.227079      -278.2930 
  49   2.0000     -10.225621      -278.2533 
  50   2.0000     -10.225514      -278.2504 
  51   2.0000     -10.225068      -278.2382 
  52   2.0000     -10.225067      -278.2382 
  53   2.0000     -10.224253      -278.2161 
  54   2.0000     -10.223978      -278.2086 
  55   2.0000     -10.221864      -278.1511 
  56   2.0000     -10.219688      -278.0918 
  57   2.0000     -10.219636      -278.0904 
  58   2.0000     -10.219267      -278.0804 
  59   2.0000     -10.217513      -278.0327 
  60   2.0000     -10.216038      -277.9925 
  61   2.0000     -10.214742      -277.9573 
  62   2.0000     -10.209942      -277.8267 
  63   2.0000     -10.208947      -277.7996 
  64   2.0000     -10.208893      -277.7981 
  65   2.0000     -10.208261      -277.7809 
  66   2.0000     -10.199740      -277.5490 
  67   2.0000     -10.194888      -277.4170 
  68   2.0000     -10.194641      -277.4103 
  69   2.0000     -10.193916      -277.3906 
  70   2.0000     -10.181238      -277.0456 
  71   2.0000     -10.180945      -277.0376 
  72   2.0000     -10.173385      -276.8319 
  73   2.0000     -10.172959      -276.8203 
  74   2.0000      -7.985422      -217.2944 
  75   2.0000      -7.982194      -217.2065 
  76   2.0000      -7.978845      -217.1154 
  77   2.0000      -7.977168      -217.0698 
  78   2.0000      -5.948096      -161.8559 
  79   2.0000      -5.945168      -161.7763 
  80   2.0000      -5.944365      -161.7544 
  81   2.0000      -5.941842      -161.6857 
  82   2.0000      -5.941484      -161.6760 
  83   2.0000      -5.941379      -161.6731 
  84   2.0000      -5.940146      -161.6396 
  85   2.0000      -5.938065      -161.5830 
  86   2.0000      -5.938014      -161.5816 
  87   2.0000      -5.935869      -161.5232 
  88   2.0000      -5.934575      -161.4880 
  89   2.0000      -5.933187      -161.4502 
  90   2.0000      -1.267390       -34.4874 
  91   2.0000      -1.266214       -34.4554 
  92   2.0000      -1.254041       -34.1242 
  93   2.0000      -1.252845       -34.0916 
  94   2.0000      -1.068518       -29.0759 
  95   2.0000      -1.060931       -28.8694 
  96   2.0000      -1.042822       -28.3766 
  97   2.0000      -1.031575       -28.0706 
  98   2.0000      -1.002069       -27.2677 
  99   2.0000      -0.946199       -25.7474 
 100   2.0000      -0.944770       -25.7085 
 101   2.0000      -0.935613       -25.4593 
 102   2.0000      -0.931733       -25.3537 
 103   2.0000      -0.929508       -25.2932 
 104   2.0000      -0.926952       -25.2236 
 105   2.0000      -0.926144       -25.2017 
 106   2.0000      -0.923907       -25.1408 
 107   2.0000      -0.922500       -25.1025 
 108   2.0000      -0.892012       -24.2729 
 109   2.0000      -0.884867       -24.0784 
 110   2.0000      -0.881209       -23.9789 
 111   2.0000      -0.874995       -23.8098 
 112   2.0000      -0.867448       -23.6045 
 113   2.0000      -0.839337       -22.8395 
 114   2.0000      -0.830014       -22.5858 
 115   2.0000      -0.827334       -22.5129 
 116   2.0000      -0.826601       -22.4930 
 117   2.0000      -0.823562       -22.4103 
 118   2.0000      -0.818856       -22.2822 
 119   2.0000      -0.807581       -21.9754 
 120   2.0000      -0.803142       -21.8546 
 121   2.0000      -0.800313       -21.7776 
 122   2.0000      -0.799057       -21.7435 
 123   2.0000      -0.795438       -21.6450 
 124   2.0000      -0.780004       -21.2250 
 125   2.0000      -0.771307       -20.9883 
 126   2.0000      -0.761286       -20.7156 
 127   2.0000      -0.752844       -20.4859 
 128   2.0000      -0.747919       -20.3519 
 129   2.0000      -0.738035       -20.0830 
 130   2.0000      -0.734874       -19.9969 
 131   2.0000      -0.725781       -19.7495 
 132   2.0000      -0.723614       -19.6905 
 133   2.0000      -0.718699       -19.5568 
 134   2.0000      -0.702074       -19.1044 
 135   2.0000      -0.700657       -19.0658 
 136   2.0000      -0.691479       -18.8161 
 137   2.0000      -0.688347       -18.7309 
 138   2.0000      -0.672971       -18.3125 
 139   2.0000      -0.667380       -18.1603 
 140   2.0000      -0.658808       -17.9271 
 141   2.0000      -0.652243       -17.7484 
 142   2.0000      -0.647515       -17.6198 
 143   2.0000      -0.645892       -17.5756 
 144   2.0000      -0.642264       -17.4769 
 145   2.0000      -0.638756       -17.3814 
 146   2.0000      -0.635108       -17.2822 
 147   2.0000      -0.626578       -17.0501 
 148   2.0000      -0.618727       -16.8364 
 149   2.0000      -0.614540       -16.7225 
 150   2.0000      -0.610064       -16.6007 
 151   2.0000      -0.602038       -16.3823 
 152   2.0000      -0.590320       -16.0634 
 153   2.0000      -0.587506       -15.9868 
 154   2.0000      -0.581876       -15.8336 
 155   2.0000      -0.574810       -15.6414 
 156   2.0000      -0.573401       -15.6030 
 157   2.0000      -0.572814       -15.5870 
 158   2.0000      -0.566537       -15.4163 
 159   2.0000      -0.562404       -15.3038 
 160   2.0000      -0.552705       -15.0399 
 161   2.0000      -0.551647       -15.0111 
 162   2.0000      -0.549909       -14.9638 
 163   2.0000      -0.542314       -14.7571 
 164   2.0000      -0.539143       -14.6708 
 165   2.0000      -0.532510       -14.4903 
 166   2.0000      -0.525059       -14.2876 
 167   2.0000      -0.523451       -14.2438 
 168   2.0000      -0.521971       -14.2036 
 169   2.0000      -0.519468       -14.1355 
 170   2.0000      -0.518375       -14.1057 
 171   2.0000      -0.517003       -14.0684 
 172   2.0000      -0.515995       -14.0409 
 173   2.0000      -0.504253       -13.7214 
 174   2.0000      -0.500727       -13.6255 
 175   2.0000      -0.496434       -13.5087 
 176   2.0000      -0.489279       -13.3140 
 177   2.0000      -0.486682       -13.2433 
 178   2.0000      -0.484426       -13.1819 
 179   2.0000      -0.484305       -13.1786 
 180   2.0000      -0.483219       -13.1490 
 181   2.0000      -0.483161       -13.1475 
 182   2.0000      -0.480989       -13.0884 
 183   2.0000      -0.479518       -13.0483 
 184   2.0000      -0.476796       -12.9743 
 185   2.0000      -0.472778       -12.8649 
 186   2.0000      -0.470575       -12.8050 
 187   2.0000      -0.467692       -12.7266 
 188   2.0000      -0.466312       -12.6890 
 189   2.0000      -0.464639       -12.6435 
 190   2.0000      -0.462457       -12.5841 
 191   2.0000      -0.460838       -12.5400 
 192   2.0000      -0.457846       -12.4586 
 193   2.0000      -0.454992       -12.3810 
 194   2.0000      -0.452644       -12.3171 
 195   2.0000      -0.449048       -12.2192 
 196   2.0000      -0.445340       -12.1183 
 197   2.0000      -0.442801       -12.0492 
 198   2.0000      -0.441279       -12.0078 
 199   2.0000      -0.439135       -11.9495 
 200   2.0000      -0.435700       -11.8560 
 201   2.0000      -0.433008       -11.7827 
 202   2.0000      -0.430257       -11.7079 
 203   2.0000      -0.429423       -11.6852 
 204   2.0000      -0.428998       -11.6736 
 205   2.0000      -0.428485       -11.6597 
 206   2.0000      -0.427269       -11.6266 
 207   2.0000      -0.425682       -11.5834 
 208   2.0000      -0.424191       -11.5428 
 209   2.0000      -0.421435       -11.4678 
 210   2.0000      -0.419131       -11.4051 
 211   2.0000      -0.417251       -11.3540 
 212   2.0000      -0.416657       -11.3378 
 213   2.0000      -0.414473       -11.2784 
 214   2.0000      -0.412935       -11.2365 
 215   2.0000      -0.411230       -11.1901 
 216   2.0000      -0.407869       -11.0987 
 217   2.0000      -0.405103       -11.0234 
 218   2.0000      -0.404736       -11.0134 
 219   2.0000      -0.401265       -10.9190 
 220   2.0000      -0.395984       -10.7753 
[...]
Level Shift                                    ...    0.000e+00
Constructing the preconditioner                ... o.k.
Building the initial guess                     ... o.k.
Number of trial vectors determined             ...     15


                       ****Iteration    0****
                <<< Triplet sigma vectors requested >>>

   Memory handling for direct AO based CIS:
   Memory per vector needed      ...   187 MB
   Memory needed                 ...  1687 MB
   Memory available              ...  6000 MB
   Number of vectors per batch   ...    32
   Number of batches             ...     1
   Time for densities:    21.318
   Time for K (COSX):   395.687
   Time for XC-Integration:    11.642
   Time for Sigma-Completion:   129.558
   Size of expansion space: 9
   Lowest Energy          :     0.048131933780
   Maximum Energy change  :     0.074549078752 (vector 2)
   Maximum residual norm  :     0.000474235507

                       ****Iteration    1****
   Time for densities:     6.596
   Time for K (COSX):   372.098
   Time for XC-Integration:     4.219
   Time for Sigma-Completion:    42.494
   Size of expansion space: 12
   Lowest Energy          :     0.046132509241
   Maximum Energy change  :     0.003396704487 (vector 2)
   Maximum residual norm  :     0.000019491241

                       ****Iteration    2****
   Time for densities:     7.022
   Time for K (COSX):   371.921
   Time for XC-Integration:     4.282
   Time for Sigma-Completion:    43.435
   Size of expansion space: 15
   Lowest Energy          :     0.046057033518
   Maximum Energy change  :     0.000186296024 (vector 2)
   Maximum residual norm  :     0.000003182119
   Rebuilding the expansion space

                       ****Iteration    3****
   Time for densities:    13.198
   Time for K (COSX):   384.353
   Time for XC-Integration:     8.300
   Time for Sigma-Completion:    86.891
   Size of expansion space: 6
   Lowest Energy          :     0.046054361468
   Maximum Energy change  :     0.000022349437 (vector 2)
   Maximum residual norm  :     0.000000631892

                       ****Iteration    4****
   Time for densities:     7.418
   Time for K (COSX):   372.084
   Time for XC-Integration:     4.274
   Time for Sigma-Completion:    43.291
   Size of expansion space: 9
   Lowest Energy          :     0.046054121165
   Maximum Energy change  :     0.000004438654 (vector 2)
   Maximum residual norm  :     0.000000537359

                       ****Iteration    5****
   Time for densities:     7.497
   Time for K (COSX):   376.617
   Time for XC-Integration:     4.295
   Time for Sigma-Completion:    43.313
   Size of expansion space: 12
   Lowest Energy          :     0.046054110912
   Maximum Energy change  :     0.000003554863 (vector 2)
   Maximum residual norm  :     0.000000080535

      *** CONVERGENCE OF RESIDUAL NORM REACHED ***

Storing the converged CI vectors               ... AQx.cis3

                 *** DAVIDSON DONE ***

------------------------------------
TD-DFT/TDA EXCITED STATES (TRIPLETS)
------------------------------------

the weight of the individual excitations are printed if larger than 1.0e-02

STATE  1:  E=   0.046054 au      1.253 eV    10107.7 cm**-1
   267a -> 270a  :     0.016637 (c= -0.12898571)
   267a -> 271a  :     0.047868 (c=  0.21878853)
   269a -> 270a  :     0.906617 (c= -0.95216450)

STATE  2:  E=   0.055418 au      1.508 eV    12162.9 cm**-1
   267a -> 270a  :     0.188626 (c=  0.43431081)
   269a -> 271a  :     0.748069 (c= -0.86491003)
   269a -> 272a  :     0.011400 (c=  0.10676992)
   269a -> 273a  :     0.011559 (c= -0.10751184)

STATE  3:  E=   0.070936 au      1.930 eV    15568.6 cm**-1
   265a -> 270a  :     0.014945 (c= -0.12225051)
   266a -> 270a  :     0.021565 (c=  0.14684997)
   266a -> 271a  :     0.039865 (c= -0.19966126)
   267a -> 270a  :     0.041676 (c= -0.20414617)
   268a -> 270a  :     0.818246 (c= -0.90456962)

------------------------------
TD-DFT/TDA SPIN-ORBIT COUPLING
------------------------------

Calculating the spin-orbit integrals:             

Loading the effective charges         ... done
Entering the SOC calc. section        ... 
------------------------------------------------------------------------------
                         ORCA SPIN-ORBIT COUPLING CALCULATION
------------------------------------------------------------------------------

GBW file                                    ... AQx.gbw
Input density                               ... AQx.cisp0
Output integrals                            ... AQx.cis
Operator type                               ... Mean-field/Effective potential
   One-Electron Terms                       ... 1
   Coulomb Contribution                     ... 2
   Exchange Contribution                    ... 3
   Correlation Contribution                 ... 0
   Maximum number of centers                ... 4
Setting up the integration grid             ... done
Evaluating density on the grid              ... (NumEl=  540.000540) done
Evaluating Coulomb term semi-analytically   ... done
One-Center Exchange (+SOO)                  ... done
Evaluating the spin-orbit operator          ... done
Transforming the SOC integrals              ... done
Constructing the SOC matrix:                ... done
Diagonalizing the SOC matrix:               ... done

      --------------------------------------------------------------------------------
                      CALCULATED SOCME BETWEEN TRIPLETS AND SINGLETS                  
      --------------------------------------------------------------------------------
           Root                          <T|HSO|S>  (Re, Im) cm-1                     
         T      S             Z                     X                     Y           
      --------------------------------------------------------------------------------
         1      0    (   0.00 ,   -0.41 )    (   0.00 ,   -1.10 )    (  -0.00 ,   -0.18 )
         1      1    (   0.00 ,    0.01 )    (   0.00 ,   -0.45 )    (  -0.00 ,    0.02 )
         1      2    (   0.00 ,    0.13 )    (   0.00 ,   -0.59 )    (  -0.00 ,   -0.29 )
         1      3    (   0.00 ,   -0.13 )    (   0.00 ,   -0.15 )    (  -0.00 ,    0.43 )
         2      0    (   0.00 ,    0.33 )    (   0.00 ,    0.88 )    (  -0.00 ,   -0.04 )
         2      1    (   0.00 ,   -0.05 )    (   0.00 ,   -0.17 )    (  -0.00 ,    0.13 )
         2      2    (   0.00 ,   -0.07 )    (   0.00 ,    0.22 )    (  -0.00 ,    0.08 )
         2      3    (   0.00 ,    0.06 )    (   0.00 ,   -0.13 )    (  -0.00 ,   -0.35 )
         3      0    (   0.00 ,    1.03 )    (   0.00 ,    5.05 )    (  -0.00 ,   -1.60 )
         3      1    (   0.00 ,    0.15 )    (   0.00 ,    0.44 )    (  -0.00 ,   -0.56 )
         3      2    (   0.00 ,    0.07 )    (   0.00 ,    0.31 )    (  -0.00 ,   -0.07 )
         3      3    (   0.00 ,   -0.01 )    (   0.00 ,   -0.02 )    (  -0.00 ,    0.25 )

SOC stabilization of the ground state:  -0.0021 cm-1
Eigenvalues of the SOC matrix:

   State:        cm-1         eV
     0:          0.00         0.0000
     1:      10107.71         1.2532
     2:      10107.71         1.2532
     3:      10107.71         1.2532
     4:      12162.88         1.5080
     5:      12162.88         1.5080
     6:      12162.88         1.5080
     7:      14513.43         1.7994
     8:      15568.60         1.9303
     9:      15568.60         1.9303
    10:      15568.60         1.9303
    11:      16731.81         2.0745
    12:      17496.12         2.1692

The threshold for printing is 0.0100
Eigenvectors of the SOC matrix:

             E(cm-1)  Weight      Real         Imag     : Root  Spin  Ms
 STATE  0:      0.00
                      1.00000      0.30279     -0.95306 : 0     0     0
 STATE  1:  10107.71
                      0.82948      0.87240     -0.26152 : 1     1     0
                      0.08526     -0.27513      0.09780 : 1     1    -1
                      0.08526      0.28356     -0.06968 : 1     1     1
 STATE  2:  10107.71
                      0.49955      0.14553      0.69164 : 1     1    -1
                      0.49955     -0.01852      0.70654 : 1     1     1
 STATE  3:  10107.71
                      0.16961     -0.40913     -0.04721 : 1     1     0
                      0.41519     -0.64428      0.01000 : 1     1    -1
                      0.41519      0.62507      0.15648 : 1     1     1
 STATE  4:  12162.88
                      0.07433      0.27262      0.00197 : 2     1     0
                      0.46284     -0.67937      0.03602 : 2     1    -1
                      0.46284      0.67878      0.04583 : 2     1     1
 STATE  5:  12162.88
                      0.91638      0.90292      0.31798 : 2     1     0
                      0.04181      0.20389     -0.01539 : 2     1    -1
                      0.04181     -0.14925     -0.13976 : 2     1     1
 STATE  6:  12162.88
                      0.49536     -0.68659      0.15477 : 2     1    -1
                      0.49536     -0.70306      0.03269 : 2     1     1
 STATE  7:  14513.43
                      1.00000     -0.78697      0.61699 : 1     0     0
 STATE  8:  15568.60
                      0.49855      0.50876      0.48961 : 3     1    -1
                      0.49855      0.70608      0.00000 : 3     1     1
 STATE  9:  15568.60
                      0.95803     -0.97141     -0.11996 : 3     1     0
                      0.02099      0.14051      0.03524 : 3     1    -1
                      0.02099     -0.14487      0.00000 : 3     1     1
 STATE 10:  15568.60
                      0.03908     -0.18254     -0.07588 : 3     1     0
                      0.48046     -0.48888     -0.49138 : 3     1    -1
                      0.48046      0.69315      0.00000 : 3     1     1
 STATE 11:  16731.81
                      1.00000      0.22255     -0.97492 : 2     0     0
 STATE 12:  17496.12
                      1.00000     -0.99672      0.08089 : 3     0     0

-----------------------------
TD-DFT/TDA-EXCITATION SPECTRA
-----------------------------

Center of mass = ( 19.6765, -8.0663, -0.1307)
Calculating the Dipole integrals                  ... done
Transforming integrals                            ... done
Calculating the Linear Momentum integrals         ... done
Transforming integrals                            ... done
Calculating angular momentum integrals            ... done
Transforming integrals                            ... done

-----------------------------------------------------------------------------
         ABSORPTION SPECTRUM VIA TRANSITION ELECTRIC DIPOLE MOMENTS
-----------------------------------------------------------------------------
State   Energy    Wavelength  fosc         T2        TX        TY        TZ  
        (cm-1)      (nm)                 (au**2)    (au)      (au)      (au) 
-----------------------------------------------------------------------------
   1   14513.4    689.0   1.735008097  39.35564  -3.58908   5.14528   0.01509
   2   16731.8    597.7   0.320142140   6.29906  -0.06653  -2.36885  -0.82654
   3   17496.1    571.6   0.034506378   0.64928   0.76098  -0.24113   0.10974
   4   10107.7    989.3   spin forbidden (mult=3)
   5   12162.9    822.2   spin forbidden (mult=3)
   6   15568.6    642.3   spin forbidden (mult=3)

-----------------------------------------------------------------------------
         ABSORPTION SPECTRUM VIA TRANSITION VELOCITY DIPOLE MOMENTS
-----------------------------------------------------------------------------
State   Energy    Wavelength   fosc        P2         PX        PY        PZ  
        (cm-1)      (nm)                 (au**2)     (au)      (au)      (au) 
-----------------------------------------------------------------------------
   1   14513.4    689.0   0.255545489   0.02535   0.07859  -0.13523  -0.02974
   2   16731.8    597.7   0.014471052   0.00165  -0.02310   0.02980  -0.01528
   3   17496.1    571.6   0.114449980   0.01369   0.08193   0.07717   0.03191
   4   10107.7    989.3   spin forbidden (mult=3)
   5   12162.9    822.2   spin forbidden (mult=3)
   6   15568.6    642.3   spin forbidden (mult=3)

-------------------------------------------------------------------
                             CD SPECTRUM
-------------------------------------------------------------------
State  Energy     Wavelength     R         MX        MY        MZ   
       (cm-1)       (nm)     (1e40*cgs)   (au)      (au)      (au)  
-------------------------------------------------------------------
   1   14513.4    689.0    190.57330   0.33517   0.31564  -1.11760
   2   16731.8    597.7     13.55672  -0.19215  -0.17834   0.49181
   3   17496.1    571.6    -16.13648  -0.02701   0.01344  -0.09505
   4   10107.7    989.3 spin forbidden
   5   12162.9    822.2 spin forbidden
   6   15568.6    642.3 spin forbidden

-------------------------------------------
SOC CORRECTED TD-DFT/TDA-EXCITATION SPECTRA
--------------------------------------------

-----------------------------------------------------------------------------
  SOC CORRECTED ABSORPTION SPECTRUM VIA TRANSITION ELECTRIC DIPOLE MOMENTS*  
-----------------------------------------------------------------------------
State   Energy  Wavelength   fosc         T2         TX        TY        TZ  
        (cm-1)    (nm)                  (au**2)     (au)      (au)      (au) 
-----------------------------------------------------------------------------
   1   10107.7    989.3   0.000000000   0.00000   0.00006   0.00004   0.00004
   2   10107.7    989.3   0.000000001   0.00000   0.00015   0.00011   0.00003
   3   10107.7    989.3   0.000000020   0.00000   0.00051   0.00062   0.00002
   4   12162.9    822.2   0.000000023   0.00000   0.00055   0.00057   0.00006
   5   12162.9    822.2   0.000000008   0.00000   0.00035   0.00029   0.00006
   6   12162.9    822.2   0.000000006   0.00000   0.00032   0.00022   0.00006
   7   14513.4    689.0   1.735006831  39.35561   3.58907   5.14528   0.01509
   8   15568.6    642.3   0.000000141   0.00000   0.00089   0.00148   0.00004
   9   15568.6    642.3   0.000000004   0.00000   0.00016   0.00026   0.00001
  10   15568.6    642.3   0.000001466   0.00003   0.00396   0.00389   0.00041
  11   16731.8    597.7   0.320141855   6.29905   0.06653   2.36885   0.82654
  12   17496.1    571.6   0.034506384   0.64928   0.76098   0.24113   0.10974

-----------------------------------------------------------------------------
  SOC CORRECTED ABSORPTION SPECTRUM VIA TRANSITION VELOCITY DIPOLE MOMENTS*  
-----------------------------------------------------------------------------
State   Energy  Wavelength   fosc         P2         PX        PY        PZ  
        (cm-1)    (nm)                  (au**2)     (au)      (au)      (au) 
-----------------------------------------------------------------------------
   1   10107.7    989.3   0.000000001   0.00000   0.00000   0.00001   0.00000
   2   10107.7    989.3   0.000000002   0.00000   0.00001   0.00001   0.00000
   3   10107.7    989.3   0.000000012   0.00000   0.00002   0.00002   0.00000
   4   12162.9    822.2   0.000000003   0.00000   0.00001   0.00001   0.00000
   5   12162.9    822.2   0.000000001   0.00000   0.00000   0.00001   0.00000
   6   12162.9    822.2   0.000000002   0.00000   0.00000   0.00001   0.00000
   7   14513.4    689.0   0.255545281   0.02535   0.07859   0.13523   0.02974
   8   15568.6    642.3   0.000000020   0.00000   0.00003   0.00003   0.00001
   9   15568.6    642.3   0.000000001   0.00000   0.00000   0.00001   0.00000
  10   15568.6    642.3   0.000000113   0.00000   0.00006   0.00009   0.00001
  11   16731.8    597.7   0.014471038   0.00165   0.02310   0.02980   0.01528
  12   17496.1    571.6   0.114449949   0.01369   0.08193   0.07717   0.03191

-------------------------------------------------------------------
                    SOC CORRECTED CD SPECTRUM*                     
-------------------------------------------------------------------
State   Energy Wavelength       R         MX        MY        MZ   
        (cm-1)   (nm)       (1e40*sgs)   (au)      (au)      (au)  
-------------------------------------------------------------------
   1   10107.7    989.3      0.00000   0.00000   0.00000   0.00000
   2   10107.7    989.3      0.00000   0.00001   0.00001   0.00001
   3   10107.7    989.3      0.00000   0.00001   0.00001   0.00000
   4   12162.9    822.2      0.00000   0.00003   0.00003   0.00011
   5   12162.9    822.2      0.00000   0.00001   0.00001   0.00005
   6   12162.9    822.2      0.00000   0.00002   0.00001   0.00006
   7   14513.4    689.0    190.57315   0.33517   0.31564   1.11760
   8   15568.6    642.3      0.00002   0.00010   0.00010   0.00037
   9   15568.6    642.3      0.00000   0.00002   0.00001   0.00005
  10   15568.6    642.3      0.00012   0.00026   0.00024   0.00080
  11   16731.8    597.7     13.55669   0.19215   0.17834   0.49181
  12   17496.1    571.6     16.13648   0.02701   0.01344   0.09505

*The X,Y and Z components are the absolute values of the complex numbers

Total run time:     8101.814 sec

           *** ORCA-CIS/TD-DFT FINISHED WITHOUT ERROR ***

---------------------------
SOC CIS/TD-DFT TOTAL ENERGY
---------------------------

    E(SCF)        =  -4732.994818909 Eh
    E(SOC CIS)    =      0.046054110 Eh (SOC Root  1)
    ----------------------------- ---------
    E(tot)        =  -4732.948764800 Eh


-------------------------   --------------------
FINAL SINGLE POINT ENERGY     -4732.948764799514
-------------------------   --------------------


                            ***************************************
                            *     ORCA property calculations      *
                            ***************************************

                                    ---------------------
                                    Active property flags
                                    ---------------------
   (+) Dipole Moment


------------------------------------------------------------------------------
                       ORCA ELECTRIC PROPERTIES CALCULATION
------------------------------------------------------------------------------

Dipole Moment Calculation                       ... on
Quadrupole Moment Calculation                   ... off
Polarizability Calculation                      ... off
GBWName                                         ... AQx.gbw
Electron density file                           ... AQx.scfp
The origin for moment calculation is the CENTER OF MASS  = (19.676450, -8.066302 -0.130676)

-------------
DIPOLE MOMENT
-------------
                                X             Y             Z
Electronic contribution:     59.91670      40.75553      28.21904
Nuclear contribution   :    -60.31050     -43.16268     -30.49310
                        -----------------------------------------
Total Dipole Moment    :     -0.39380      -2.40715      -2.27407
                        -----------------------------------------
Magnitude (a.u.)       :      3.33479
Magnitude (Debye)      :      8.47637



--------------------
Rotational spectrum 
--------------------
 
Rotational constants in cm-1:     0.001089     0.000336     0.000262 
Rotational constants in MHz :    32.661377    10.062791     7.849287 

 Dipole components along the rotational axes: 
x,y,z [a.u.] :     2.072670    -2.191635    -1.421833 
x,y,z [Debye]:     5.268308    -5.570693    -3.614012 

 

Timings for individual modules:

Sum of individual times         ...    11577.276 sec (= 192.955 min)
GTO integral calculation        ...        9.984 sec (=   0.166 min)   0.1 %
SCF iterations                  ...     3462.664 sec (=  57.711 min)  29.9 %
CIS module                      ...     8104.628 sec (= 135.077 min)  70.0 %
                             ****ORCA TERMINATED NORMALLY****
TOTAL RUN TIME: 0 days 3 hours 13 minutes 1 seconds 912 msec
