
                                 *****************
                                 * O   R   C   A *
                                 *****************

           --- An Ab Initio, DFT and Semiempirical electronic structure package ---

                  #######################################################
                  #                        -***-                        #
                  #          Department of theory and spectroscopy      #
                  #               Directorship: Frank Neese             #
                  #        Max Planck Institute fuer Kohlenforschung    #
                  #                Kaiser Wilhelm Platz 1               #
                  #                 D-45470 Muelheim/Ruhr               #
                  #                      Germany                        #
                  #                                                     #
                  #                  All rights reserved                #
                  #                        -***-                        #
                  #######################################################


                         Program Version 4.2.0 -  RELEASE  -


 With contributions from (in alphabetic order):
   Daniel Aravena         : Magnetic Suceptibility
   Michael Atanasov       : Ab Initio Ligand Field Theory (pilot matlab implementation)
   Alexander A. Auer      : GIAO ZORA, VPT2
   Ute Becker             : Parallelization
   Giovanni Bistoni       : ED, misc. LED, open-shell LED, HFLED
   Martin Brehm           : Molecular dynamics
   Dmytro Bykov           : SCF Hessian
   Vijay G. Chilkuri      : MRCI spin determinant printing, contributions to CSF-ICE
   Dipayan Datta          : RHF DLPNO-CCSD density
   Achintya Kumar Dutta   : EOM-CC, STEOM-CC
   Dmitry Ganyushin       : Spin-Orbit,Spin-Spin,Magnetic field MRCI
   Miquel Garcia          : C-PCM Hessian, Gaussian charge scheme
   Yang Guo               : DLPNO-NEVPT2, CIM, IAO-localization
   Andreas Hansen         : Spin unrestricted coupled pair/coupled cluster methods
   Benjamin Helmich-Paris : CASSCF linear response (MC-RPA)
   Lee Huntington         : MR-EOM, pCC
   Robert Izsak           : Overlap fitted RIJCOSX, COSX-SCS-MP3, EOM
   Christian Kollmar      : KDIIS, OOCD, Brueckner-CCSD(T), CCSD density
   Simone Kossmann        : Meta GGA functionals, TD-DFT gradient, OOMP2, MP2 Hessian
   Martin Krupicka        : AUTO-CI
   Lucas Lang             : DCDCAS
   Dagmar Lenk            : GEPOL surface, SMD
   Dimitrios Liakos       : Extrapolation schemes; Compound Job, initial MDCI parallelization
   Dimitrios Manganas     : Further ROCIS development; embedding schemes
   Dimitrios Pantazis     : SARC Basis sets
   Taras Petrenko         : DFT Hessian,TD-DFT gradient, ASA, ECA, R-Raman, ABS, FL, XAS/XES, NRVS
   Peter Pinski           : DLPNO-MP2, DLPNO-MP2 Gradient
   Christoph Reimann      : Effective Core Potentials
   Marius Retegan         : Local ZFS, SOC
   Christoph Riplinger    : Optimizer, TS searches, QM/MM, DLPNO-CCSD(T), (RO)-DLPNO pert. Triples
   Tobias Risthaus        : Range-separated hybrids, TD-DFT gradient, RPA, STAB
   Michael Roemelt        : Original ROCIS implementation
   Masaaki Saitow         : Open-shell DLPNO-CCSD energy and density
   Barbara Sandhoefer     : DKH picture change effects
   Avijit Sen             : IP-ROCIS
   Kantharuban Sivalingam : CASSCF convergence, NEVPT2, FIC-MRCI
   Bernardo de Souza      : ESD, SOC TD-DFT
   Georgi Stoychev        : AutoAux, RI-MP2 NMR
   Willem Van den Heuvel  : Paramagnetic NMR
   Boris Wezisla          : Elementary symmetry handling
   Frank Wennmohs         : Technical directorship


 We gratefully acknowledge several colleagues who have allowed us to
 interface, adapt or use parts of their codes:
   Stefan Grimme, W. Hujo, H. Kruse,             : VdW corrections, initial TS optimization,
                  C. Bannwarth                     DFT functionals, gCP, sTDA/sTD-DF
   Ed Valeev, F. Pavosevic, A. Kumar             : LibInt (2-el integral package), F12 methods
   Garnet Chan, S. Sharma, J. Yang, R. Olivares  : DMRG
   Ulf Ekstrom                                   : XCFun DFT Library
   Mihaly Kallay                                 : mrcc  (arbitrary order and MRCC methods)
   Andreas Klamt, Michael Diedenhofen            : otool_cosmo (COSMO solvation model)
   Jiri Pittner, Ondrej Demel                    : Mk-CCSD
   Frank Weinhold                                : gennbo (NPA and NBO analysis)
   Christopher J. Cramer and Donald G. Truhlar   : smd solvation model
   Lars Goerigk                                  : TD-DFT with DH, B97 family of functionals
   V. Asgeirsson, H. Jonsson                     : NEB implementation
   FAccTs GmbH                                   : IRC, NEB, NEB-TS, Multilevel, MM, QM/MM, CI optimization
   S Lehtola, MJT Oliveira, MAL Marques          : LibXC Library


 Your calculation uses the libint2 library for the computation of 2-el integrals
 For citations please refer to: http://libint.valeyev.net

 Your ORCA version has been built with support for libXC version: 4.2.3
 For citations please refer to: https://tddft.org/programs/libxc/

 This ORCA versions uses:
   CBLAS   interface :  Fast vector & matrix operations
   LAPACKE interface :  Fast linear algebra routines
   SCALAPACK package :  Parallel linear algebra routines


----- Orbital basis set information -----
Your calculation utilizes the basis: def2-TZVP
   F. Weigend and R. Ahlrichs, Phys. Chem. Chem. Phys. 7, 3297 (2005).

----- AuxJ basis set information -----
Your calculation utilizes the auxiliary basis: def2/J
   F. Weigend, Phys. Chem. Chem. Phys. 8, 1057 (2006).

================================================================================
                                        WARNINGS
                       Please study these warnings very carefully!
================================================================================

INFO   : Checking CIS options ...

WARNING: (CIS/TDDFT): Spin-orbit needs TRIPLETS set to TRUE
  ===> : ajusting flags

WARNING: CIS/ROCIS methods need fully converged wavefunctions
  ===> : Setting SCFConvForced true
         You can overwrite this default with %scf ConvForced false 


INFO   : the flag for use of LIBINT has been found!

================================================================================
                                       INPUT FILE
================================================================================
NAME = BCDT-4F.inp
|  1> # ORCA input file
|  2> # BCDT-4F.out
|  3> ! B3LYP def2-TZVP def2/J RIJCOSX Grid4 TightSCF
|  4> 
|  5> %maxcore 2000
|  6> %tddft
|  7>   maxdim 5
|  8>   nroots 3
|  9>   dosoc true
| 10>   end
| 11> 
| 12> 
| 13> 
| 14> * xyz 0 1
| 15>    C        2.16853        -1.00581        -3.20400
| 16>    O        1.29800        -1.60117        -2.61176
| 17>    C        2.44873        -1.02692        -4.65940
| 18>    C        1.83193        -1.76842        -5.64674
| 19>    C        2.30402        -1.63288        -6.94307
| 20>    C        3.36563        -0.77467        -7.22801
| 21>    C        3.97853        -0.02055        -6.23768
| 22>    C        3.51084        -0.15054        -4.94067
| 23>    C        3.91303         0.51526        -3.69822
| 24>    C        4.61477         1.69462        -3.64067
| 25>    C        4.75340         2.47706        -2.47802
| 26>    N        4.87460         3.17320        -1.57294
| 27>    C        5.22152         2.30709        -4.75522
| 28>    N        5.76460         2.83498        -5.61802
| 29>    C        3.21795        -0.13767        -2.61913
| 30>    F        3.81116        -0.67535        -8.48602
| 31>    C        3.38626        -0.14006        -1.25735
| 32>    F        1.73792        -2.33643        -7.93161
| 33>    C       13.17198         4.42827        18.93658
| 34>    O       12.30804         5.19231        19.30202
| 35>    C       14.45298         4.12071        19.61835
| 36>    C       14.97205         4.67148        20.77242
| 37>    C       16.21802         4.23125        21.19190
| 38>    C       16.91360         3.26466        20.46662
| 39>    C       16.38716         2.70150        19.31297
| 40>    C       15.14334         3.13758        18.88881
| 41>    C       14.31247         2.72710        17.75423
| 42>    C       14.44931         1.54175        17.07267
| 43>    C       13.46416         1.02861        16.20874
| 44>    N       12.66931         0.55147        15.53082
| 45>    C       15.54315         0.66715        17.21739
| 46>    N       16.42820        -0.06297        17.26771
| 47>    C       13.19969         3.63665        17.68522
| 48>    F       18.12120         2.86918        20.88745
| 49>    C       12.27805         3.91295        16.70507
| 50>    F       16.76137         4.74249        22.30413
| 51>    C       12.32399         3.64341        15.33228
| 52>    S       10.85359         3.83965        14.38285
| 53>    C       11.69788         3.41703        12.96349
| 54>    C       13.06698         3.18316        13.19145
| 55>    C       13.40871         3.29326        14.52081
| 56>    C       11.41119         3.19671        11.60287
| 57>    C       12.58990         2.82288        10.95068
| 58>    C       13.76493         2.82658        11.90071
| 59>    S       10.04999         3.20592        10.55476
| 60>    C       11.07176         2.72183         9.21769
| 61>    C       12.39605         2.55777         9.60580
| 62>    C       10.48617         2.53048         7.92590
| 63>    C       11.21142         2.28787         6.74851
| 64>    C       10.56739         2.02315         5.51200
| 65>    C        9.18163         2.07924         5.34907
| 66>    C        8.43579         2.37222         6.51837
| 67>    C        9.07691         2.57900         7.78126
| 68>    N        7.11290         2.47090         6.60756
| 69>    S        6.70956         2.79561         8.12965
| 70>    N        8.19502         2.82293         8.74720
| 71>    C        8.50397         1.82021         4.11424
| 72>    S        6.78321         1.50709         4.12979
| 73>    C        6.81648         1.25272         2.43269
| 74>    C        8.08586         1.44855         1.87682
| 75>    C        9.03788         1.76183         2.83397
| 76>    C        5.92553         0.86656         1.41200
| 77>    C        6.62602         0.79942         0.19648
| 78>    C        8.06654         1.21395         0.38601
| 79>    S        4.27810         0.45840         1.24611
| 80>    C        4.49180         0.24626        -0.48948
| 81>    C        5.82086         0.45833        -0.86748
| 82>    O       12.56627         2.25749         6.83254
| 83>    O       11.35926         1.64499         4.44566
| 84>    C       13.35050         2.89630         5.82487
| 85>    C       14.46178         3.67383         6.51739
| 86>    C       11.64273         0.24697         4.42724
| 87>    C       12.39058        -0.07499         3.14545
| 88>    C        9.05535         0.11691        -0.03741
| 89>    C        8.82707        -1.19792         0.69924
| 90>    C        8.28311         2.51819        -0.41580
| 91>    C        9.58599         3.24636        -0.11632
| 92>    C       14.45098         1.45312        11.97308
| 93>    C       13.47398         0.32094        12.26651
| 94>    C       14.74200         3.93384        11.44527
| 95>    C       15.89913         4.20377        12.39747
| 96>    H        1.01110        -2.43127        -5.42423
| 97>    H        4.79628         0.62792        -6.50687
| 98>    H        2.55442        -0.57224        -0.70878
| 99>    H       14.43281         5.41807        21.33315
|100>    H       16.96134         1.95737        18.78533
|101>    H       11.42888         4.49777        17.04589
|102>    H       14.40134         3.16784        14.91393
|103>    H       13.15987         2.23609         8.92604
|104>    H       10.07683         1.94925         2.64092
|105>    H        6.16587         0.31159        -1.87518
|106>    H       12.72827         3.56882         5.22844
|107>    H       13.77970         2.13592         5.16358
|108>    H       14.03973         4.42011         7.18606
|109>    H       15.07680         4.17060         5.77253
|110>    H       15.08646         2.99899         7.09668
|111>    H       10.70077        -0.31708         4.47387
|112>    H       12.24662        -0.01944         5.30564
|113>    H       11.76147         0.12334         2.28223
|114>    H       12.67253        -1.12387         3.14314
|115>    H       13.28670         0.53529         3.07035
|116>    H       10.07027         0.46516         0.15775
|117>    H        8.95499        -0.04472        -1.11245
|118>    H        8.94493        -1.06405         1.77220
|119>    H        9.54517        -1.94295         0.36500
|120>    H        7.82567        -1.57787         0.51004
|121>    H        7.44521         3.18704        -0.20767
|122>    H        8.24241         2.26624        -1.47762
|123>    H        9.62088         3.56675         0.92119
|124>    H        9.65427         4.12972        -0.74655
|125>    H       10.45009         2.61959        -0.32128
|126>    H       15.20976         1.47713        12.75606
|127>    H       14.95039         1.26820        11.01946
|128>    H       12.98993         0.46616        13.22953
|129>    H       14.00620        -0.62672        12.29561
|130>    H       12.70733         0.26128        11.49754
|131>    H       14.17017         4.85606        11.31394
|132>    H       15.13601         3.64626        10.46825
|133>    H       15.53527         4.55664        13.35855
|134>    H       16.54101         4.97447        11.97662
|135>    H       16.50060         3.31260        12.55341
|136> *
|137> 
|138>                          ****END OF INPUT****
================================================================================

                       ****************************
                       * Single Point Calculation *
                       ****************************

---------------------------------
CARTESIAN COORDINATES (ANGSTROEM)
---------------------------------
  C      2.168530   -1.005810   -3.204000
  O      1.298000   -1.601170   -2.611760
  C      2.448730   -1.026920   -4.659400
  C      1.831930   -1.768420   -5.646740
  C      2.304020   -1.632880   -6.943070
  C      3.365630   -0.774670   -7.228010
  C      3.978530   -0.020550   -6.237680
  C      3.510840   -0.150540   -4.940670
  C      3.913030    0.515260   -3.698220
  C      4.614770    1.694620   -3.640670
  C      4.753400    2.477060   -2.478020
  N      4.874600    3.173200   -1.572940
  C      5.221520    2.307090   -4.755220
  N      5.764600    2.834980   -5.618020
  C      3.217950   -0.137670   -2.619130
  F      3.811160   -0.675350   -8.486020
  C      3.386260   -0.140060   -1.257350
  F      1.737920   -2.336430   -7.931610
  C     13.171980    4.428270   18.936580
  O     12.308040    5.192310   19.302020
  C     14.452980    4.120710   19.618350
  C     14.972050    4.671480   20.772420
  C     16.218020    4.231250   21.191900
  C     16.913600    3.264660   20.466620
  C     16.387160    2.701500   19.312970
  C     15.143340    3.137580   18.888810
  C     14.312470    2.727100   17.754230
  C     14.449310    1.541750   17.072670
  C     13.464160    1.028610   16.208740
  N     12.669310    0.551470   15.530820
  C     15.543150    0.667150   17.217390
  N     16.428200   -0.062970   17.267710
  C     13.199690    3.636650   17.685220
  F     18.121200    2.869180   20.887450
  C     12.278050    3.912950   16.705070
  F     16.761370    4.742490   22.304130
  C     12.323990    3.643410   15.332280
  S     10.853590    3.839650   14.382850
  C     11.697880    3.417030   12.963490
  C     13.066980    3.183160   13.191450
  C     13.408710    3.293260   14.520810
  C     11.411190    3.196710   11.602870
  C     12.589900    2.822880   10.950680
  C     13.764930    2.826580   11.900710
  S     10.049990    3.205920   10.554760
  C     11.071760    2.721830    9.217690
  C     12.396050    2.557770    9.605800
  C     10.486170    2.530480    7.925900
  C     11.211420    2.287870    6.748510
  C     10.567390    2.023150    5.512000
  C      9.181630    2.079240    5.349070
  C      8.435790    2.372220    6.518370
  C      9.076910    2.579000    7.781260
  N      7.112900    2.470900    6.607560
  S      6.709560    2.795610    8.129650
  N      8.195020    2.822930    8.747200
  C      8.503970    1.820210    4.114240
  S      6.783210    1.507090    4.129790
  C      6.816480    1.252720    2.432690
  C      8.085860    1.448550    1.876820
  C      9.037880    1.761830    2.833970
  C      5.925530    0.866560    1.412000
  C      6.626020    0.799420    0.196480
  C      8.066540    1.213950    0.386010
  S      4.278100    0.458400    1.246110
  C      4.491800    0.246260   -0.489480
  C      5.820860    0.458330   -0.867480
  O     12.566270    2.257490    6.832540
  O     11.359260    1.644990    4.445660
  C     13.350500    2.896300    5.824870
  C     14.461780    3.673830    6.517390
  C     11.642730    0.246970    4.427240
  C     12.390580   -0.074990    3.145450
  C      9.055350    0.116910   -0.037410
  C      8.827070   -1.197920    0.699240
  C      8.283110    2.518190   -0.415800
  C      9.585990    3.246360   -0.116320
  C     14.450980    1.453120   11.973080
  C     13.473980    0.320940   12.266510
  C     14.742000    3.933840   11.445270
  C     15.899130    4.203770   12.397470
  H      1.011100   -2.431270   -5.424230
  H      4.796280    0.627920   -6.506870
  H      2.554420   -0.572240   -0.708780
  H     14.432810    5.418070   21.333150
  H     16.961340    1.957370   18.785330
  H     11.428880    4.497770   17.045890
  H     14.401340    3.167840   14.913930
  H     13.159870    2.236090    8.926040
  H     10.076830    1.949250    2.640920
  H      6.165870    0.311590   -1.875180
  H     12.728270    3.568820    5.228440
  H     13.779700    2.135920    5.163580
  H     14.039730    4.420110    7.186060
  H     15.076800    4.170600    5.772530
  H     15.086460    2.998990    7.096680
  H     10.700770   -0.317080    4.473870
  H     12.246620   -0.019440    5.305640
  H     11.761470    0.123340    2.282230
  H     12.672530   -1.123870    3.143140
  H     13.286700    0.535290    3.070350
  H     10.070270    0.465160    0.157750
  H      8.954990   -0.044720   -1.112450
  H      8.944930   -1.064050    1.772200
  H      9.545170   -1.942950    0.365000
  H      7.825670   -1.577870    0.510040
  H      7.445210    3.187040   -0.207670
  H      8.242410    2.266240   -1.477620
  H      9.620880    3.566750    0.921190
  H      9.654270    4.129720   -0.746550
  H     10.450090    2.619590   -0.321280
  H     15.209760    1.477130   12.756060
  H     14.950390    1.268200   11.019460
  H     12.989930    0.466160   13.229530
  H     14.006200   -0.626720   12.295610
  H     12.707330    0.261280   11.497540
  H     14.170170    4.856060   11.313940
  H     15.136010    3.646260   10.468250
  H     15.535270    4.556640   13.358550
  H     16.541010    4.974470   11.976620
  H     16.500600    3.312600   12.553410

----------------------------
CARTESIAN COORDINATES (A.U.)
----------------------------
  NO LB      ZA    FRAG     MASS         X           Y           Z
   0 C     6.0000    0    12.011    4.097928   -1.900705   -6.054683
   1 O     8.0000    0    15.999    2.452865   -3.025773   -4.935511
   2 C     6.0000    0    12.011    4.627429   -1.940598   -8.804990
   3 C     6.0000    0    12.011    3.461846   -3.341829  -10.670792
   4 C     6.0000    0    12.011    4.353967   -3.085696  -13.120501
   5 C     6.0000    0    12.011    6.360119   -1.463914  -13.658959
   6 C     6.0000    0    12.011    7.518332   -0.038834  -11.787507
   7 C     6.0000    0    12.011    6.634526   -0.284479   -9.336513
   8 C     6.0000    0    12.011    7.394555    0.973700   -6.988623
   9 C     6.0000    0    12.011    8.720651    3.202368   -6.879869
  10 C     6.0000    0    12.011    8.982624    4.680965   -4.682779
  11 N     7.0000    0    14.007    9.211659    5.996479   -2.972426
  12 C     6.0000    0    12.011    9.867243    4.359768   -8.986064
  13 N     7.0000    0    14.007   10.893515    5.357336  -10.616519
  14 C     6.0000    0    12.011    6.081044   -0.260159   -4.949438
  15 F     9.0000    0    18.998    7.202049   -1.276227  -16.036254
  16 C     6.0000    0    12.011    6.399104   -0.264675   -2.376047
  17 F     9.0000    0    18.998    3.284193   -4.415213  -14.988571
  18 C     6.0000    0    12.011   24.891435    8.368218   35.784950
  19 O     8.0000    0    15.999   23.258825    9.812044   36.475532
  20 C     6.0000    0    12.011   27.312174    7.787013   37.073309
  21 C     6.0000    0    12.011   28.293074    8.827818   39.254185
  22 C     6.0000    0    12.011   30.647616    7.995904   40.046887
  23 C     6.0000    0    12.011   31.962072    6.169313   38.676307
  24 C     6.0000    0    12.011   30.967245    5.105095   36.496224
  25 C     6.0000    0    12.011   28.616765    5.929167   35.694678
  26 C     6.0000    0    12.011   27.046649    5.153472   33.550632
  27 C     6.0000    0    12.011   27.305239    2.913485   32.262671
  28 C     6.0000    0    12.011   25.443575    1.943791   30.630080
  29 N     7.0000    0    14.007   23.941526    1.042127   29.348996
  30 C     6.0000    0    12.011   29.372297    1.260731   32.536152
  31 N     7.0000    0    14.007   31.044799   -0.118996   32.631243
  32 C     6.0000    0    12.011   24.943799    6.872273   33.420222
  33 F     9.0000    0    18.998   34.244105    5.421964   39.471560
  34 C     6.0000    0    12.011   23.202152    7.394404   31.568007
  35 F     9.0000    0    18.998   31.674399    8.962007   42.148697
  36 C     6.0000    0    12.011   23.288966    6.885047   28.973810
  37 S    16.0000    0    32.060   20.510313    7.255887   27.179648
  38 C     6.0000    0    12.011   22.105790    6.457251   24.497446
  39 C     6.0000    0    12.011   24.693014    6.015301   24.928228
  40 C     6.0000    0    12.011   25.338790    6.223359   27.440354
  41 C     6.0000    0    12.011   21.564024    6.040906   21.926247
  42 C     6.0000    0    12.011   23.791463    5.334470   20.693786
  43 C     6.0000    0    12.011   26.011948    5.341462   22.489083
  44 S    16.0000    0    32.060   18.991729    6.058311   19.945606
  45 C     6.0000    0    12.011   20.922594    5.143513   17.418910
  46 C     6.0000    0    12.011   23.425140    4.833485   18.152331
  47 C     6.0000    0    12.011   19.815989    4.781914   14.977780
  48 C     6.0000    0    12.011   21.186513    4.323448   12.752836
  49 C     6.0000    0    12.011   19.969473    3.823199   10.416170
  50 C     6.0000    0    12.011   17.350766    3.929194   10.108277
  51 C     6.0000    0    12.011   15.941333    4.482846   12.317934
  52 C     6.0000    0    12.011   17.152874    4.873604   14.704450
  53 N     7.0000    0    14.007   13.441433    4.669324   12.486479
  54 S    16.0000    0    32.060   12.679231    5.282937   15.362812
  55 N     7.0000    0    14.007   15.486343    5.334565   16.529812
  56 C     6.0000    0    12.011   16.070174    3.439698    7.774787
  57 S    16.0000    0    32.060   12.818409    2.847987    7.804172
  58 C     6.0000    0    12.011   12.881280    2.367298    4.597118
  59 C     6.0000    0    12.011   15.280061    2.737363    3.546676
  60 C     6.0000    0    12.011   17.079118    3.329376    5.355427
  61 C     6.0000    0    12.011   11.197629    1.637561    2.668293
  62 C     6.0000    0    12.011   12.521363    1.510685    0.371293
  63 C     6.0000    0    12.011   15.243551    2.294033    0.729453
  64 S    16.0000    0    32.060    8.084437    0.866250    2.354807
  65 C     6.0000    0    12.011    8.488272    0.465364   -0.924983
  66 C     6.0000    0    12.011   10.999831    0.866118   -1.639300
  67 O     8.0000    0    15.999   23.746809    4.266038   12.911629
  68 O     8.0000    0    15.999   21.465890    3.108581    8.401080
  69 C     6.0000    0    12.011   25.228789    5.473214   11.007409
  70 C     6.0000    0    12.011   27.328804    6.942533   12.316082
  71 C     6.0000    0    12.011   22.001571    0.466706    8.366271
  72 C     6.0000    0    12.011   23.414803   -0.141711    5.944039
  73 C     6.0000    0    12.011   17.112132    0.220928   -0.070695
  74 C     6.0000    0    12.011   16.680745   -2.263741    1.321372
  75 C     6.0000    0    12.011   15.652809    4.758689   -0.785748
  76 C     6.0000    0    12.011   18.114896    6.134731   -0.219813
  77 C     6.0000    0    12.011   27.308395    2.745999   22.625842
  78 C     6.0000    0    12.011   25.462132    0.606489   23.180345
  79 C     6.0000    0    12.011   27.858343    7.433880   21.628426
  80 C     6.0000    0    12.011   30.045001    7.943974   23.427823
  81 H     1.0000    0     1.008    1.910702   -4.594434  -10.250309
  82 H     1.0000    0     1.008    9.063656    1.186597  -12.296202
  83 H     1.0000    0     1.008    4.827154   -1.081377   -1.339400
  84 H     1.0000    0     1.008   27.274058   10.238668   40.313811
  85 H     1.0000    0     1.008   32.052287    3.698893   35.499129
  86 H     1.0000    0     1.008   21.597453    8.499554   32.212064
  87 H     1.0000    0     1.008   27.214589    5.986350   28.183243
  88 H     1.0000    0     1.008   24.868550    4.225598   16.867771
  89 H     1.0000    0     1.008   19.042449    3.683549    4.990616
  90 H     1.0000    0     1.008   11.651806    0.588820   -3.543577
  91 H     1.0000    0     1.008   24.052944    6.744092    9.880320
  92 H     1.0000    0     1.008   26.039859    4.036304    9.757752
  93 H     1.0000    0     1.008   26.531245    8.352797   13.579685
  94 H     1.0000    0     1.008   28.491023    7.881292   10.908501
  95 H     1.0000    0     1.008   28.509278    5.667270   13.410782
  96 H     1.0000    0     1.008   20.221525   -0.599194    8.454389
  97 H     1.0000    0     1.008   23.142758   -0.036736   10.026207
  98 H     1.0000    0     1.008   22.225957    0.233079    4.312790
  99 H     1.0000    0     1.008   23.947611   -2.123807    5.939674
 100 H     1.0000    0     1.008   25.108224    1.011552    5.802121
 101 H     1.0000    0     1.008   19.030052    0.879025    0.298104
 102 H     1.0000    0     1.008   16.922479   -0.084509   -2.102226
 103 H     1.0000    0     1.008   16.903468   -2.010763    3.348973
 104 H     1.0000    0     1.008   18.037757   -3.671643    0.689750
 105 H     1.0000    0     1.008   14.788373   -2.981742    0.963836
 106 H     1.0000    0     1.008   14.069408    6.022633   -0.392439
 107 H     1.0000    0     1.008   15.575898    4.282573   -2.792297
 108 H     1.0000    0     1.008   18.180828    6.740181    1.740797
 109 H     1.0000    0     1.008   18.243926    7.804040   -1.410775
 110 H     1.0000    0     1.008   19.747808    4.950308   -0.607131
 111 H     1.0000    0     1.008   28.742281    2.791371   24.105460
 112 H     1.0000    0     1.008   28.252143    2.396551   20.823762
 113 H     1.0000    0     1.008   24.547410    0.880915   25.000189
 114 H     1.0000    0     1.008   26.467882   -1.184329   23.235336
 115 H     1.0000    0     1.008   24.013374    0.493748   21.727202
 116 H     1.0000    0     1.008   26.777741    9.176623   21.380248
 117 H     1.0000    0     1.008   28.602914    6.890433   19.782126
 118 H     1.0000    0     1.008   29.357406    8.610802   25.244001
 119 H     1.0000    0     1.008   31.257979    9.400386   22.632532
 120 H     1.0000    0     1.008   31.181615    6.259907   23.722507

--------------------------------
INTERNAL COORDINATES (ANGSTROEM)
--------------------------------
 C      0   0   0     0.000000000000     0.00000000     0.00000000
 O      1   0   0     1.209555384470     0.00000000     0.00000000
 C      1   2   0     1.482277582675   127.57472310     0.00000000
 C      3   1   2     1.380255326235   128.72163874   356.57578162
 C      4   3   1     1.386258103168   117.65963425   181.58598278
 C      5   4   3     1.394536123519   120.69650445     0.00000000
 C      6   5   4     1.387478610033   121.66311905   359.43246108
 C      7   6   5     1.384870490804   117.92280159     0.49792691
 C      8   7   6     1.465854166894   131.18765658   181.62988546
 C      9   8   7     1.373550523170   124.44951053    19.10234917
 C     10   9   8     1.408256245504   124.19022501   165.79748983
 N     11  10   9     1.148246552793   176.36990749   206.94265176
 C     10   9   8     1.409073016525   124.06003363   349.47846887
 N     13  10   9     1.148053822127   176.38019968   208.30952721
 C      9   8   7     1.440100350462   107.26272919   187.85441410
 F      6   5   4     1.338264026043   119.41836357   179.21753902
 C     15   9   8     1.372143846905   133.25462446   164.65359733
 F      5   4   3     1.338903709794   119.67372999   179.79172735
 C     12  11  10    22.159921619891   143.45430373   215.57490300
 O     19  12  11     1.209832979712    92.74828827   211.51224138
 C     19  12  11     1.483362560705   137.47554842    48.94210395
 C     21  19  12     1.380093773155   128.78469293   154.54662540
 C     22  21  19     1.386436859074   117.66465331   181.52521526
 C     23  22  21     1.394330966055   120.73434757   359.94697267
 C     24  23  22     1.387514533870   121.64003994   359.45557619
 C     25  24  23     1.384617515562   117.88549065     0.55341597
 C     26  25  24     1.464960942722   131.18503727   181.79416996
 C     27  26  25     1.374155683211   124.70494480    19.25077979
 C     28  27  26     1.407198716244   123.32168890   164.49642722
 N     29  28  27     1.148487974904   176.75627298   224.44205337
 C     28  27  26     1.407961286400   124.20922033   348.52549797
 N     31  28  27     1.148442780159   176.50077912   213.19207436
 C     27  26  25     1.438861671948   107.37663922   187.64703213
 F     24  23  22     1.338581368203   119.42800166   179.27609742
 C     33  27  26     1.373483164112   132.87053000   164.40996460
 F     23  22  21     1.339272613399   119.64732573   179.76808441
 C     35  33  27     1.399755221208   129.72592770   341.60957788
 S     37  35  33     1.761250584812   118.67400697   168.25093585
 C     38  37  35     1.704704102799    90.44281228   178.10791510
 C     39  38  37     1.407514031369   112.83614849   357.77445418
 C     40  39  38     1.376989256494   112.61086893     2.55266519
 C     39  38  37     1.407841909768   137.95572157   175.72068974
 C     42  39  38     1.398019287814   108.72438203   181.93975137
 C     40  39  38     1.510063987552   110.51082605   180.53755710
 S     42  39  38     1.717988601883   138.60113928   359.34802181
 C     45  42  39     1.751032051648    90.11627034   182.00205511
 C     43  42  39     1.384399996027   112.72698882   178.74574252
 C     46  45  42     1.431171504293   119.17162325   179.71879192
 C     48  46  45     1.403956689752   124.65873490   172.68470693
 C     49  48  46     1.419087135943   121.90570079   175.96800543
 C     50  49  48     1.396432257791   122.99305593     4.80018009
 C     51  50  49     1.417524982496   115.73392589   357.73713477
 C     48  46  45     1.417493798082   119.62470219   352.55430819
 N     52  51  50     1.329560284681   126.45507984   180.31554886
 S     54  52  51     1.607755487566   109.15414376   179.17302970
 N     53  48  46     1.330515652144   126.23966359     1.68966787
 C     51  50  49     1.432174830599   124.25563691   179.86333684
 S     57  51  50     1.749085736749   119.35495520   163.89124085
 C     58  57  51     1.716379736480    89.92382581   182.44450143
 C     59  58  57     1.399523644030   112.92760149   357.90708196
 C     60  59  58     1.385865275306   112.35745609     1.96459901
 C     59  58  57     1.408800739707   138.13640622   176.07638326
 C     62  59  58     1.404522299609   108.94779905   182.40365690
 C     60  59  58     1.509279589241   111.03660395   179.98501103
 S     62  59  58     1.705326855063   138.33379795     1.89939688
 C     17  15   9     1.400387864450   129.83213713   342.76189175
 C     63  62  59     1.377184045544   112.88334513   181.47053583
 O     49  48  46     1.357793249284   117.86710987   358.66082024
 O     50  49  48     1.380993873303   117.62355280   187.32331710
 C     68  49  48     1.427758291133   119.62979685   222.42720791
 C     70  68  49     1.522852615882   107.95779070   135.76383013
 C     69  50  49     1.426588398137   113.09498560    84.50843209
 C     72  69  50     1.518526742669   108.45340378   174.18302147
 C     64  60  59     1.536400492743   112.02241593   237.98627200
 C     74  64  60     1.524317194615   112.72668204    55.34450937
 C     64  60  59     1.546235369729   112.29071605   111.38302263
 C     76  64  60     1.522306182639   114.91864224    58.42035416
 C     44  40  39     1.536975728826   112.15263977   238.11838802
 C     78  44  40     1.523962505215   112.75472407    59.66942421
 C     44  40  39     1.545353061957   112.02115073   111.40223215
 C     80  44  40     1.522661118503   115.03676588    62.80858704
 H      4   3   1     1.078259111485   121.52157377     1.60809396
 H      7   6   5     1.077818008525   118.93991446   179.93350181
 H     17  15   9     1.086124478547   114.07957191   167.40837694
 H     22  21  19     1.078236772977   121.54085065     1.54328608
 H     25  24  23     1.077875734443   119.01922854   180.01197954
 H     35  33  27     1.085938485228   114.14746773   167.07226991
 H     41  40  39     1.074982710419   124.95135046   180.88488838
 H     47  43  42     1.071901428491   125.01209090   181.35198550
 H     61  60  59     1.073224888549   125.46842676   179.70799748
 H     67  63  62     1.075185480603   124.76909657   182.77236915
 H     70  68  49     1.093243828338   110.34376302    14.97750422
 H     70  68  49     1.095305824188   109.31344335   255.48070070
 H     71  70  68     1.087280832996   110.29489388   300.07296735
 H     71  70  68     1.086207371039   109.56326514   179.93368442
 H     71  70  68     1.086835328879   110.16888369    60.13945684
 H     72  69  50     1.098915556810   109.39797691    53.67168850
 H     72  69  50     1.098746549574   109.66382063   295.12207703
 H     73  72  69     1.086399074650   110.29199207   296.24814288
 H     73  72  69     1.086117117534   109.53566689   176.32809937
 H     73  72  69     1.086790109819   110.20323887    56.22685773
 H     74  64  60     1.090609047505   108.75997769   294.13339512
 H     74  64  60     1.091745111324   108.53737898   176.86767963
 H     75  74  64     1.087683464111   110.75255237   299.66602680
 H     75  74  64     1.087406864288   110.09292854   179.77088101
 H     75  74  64     1.087639923182   110.80222968    59.90249429
 H     76  64  60     1.092133155526   108.07710287   296.41526033
 H     76  64  60     1.092060897981   107.72048515   180.73300460
 H     77  76  64     1.086413394754   110.88060121   297.56673345
 H     77  76  64     1.087279587273   109.16791555   178.48476799
 H     77  76  64     1.086976561155   111.55912546    59.18524915
 H     78  44  40     1.090587570487   108.94683013   298.62890341
 H     78  44  40     1.092243955763   108.31694564   181.13835626
 H     79  78  44     1.087566444545   110.89331457   298.73829273
 H     79  78  44     1.087273844990   109.80752830   179.34548329
 H     79  78  44     1.087486275316   110.88913244    59.53197015
 H     80  44  40     1.093035610673   108.00940526   301.01432496
 H     80  44  40     1.092022992844   107.64473786   185.02230329
 H     81  80  44     1.086547791356   110.86864844   297.46625643
 H     81  80  44     1.087705450432   109.39680036   178.41010553
 H     81  80  44     1.086401129142   111.41208261    58.99421348

---------------------------
INTERNAL COORDINATES (A.U.)
---------------------------
 C      0   0   0     0.000000000000     0.00000000     0.00000000
 O      1   0   0     2.285728420458     0.00000000     0.00000000
 C      1   2   0     2.801098685706   127.57472310     0.00000000
 C      3   1   2     2.608304561470   128.72163874   356.57578162
 C      4   3   1     2.619648165917   117.65963425   181.58598278
 C      5   4   3     2.635291357311   120.69650445     0.00000000
 C      6   5   4     2.621954589637   121.66311905   359.43246108
 C      7   6   5     2.617025958569   117.92280159     0.49792691
 C      8   7   6     2.770062927697   131.18765658   181.62988546
 C      9   8   7     2.595634319895   124.44951053    19.10234917
 C     10   9   8     2.661218630386   124.19022501   165.79748983
 N     11  10   9     2.169871518997   176.36990749   206.94265176
 C     10   9   8     2.662762103931   124.06003363   349.47846887
 N     13  10   9     2.169507310821   176.38019968   208.30952721
 C      9   8   7     2.721395267737   107.26272919   187.85441410
 F      6   5   4     2.528952504100   119.41836357   179.21753902
 C     15   9   8     2.592976086996   133.25462446   164.65359733
 F      5   4   3     2.530161331202   119.67372999   179.79172735
 C     12  11  10    41.876183010754   143.45430373   215.57490300
 O     19  12  11     2.286252999443    92.74828827   211.51224138
 C     19  12  11     2.803148997044   137.47554842    48.94210395
 C     21  19  12     2.607999270392   128.78469293   154.54662540
 C     22  21  19     2.619985965625   117.66465331   181.52521526
 C     23  22  21     2.634903665890   120.73434757   359.94697267
 C     24  23  22     2.622022475849   121.64003994   359.45557619
 C     25  24  23     2.616547904642   117.88549065     0.55341597
 C     26  25  24     2.768374978635   131.18503727   181.79416996
 C     27  26  25     2.596777906639   124.70494480    19.25077979
 C     28  27  26     2.659220189708   123.32168890   164.49642722
 N     29  28  27     2.170327740671   176.75627298   224.44205337
 C     28  27  26     2.660661238459   124.20922033   348.52549797
 N     31  28  27     2.170242334980   176.50077912   213.19207436
 C     27  26  25     2.719054504577   107.37663922   187.64703213
 F     24  23  22     2.529552193873   119.42800166   179.27609742
 C     33  27  26     2.595507029724   132.87053000   164.40996460
 F     23  22  21     2.530858457985   119.64732573   179.76808441
 C     35  33  27     2.645154022610   129.72592770   341.60957788
 S     37  35  33     3.328281258503   118.67400697   168.25093585
 C     38  37  35     3.221423893662    90.44281228   178.10791510
 C     39  38  37     2.659816048938   112.83614849   357.77445418
 C     40  39  38     2.602132584126   112.61086893     2.55266519
 C     39  38  37     2.660435649319   137.95572157   175.72068974
 C     42  39  38     2.641873583908   108.72438203   181.93975137
 C     40  39  38     2.853607381169   110.51082605   180.53755710
 S     42  39  38     3.246527958757   138.60113928   359.34802181
 C     45  42  39     3.308971029334    90.11627034   182.00205511
 C     43  42  39     2.616136852293   112.72698882   178.74574252
 C     46  45  42     2.704522193786   119.17162325   179.71879192
 C     48  46  45     2.653093647518   124.65873490   172.68470693
 C     49  48  46     2.681686047104   121.90570079   175.96800543
 C     50  49  48     2.638874531799   122.99305593     4.80018009
 C     51  50  49     2.678734004909   115.73392589   357.73713477
 C     48  46  45     2.678675074906   119.62470219   352.55430819
 N     52  51  50     2.512504816585   126.45507984   180.31554886
 S     54  52  51     3.038217561810   109.15414376   179.17302970
 N     53  48  46     2.514310199448   126.23966359     1.68966787
 C     51  50  49     2.706418205726   124.25563691   179.86333684
 S     57  51  50     3.305293027204   119.35495520   163.89124085
 C     58  57  51     3.243487643760    89.92382581   182.44450143
 C     59  58  57     2.644716405165   112.92760149   357.90708196
 C     60  59  58     2.618905828840   112.35745609     1.96459901
 C     59  58  57     2.662247575313   138.13640622   176.07638326
 C     62  59  58     2.654162495247   108.94779905   182.40365690
 C     60  59  58     2.852125083183   111.03660395   179.98501103
 S     62  59  58     3.222600724891   138.33379795     1.89939688
 C     17  15   9     2.646349545078   129.83213713   342.76189175
 C     63  62  59     2.602500682083   112.88334513   181.47053583
 O     49  48  46     2.565857387633   117.86710987   358.66082024
 O     50  49  48     2.609700213166   117.62355280   187.32331710
 C     68  49  48     2.698072155677   119.62979685   222.42720791
 C     70  68  49     2.877774386343   107.95779070   135.76383013
 C     69  50  49     2.695861378309   113.09498560    84.50843209
 C     72  69  50     2.869599670679   108.45340378   174.18302147
 C     64  60  59     2.903376163305   112.02241593   237.98627200
 C     74  64  60     2.880542039050   112.72668204    55.34450937
 C     64  60  59     2.921961387370   112.29071605   111.38302263
 C     76  64  60     2.876741777162   114.91864224    58.42035416
 C     44  40  39     2.904463201965   112.15263977   238.11838802
 C     78  44  40     2.879871773220   112.75472407    59.66942421
 C     44  40  39     2.920294067315   112.02115073   111.40223215
 C     80  44  40     2.877412508740   115.03676588    62.80858704
 H      4   3   1     2.037614422112   121.52157377     1.60809396
 H      7   6   5     2.036780858320   118.93991446   179.93350181
 H     17  15   9     2.052477811803   114.07957191   167.40837694
 H     22  21  19     2.037572208450   121.54085065     1.54328608
 H     25  24  23     2.036889944496   119.01922854   180.01197954
 H     35  33  27     2.052126335367   114.14746773   167.07226991
 H     41  40  39     2.031422921392   124.95135046   180.88488838
 H     47  43  42     2.025600142406   125.01209090   181.35198550
 H     61  60  59     2.028101119465   125.46842676   179.70799748
 H     67  63  62     2.031806101509   124.76909657   182.77236915
 H     70  68  49     2.065931433159   110.34376302    14.97750422
 H     70  68  49     2.069828040604   109.31344335   255.48070070
 H     71  70  68     2.054663005024   110.29489388   300.07296735
 H     71  70  68     2.052634455911   109.56326514   179.93368442
 H     71  70  68     2.053821124252   110.16888369    60.13945684
 H     72  69  50     2.076649446677   109.39797691    53.67168850
 H     72  69  50     2.076330069285   109.66382063   295.12207703
 H     73  72  69     2.052996723234   110.29199207   296.24814288
 H     73  72  69     2.052463901503   109.53566689   176.32809937
 H     73  72  69     2.053735672612   110.20323887    56.22685773
 H     74  64  60     2.060952418961   108.75997769   294.13339512
 H     74  64  60     2.063099268450   108.53737898   176.86767963
 H     75  74  64     2.055423867564   110.75255237   299.66602680
 H     75  74  64     2.054901169650   110.09292854   179.77088101
 H     75  74  64     2.055341587134   110.80222968    59.90249429
 H     76  64  60     2.063832565720   108.07710287   296.41526033
 H     76  64  60     2.063696018749   107.72048515   180.73300460
 H     77  76  64     2.053023784308   110.88060121   297.56673345
 H     77  76  64     2.054660650948   109.16791555   178.48476799
 H     77  76  64     2.054088014574   111.55912546    59.18524915
 H     78  44  40     2.060911833278   108.94683013   298.62890341
 H     78  44  40     2.064041947822   108.31694564   181.13835626
 H     79  78  44     2.055202732632   110.89331457   298.73829273
 H     79  78  44     2.054649799607   109.80752830   179.34548329
 H     79  78  44     2.055051234745   110.88913244    59.53197015
 H     80  44  40     2.065537958796   108.00940526   301.01432496
 H     80  44  40     2.063624388420   107.64473786   185.02230329
 H     81  80  44     2.053277757079   110.86864844   297.46625643
 H     81  80  44     2.055465415690   109.39680036   178.41010553
 H     81  80  44     2.053000605660   111.41208261    58.99421348

---------------------
BASIS SET INFORMATION
---------------------
There are 6 groups of distinct atoms

 Group   1 Type C   : 11s6p2d1f contracted to 5s3p2d1f pattern {62111/411/11/1}
 Group   2 Type O   : 11s6p2d1f contracted to 5s3p2d1f pattern {62111/411/11/1}
 Group   3 Type N   : 11s6p2d1f contracted to 5s3p2d1f pattern {62111/411/11/1}
 Group   4 Type F   : 11s6p2d1f contracted to 5s3p2d1f pattern {62111/411/11/1}
 Group   5 Type S   : 14s9p3d1f contracted to 5s5p2d1f pattern {73211/51111/21/1}
 Group   6 Type H   : 5s1p contracted to 3s1p pattern {311/1}

Atom   0C    basis set group =>   1
Atom   1O    basis set group =>   2
Atom   2C    basis set group =>   1
Atom   3C    basis set group =>   1
Atom   4C    basis set group =>   1
Atom   5C    basis set group =>   1
Atom   6C    basis set group =>   1
Atom   7C    basis set group =>   1
Atom   8C    basis set group =>   1
Atom   9C    basis set group =>   1
Atom  10C    basis set group =>   1
Atom  11N    basis set group =>   3
Atom  12C    basis set group =>   1
Atom  13N    basis set group =>   3
Atom  14C    basis set group =>   1
Atom  15F    basis set group =>   4
Atom  16C    basis set group =>   1
Atom  17F    basis set group =>   4
Atom  18C    basis set group =>   1
Atom  19O    basis set group =>   2
Atom  20C    basis set group =>   1
Atom  21C    basis set group =>   1
Atom  22C    basis set group =>   1
Atom  23C    basis set group =>   1
Atom  24C    basis set group =>   1
Atom  25C    basis set group =>   1
Atom  26C    basis set group =>   1
Atom  27C    basis set group =>   1
Atom  28C    basis set group =>   1
Atom  29N    basis set group =>   3
Atom  30C    basis set group =>   1
Atom  31N    basis set group =>   3
Atom  32C    basis set group =>   1
Atom  33F    basis set group =>   4
Atom  34C    basis set group =>   1
Atom  35F    basis set group =>   4
Atom  36C    basis set group =>   1
Atom  37S    basis set group =>   5
Atom  38C    basis set group =>   1
Atom  39C    basis set group =>   1
Atom  40C    basis set group =>   1
Atom  41C    basis set group =>   1
Atom  42C    basis set group =>   1
Atom  43C    basis set group =>   1
Atom  44S    basis set group =>   5
Atom  45C    basis set group =>   1
Atom  46C    basis set group =>   1
Atom  47C    basis set group =>   1
Atom  48C    basis set group =>   1
Atom  49C    basis set group =>   1
Atom  50C    basis set group =>   1
Atom  51C    basis set group =>   1
Atom  52C    basis set group =>   1
Atom  53N    basis set group =>   3
Atom  54S    basis set group =>   5
Atom  55N    basis set group =>   3
Atom  56C    basis set group =>   1
Atom  57S    basis set group =>   5
Atom  58C    basis set group =>   1
Atom  59C    basis set group =>   1
Atom  60C    basis set group =>   1
Atom  61C    basis set group =>   1
Atom  62C    basis set group =>   1
Atom  63C    basis set group =>   1
Atom  64S    basis set group =>   5
Atom  65C    basis set group =>   1
Atom  66C    basis set group =>   1
Atom  67O    basis set group =>   2
Atom  68O    basis set group =>   2
Atom  69C    basis set group =>   1
Atom  70C    basis set group =>   1
Atom  71C    basis set group =>   1
Atom  72C    basis set group =>   1
Atom  73C    basis set group =>   1
Atom  74C    basis set group =>   1
Atom  75C    basis set group =>   1
Atom  76C    basis set group =>   1
Atom  77C    basis set group =>   1
Atom  78C    basis set group =>   1
Atom  79C    basis set group =>   1
Atom  80C    basis set group =>   1
Atom  81H    basis set group =>   6
Atom  82H    basis set group =>   6
Atom  83H    basis set group =>   6
Atom  84H    basis set group =>   6
Atom  85H    basis set group =>   6
Atom  86H    basis set group =>   6
Atom  87H    basis set group =>   6
Atom  88H    basis set group =>   6
Atom  89H    basis set group =>   6
Atom  90H    basis set group =>   6
Atom  91H    basis set group =>   6
Atom  92H    basis set group =>   6
Atom  93H    basis set group =>   6
Atom  94H    basis set group =>   6
Atom  95H    basis set group =>   6
Atom  96H    basis set group =>   6
Atom  97H    basis set group =>   6
Atom  98H    basis set group =>   6
Atom  99H    basis set group =>   6
Atom 100H    basis set group =>   6
Atom 101H    basis set group =>   6
Atom 102H    basis set group =>   6
Atom 103H    basis set group =>   6
Atom 104H    basis set group =>   6
Atom 105H    basis set group =>   6
Atom 106H    basis set group =>   6
Atom 107H    basis set group =>   6
Atom 108H    basis set group =>   6
Atom 109H    basis set group =>   6
Atom 110H    basis set group =>   6
Atom 111H    basis set group =>   6
Atom 112H    basis set group =>   6
Atom 113H    basis set group =>   6
Atom 114H    basis set group =>   6
Atom 115H    basis set group =>   6
Atom 116H    basis set group =>   6
Atom 117H    basis set group =>   6
Atom 118H    basis set group =>   6
Atom 119H    basis set group =>   6
Atom 120H    basis set group =>   6
---------------------------------
AUXILIARY/J BASIS SET INFORMATION
---------------------------------
There are 6 groups of distinct atoms

 Group   1 Type C   : 12s5p4d2f1g contracted to 6s4p3d1f1g pattern {711111/2111/211/2/1}
 Group   2 Type O   : 12s5p4d2f1g contracted to 6s4p3d1f1g pattern {711111/2111/211/2/1}
 Group   3 Type N   : 12s5p4d2f1g contracted to 6s4p3d1f1g pattern {711111/2111/211/2/1}
 Group   4 Type F   : 12s5p4d2f1g contracted to 6s4p3d1f1g pattern {711111/2111/211/2/1}
 Group   5 Type S   : 14s5p5d2f1g contracted to 8s4p3d1f1g pattern {71111111/2111/311/2/1}
 Group   6 Type H   : 5s2p1d contracted to 3s1p1d pattern {311/2/1}

Atom   0C    basis set group =>   1
Atom   1O    basis set group =>   2
Atom   2C    basis set group =>   1
Atom   3C    basis set group =>   1
Atom   4C    basis set group =>   1
Atom   5C    basis set group =>   1
Atom   6C    basis set group =>   1
Atom   7C    basis set group =>   1
Atom   8C    basis set group =>   1
Atom   9C    basis set group =>   1
Atom  10C    basis set group =>   1
Atom  11N    basis set group =>   3
Atom  12C    basis set group =>   1
Atom  13N    basis set group =>   3
Atom  14C    basis set group =>   1
Atom  15F    basis set group =>   4
Atom  16C    basis set group =>   1
Atom  17F    basis set group =>   4
Atom  18C    basis set group =>   1
Atom  19O    basis set group =>   2
Atom  20C    basis set group =>   1
Atom  21C    basis set group =>   1
Atom  22C    basis set group =>   1
Atom  23C    basis set group =>   1
Atom  24C    basis set group =>   1
Atom  25C    basis set group =>   1
Atom  26C    basis set group =>   1
Atom  27C    basis set group =>   1
Atom  28C    basis set group =>   1
Atom  29N    basis set group =>   3
Atom  30C    basis set group =>   1
Atom  31N    basis set group =>   3
Atom  32C    basis set group =>   1
Atom  33F    basis set group =>   4
Atom  34C    basis set group =>   1
Atom  35F    basis set group =>   4
Atom  36C    basis set group =>   1
Atom  37S    basis set group =>   5
Atom  38C    basis set group =>   1
Atom  39C    basis set group =>   1
Atom  40C    basis set group =>   1
Atom  41C    basis set group =>   1
Atom  42C    basis set group =>   1
Atom  43C    basis set group =>   1
Atom  44S    basis set group =>   5
Atom  45C    basis set group =>   1
Atom  46C    basis set group =>   1
Atom  47C    basis set group =>   1
Atom  48C    basis set group =>   1
Atom  49C    basis set group =>   1
Atom  50C    basis set group =>   1
Atom  51C    basis set group =>   1
Atom  52C    basis set group =>   1
Atom  53N    basis set group =>   3
Atom  54S    basis set group =>   5
Atom  55N    basis set group =>   3
Atom  56C    basis set group =>   1
Atom  57S    basis set group =>   5
Atom  58C    basis set group =>   1
Atom  59C    basis set group =>   1
Atom  60C    basis set group =>   1
Atom  61C    basis set group =>   1
Atom  62C    basis set group =>   1
Atom  63C    basis set group =>   1
Atom  64S    basis set group =>   5
Atom  65C    basis set group =>   1
Atom  66C    basis set group =>   1
Atom  67O    basis set group =>   2
Atom  68O    basis set group =>   2
Atom  69C    basis set group =>   1
Atom  70C    basis set group =>   1
Atom  71C    basis set group =>   1
Atom  72C    basis set group =>   1
Atom  73C    basis set group =>   1
Atom  74C    basis set group =>   1
Atom  75C    basis set group =>   1
Atom  76C    basis set group =>   1
Atom  77C    basis set group =>   1
Atom  78C    basis set group =>   1
Atom  79C    basis set group =>   1
Atom  80C    basis set group =>   1
Atom  81H    basis set group =>   6
Atom  82H    basis set group =>   6
Atom  83H    basis set group =>   6
Atom  84H    basis set group =>   6
Atom  85H    basis set group =>   6
Atom  86H    basis set group =>   6
Atom  87H    basis set group =>   6
Atom  88H    basis set group =>   6
Atom  89H    basis set group =>   6
Atom  90H    basis set group =>   6
Atom  91H    basis set group =>   6
Atom  92H    basis set group =>   6
Atom  93H    basis set group =>   6
Atom  94H    basis set group =>   6
Atom  95H    basis set group =>   6
Atom  96H    basis set group =>   6
Atom  97H    basis set group =>   6
Atom  98H    basis set group =>   6
Atom  99H    basis set group =>   6
Atom 100H    basis set group =>   6
Atom 101H    basis set group =>   6
Atom 102H    basis set group =>   6
Atom 103H    basis set group =>   6
Atom 104H    basis set group =>   6
Atom 105H    basis set group =>   6
Atom 106H    basis set group =>   6
Atom 107H    basis set group =>   6
Atom 108H    basis set group =>   6
Atom 109H    basis set group =>   6
Atom 110H    basis set group =>   6
Atom 111H    basis set group =>   6
Atom 112H    basis set group =>   6
Atom 113H    basis set group =>   6
Atom 114H    basis set group =>   6
Atom 115H    basis set group =>   6
Atom 116H    basis set group =>   6
Atom 117H    basis set group =>   6
Atom 118H    basis set group =>   6
Atom 119H    basis set group =>   6
Atom 120H    basis set group =>   6
------------------------------------------------------------------------------
                           ORCA GTO INTEGRAL CALCULATION
                           -- RI-GTO INTEGRALS CHOSEN --
------------------------------------------------------------------------------

                         BASIS SET STATISTICS AND STARTUP INFO

Gaussian basis set:
 # of primitive gaussian shells          ... 1895
 # of primitive gaussian functions       ... 4131
 # of contracted shells                  ... 1061
 # of contracted basis functions         ... 2781
 Highest angular momentum                ...    3
 Maximum contraction depth               ...    7
Auxiliary gaussian basis set:
 # of primitive gaussian shells          ... 2279
 # of primitive gaussian functions       ... 6345
 # of contracted shells                  ... 1425
 # of contracted aux-basis functions     ... 4419
 Highest angular momentum                ...    4
 Maximum contraction depth               ...    7
Ratio of auxiliary to basis functions    ...  1.59
Integral package used                  ... LIBINT
 One Electron integrals                  ... done
 Ordering auxiliary basis shells         ... done
 Integral threshhold             Thresh  ...  2.500e-11
 Primitive cut-off               TCut    ...  2.500e-12
 Pre-screening matrix                    ... done
 Shell pair data                         ... 
 Ordering of the shell pairs             ... done (   0.045 sec) 172314 of 563391 pairs
 Determination of significant pairs      ... done (   0.001 sec)
 Creation of shell pair data             ... done (   0.022 sec)
 Storage of shell pair data              ... done (   0.028 sec)
 Shell pair data done in (   0.096 sec)
 Computing two index integrals           ... done
 Cholesky decomposition of the V-matrix  ... done


Timings:
 Total evaluation time                   ...   9.497 sec (  0.158 min)
 One electron matrix time                ...   3.235 sec (  0.054 min) = 34.1%
 Schwartz matrix evaluation time         ...   4.758 sec (  0.079 min) = 50.1%
 Two index repulsion integral time       ...   0.608 sec (  0.010 min) =  6.4%
 Cholesky decomposition of V             ...   0.782 sec (  0.013 min) =  8.2%
 Three index repulsion integral time     ...   0.000 sec (  0.000 min) =  0.0%

-------------------------------------------------------------------------------
                                 ORCA SCF
-------------------------------------------------------------------------------

------------
SCF SETTINGS
------------
Hamiltonian:
 Density Functional     Method          .... DFT(GTOs)
 Exchange Functional    Exchange        .... B88
   X-Alpha parameter    XAlpha          ....  0.666667
   Becke's b parameter  XBeta           ....  0.004200
 Correlation Functional Correlation     .... LYP
 LDA part of GGA corr.  LDAOpt          .... VWN-5
 Gradients option       PostSCFGGA      .... off
 Hybrid DFT is turned on
   Fraction HF Exchange ScalHFX         ....  0.200000
   Scaling of DF-GGA-X  ScalDFX         ....  0.720000
   Scaling of DF-GGA-C  ScalDFC         ....  0.810000
   Scaling of DF-LDA-C  ScalLDAC        ....  1.000000
   Perturbative correction              ....  0.000000
   Density functional embedding theory  .... OFF
   NL short-range parameter             ....  4.800000
 RI-approximation to the Coulomb term is turned on
   Number of auxiliary basis functions  .... 4419
   RIJ-COSX (HFX calculated with COS-X)).... on


General Settings:
 Integral files         IntName         .... BCDT-4F
 Hartree-Fock type      HFTyp           .... RHF
 Total Charge           Charge          ....    0
 Multiplicity           Mult            ....    1
 Number of Electrons    NEL             ....  602
 Basis Dimension        Dim             .... 2781
 Nuclear Repulsion      ENuc            ....  13285.9217823452 Eh

Convergence Acceleration:
 DIIS                   CNVDIIS         .... on
   Start iteration      DIISMaxIt       ....    12
   Startup error        DIISStart       ....  0.200000
   # of expansion vecs  DIISMaxEq       ....     5
   Bias factor          DIISBfac        ....   1.050
   Max. coefficient     DIISMaxC        ....  10.000
 Newton-Raphson         CNVNR           .... off
 SOSCF                  CNVSOSCF        .... on
   Start iteration      SOSCFMaxIt      ....   150
   Startup grad/error   SOSCFStart      ....  0.003300
 Level Shifting         CNVShift        .... on
   Level shift para.    LevelShift      ....    0.2500
   Turn off err/grad.   ShiftErr        ....    0.0010
 Zerner damping         CNVZerner       .... off
 Static damping         CNVDamp         .... on
   Fraction old density DampFac         ....    0.7000
   Max. Damping (<1)    DampMax         ....    0.9800
   Min. Damping (>=0)   DampMin         ....    0.0000
   Turn off err/grad.   DampErr         ....    0.1000
 Fernandez-Rico         CNVRico         .... off

SCF Procedure:
 Maximum # iterations   MaxIter         ....   125
 SCF integral mode      SCFMode         .... Direct
   Integral package                     .... LIBINT
 Reset frequency        DirectResetFreq ....    20
 Integral Threshold     Thresh          ....  2.500e-11 Eh
 Primitive CutOff       TCut            ....  2.500e-12 Eh

Convergence Tolerance:
 Convergence Check Mode ConvCheckMode   .... Total+1el-Energy
 Convergence forced     ConvForced      .... 1
 Energy Change          TolE            ....  1.000e-08 Eh
 1-El. energy change                    ....  1.000e-05 Eh
 Orbital Gradient       TolG            ....  1.000e-05
 Orbital Rotation angle TolX            ....  1.000e-05
 DIIS Error             TolErr          ....  5.000e-07


Diagonalization of the overlap matrix:
Smallest eigenvalue                        ... 3.188e-06
Time for diagonalization                   ...    4.635 sec
Threshold for overlap eigenvalues          ... 1.000e-08
Number of eigenvalues below threshold      ... 0
Time for construction of square roots      ...    1.690 sec
Total time needed                          ...    6.344 sec

-------------------
DFT GRID GENERATION
-------------------

General Integration Accuracy     IntAcc      ...  4.670
Radial Grid Type                 RadialGrid  ... Gauss-Chebyshev
Angular Grid (max. acc.)         AngularGrid ... Lebedev-302
Angular grid pruning method      GridPruning ... 3 (G Style)
Weight generation scheme         WeightScheme... Becke
Basis function cutoff            BFCut       ...    1.0000e-11
Integration weight cutoff        WCut        ...    1.0000e-14
Grids for H and He will be reduced by one unit

# of grid points (after initial pruning)     ... 642342 (   1.9 sec)
# of grid points (after weights+screening)   ... 542272 (  37.5 sec)
nearest neighbour list constructed           ...    0.0 sec
Grid point re-assignment to atoms done       ...    0.1 sec
Grid point division into batches done        ...    1.9 sec
Reduced shell lists constructed in   20.0 sec

Total number of grid points                  ...   542272
Total number of batches                      ...     8532
Average number of points per batch           ...       63
Average number of grid points per atom       ...     4482
Average number of shells per batch           ...   176.22 (16.61%)
Average number of basis functions per batch  ...   434.87 (15.64%)
Average number of large shells per batch     ...   105.27 (59.74%)
Average number of large basis fcns per batch ...   263.76 (60.65%)
Maximum spatial batch extension              ...  24.43, 23.02, 21.42 au
Average spatial batch extension              ...   2.12,  2.17,  2.05 au

Time for grid setup =   59.461 sec

------------------------------
INITIAL GUESS: MODEL POTENTIAL
------------------------------
Loading Hartree-Fock densities                     ... done
Calculating cut-offs                               ... done
Setting up the integral package                    ... done
Initializing the effective Hamiltonian             ... done
Starting the Coulomb interaction                   ... done (  40.0 sec)
Reading the grid                                   ... done
Mapping shells                                     ... done
Starting the XC term evaluation                    ... done (  33.1 sec)
  promolecular density results
     # of electrons  =    601.979035435
     EX              =   -568.612000521
     EC              =    -21.417895650
     EX+EC           =   -590.029896171
Transforming the Hamiltonian                       ... done (   1.6 sec)
Diagonalizing the Hamiltonian                      ... done (   5.1 sec)
Back transforming the eigenvectors                 ... done (   0.7 sec)
Now organizing SCF variables                       ... done
                      ------------------
                      INITIAL GUESS DONE ( 141.0 sec)
                      ------------------
--------------------
COSX GRID GENERATION
--------------------

General Integration Accuracy     IntAcc      ...  3.340
Radial Grid Type                 RadialGrid  ... Gauss-Chebyshev
Angular Grid (max. acc.)         AngularGrid ... Lebedev-50
Angular grid pruning method      GridPruning ... 3 (G Style)
Weight generation scheme         WeightScheme... Becke
Basis function cutoff            BFCut       ...    1.0000e-11
Integration weight cutoff        WCut        ...    1.0000e-14
Grids for H and He will be reduced by one unit

# of grid points (after initial pruning)     ...  60326 (   0.1 sec)
# of grid points (after weights+screening)   ...  53327 (   3.5 sec)
nearest neighbour list constructed           ...    0.0 sec
Grid point re-assignment to atoms done       ...    0.0 sec
Grid point division into batches done        ...    0.0 sec
Reduced shell lists constructed in    2.4 sec

Total number of grid points                  ...    53327
Total number of batches                      ...      899
Average number of points per batch           ...       59
Average number of grid points per atom       ...      441
Average number of shells per batch           ...   213.39 (20.11%)
Average number of basis functions per batch  ...   535.14 (19.24%)
Average number of large shells per batch     ...   129.56 (60.72%)
Average number of large basis fcns per batch ...   330.27 (61.72%)
Maximum spatial batch extension              ...  19.64, 23.00, 20.68 au
Average spatial batch extension              ...   4.31,  4.68,  3.87 au

Overlap Fitting                  UseSFitting ... on
Constructing numerical overlap ... done (      2.7 sec)
Inverting numerical overlap    ... done (      0.5 sec)
Obtaining analytic overlap     ... done (      0.0 sec)
Final contraction and storage  ... done (      0.8 sec)


General Integration Accuracy     IntAcc      ...  3.670
Radial Grid Type                 RadialGrid  ... Gauss-Chebyshev
Angular Grid (max. acc.)         AngularGrid ... Lebedev-50
Angular grid pruning method      GridPruning ... 3 (G Style)
Weight generation scheme         WeightScheme... Becke
Basis function cutoff            BFCut       ...    1.0000e-11
Integration weight cutoff        WCut        ...    1.0000e-14
Grids for H and He will be reduced by one unit

# of grid points (after initial pruning)     ...  75542 (   0.1 sec)
# of grid points (after weights+screening)   ...  66505 (   4.4 sec)
nearest neighbour list constructed           ...    0.0 sec
Grid point re-assignment to atoms done       ...    0.0 sec
Grid point division into batches done        ...    0.0 sec
Reduced shell lists constructed in    2.9 sec

Total number of grid points                  ...    66505
Total number of batches                      ...     1098
Average number of points per batch           ...       60
Average number of grid points per atom       ...      550
Average number of shells per batch           ...   209.30 (19.73%)
Average number of basis functions per batch  ...   523.30 (18.82%)
Average number of large shells per batch     ...   126.12 (60.26%)
Average number of large basis fcns per batch ...   320.48 (61.24%)
Maximum spatial batch extension              ...  18.83, 23.21, 22.63 au
Average spatial batch extension              ...   4.04,  4.34,  3.68 au

Overlap Fitting                  UseSFitting ... on
Constructing numerical overlap ... done (      3.3 sec)
Inverting numerical overlap    ... done (      0.5 sec)
Obtaining analytic overlap     ... done (      0.0 sec)
Final contraction and storage  ... done (      0.8 sec)


General Integration Accuracy     IntAcc      ...  4.010
Radial Grid Type                 RadialGrid  ... Gauss-Chebyshev
Angular Grid (max. acc.)         AngularGrid ... Lebedev-110
Angular grid pruning method      GridPruning ... 3 (G Style)
Weight generation scheme         WeightScheme... Becke
Basis function cutoff            BFCut       ...    1.0000e-11
Integration weight cutoff        WCut        ...    1.0000e-14
Grids for H and He will be reduced by one unit

# of grid points (after initial pruning)     ... 146176 (   0.3 sec)
# of grid points (after weights+screening)   ... 127571 (   8.4 sec)
nearest neighbour list constructed           ...    0.0 sec
Grid point re-assignment to atoms done       ...    0.0 sec
Grid point division into batches done        ...    0.1 sec
Reduced shell lists constructed in    5.2 sec

Total number of grid points                  ...   127571
Total number of batches                      ...     2057
Average number of points per batch           ...       62
Average number of grid points per atom       ...     1054
Average number of shells per batch           ...   197.57 (18.62%)
Average number of basis functions per batch  ...   493.34 (17.74%)
Average number of large shells per batch     ...   119.44 (60.45%)
Average number of large basis fcns per batch ...   302.91 (61.40%)
Maximum spatial batch extension              ...  19.78, 26.72, 23.36 au
Average spatial batch extension              ...   3.38,  3.54,  3.14 au

Overlap Fitting                  UseSFitting ... on
Constructing numerical overlap ... done (      5.5 sec)
Inverting numerical overlap    ... done (      0.5 sec)
Obtaining analytic overlap     ... done (      0.0 sec)
Final contraction and storage  ... done (      0.8 sec)

Time for X-Grid setup             =   43.017 sec
--------------
SCF ITERATIONS
--------------
ITER       Energy         Delta-E        Max-DP      RMS-DP      [F,P]     Damp
               ***  Starting incremental Fock matrix formation  ***
  0  -5403.1400709157   0.000000000000 0.19000763  0.00093526  0.2863704 0.7000
  1  -5404.2368134036  -1.096742487864 0.15089018  0.00076387  0.1014947 0.7000
                               ***Turning on DIIS***
  2  -5404.6077871892  -0.370973785601 0.17194571  0.00103870  0.0434529 0.0000
  3  -5405.2308643302  -0.623077140999 0.16781183  0.00075878  0.0618982 0.0000
  4  -5405.3746886987  -0.143824368484 0.04419110  0.00024448  0.0337721 0.0000
  5  -5405.3896375444  -0.014948845759 0.02459872  0.00010951  0.0121575 0.0000
  6  -5405.3910229657  -0.001385421290 0.00733005  0.00003137  0.0033328 0.0000
                      *** Initiating the SOSCF procedure ***
                           *** Shutting down DIIS ***
                      *** Re-Reading the Fockian *** 
                      *** Removing any level shift *** 
ITER      Energy       Delta-E        Grad      Rot      Max-DP    RMS-DP
  7  -5405.39118537  -0.0001624026  0.000373  0.000373  0.004193  0.000020
               *** Restarting incremental Fock matrix formation ***
  8  -5405.39121299  -0.0000276242  0.000140  0.001701  0.010092  0.000052
  9  -5405.39119635   0.0000166414  0.000307  0.001004  0.000985  0.000006
 10  -5405.39121921  -0.0000228552  0.000064  0.000849  0.001351  0.000008
 11  -5405.39121660   0.0000026060  0.000123  0.000360  0.000631  0.000003
 12  -5405.39122011  -0.0000035061  0.000029  0.000392  0.001373  0.000002
 13  -5405.39121991   0.0000001962  0.000065  0.000279  0.000421  0.000001
 14  -5405.39122019  -0.0000002823  0.000010  0.000047  0.000321  0.000001
 15  -5405.39122009   0.0000001059  0.000015  0.000036  0.000134  0.000001
 16  -5405.39122026  -0.0000001741  0.000003  0.000025  0.000854  0.000001
 17  -5405.39122028  -0.0000000182  0.000006  0.000013  0.000480  0.000001
                  ***Gradient check signals convergence***
              ***Rediagonalizing the Fockian in SOSCF/NRSCF***

               *****************************************************
               *                     SUCCESS                       *
               *           SCF CONVERGED AFTER  18 CYCLES          *
               *****************************************************

Setting up the final grid:

General Integration Accuracy     IntAcc      ...  5.010
Radial Grid Type                 RadialGrid  ... Gauss-Chebyshev
Angular Grid (max. acc.)         AngularGrid ... Lebedev-434
Angular grid pruning method      GridPruning ... 3 (G Style)
Weight generation scheme         WeightScheme... Becke
Basis function cutoff            BFCut       ...    1.0000e-11
Integration weight cutoff        WCut        ...    1.0000e-14
Grids for H and He will be reduced by one unit

# of grid points (after initial pruning)     ... 1139836 (   2.6 sec)
# of grid points (after weights+screening)   ... 958816 (  66.4 sec)
nearest neighbour list constructed           ...    0.0 sec
Grid point re-assignment to atoms done       ...    0.2 sec
Grid point division into batches done        ...    6.3 sec
Reduced shell lists constructed in   37.3 sec

Total number of grid points                  ...   958816
Total number of batches                      ...    15041
Average number of points per batch           ...       63
Average number of grid points per atom       ...     7924
Average number of shells per batch           ...   170.42 (16.06%)
Average number of basis functions per batch  ...   418.40 (15.05%)
Average number of large shells per batch     ...   101.48 (59.55%)
Average number of large basis fcns per batch ...   253.22 (60.52%)
Maximum spatial batch extension              ...  22.19, 22.89, 21.41 au
Average spatial batch extension              ...   1.73,  1.77,  1.69 au

Final grid set up in  106.4 sec
Final integration                            ... done (  82.1 sec)
Change in XC energy                          ...    -0.000091528
Integrated number of electrons               ...   602.000085066
Previous integrated no of electrons          ...   601.999347101
Old exchange energy                            =   -114.845861526 Eh
New exchange energy                            =   -114.847208639 Eh
Exchange energy change after final integration =     -0.001347114 Eh
Total energy after final integration           =  -5405.392658910 Eh
Final COS-X integration done in                =  2186.821 sec

----------------
TOTAL SCF ENERGY
----------------

Total Energy       :        -5405.39265891 Eh         -147088.21207 eV

Components:
Nuclear Repulsion  :        13285.92178235 Eh          361528.31144 eV
Electronic Energy  :       -18691.31444126 Eh         -508616.52351 eV
One Electron Energy:       -33878.23486260 Eh         -921873.63776 eV
Two Electron Energy:        15186.92042135 Eh          413257.11425 eV

Virial components:
Potential Energy   :       -10794.70547150 Eh         -293738.86928 eV
Kinetic Energy     :         5389.31281259 Eh          146650.65721 eV
Virial Ratio       :            2.00298365


DFT components:
N(Alpha)           :      301.000042532971 electrons
N(Beta)            :      301.000042532971 electrons
N(Total)           :      602.000085065942 electrons
E(X)               :     -456.569618340008 Eh       
E(C)               :      -25.144071947933 Eh       
E(XC)              :     -481.713690287941 Eh       
DFET-embed. en.    :        0.000000000000 Eh       

---------------
SCF CONVERGENCE
---------------

  Last Energy change         ...    1.0821e-08  Tolerance :   1.0000e-08
  Last MAX-Density change    ...    5.7732e-15  Tolerance :   1.0000e-07
  Last RMS-Density change    ...    1.2161e-17  Tolerance :   5.0000e-09
  Last Orbital Gradient      ...    8.7567e-07  Tolerance :   1.0000e-05
  Last Orbital Rotation      ...    7.8494e-06  Tolerance :   1.0000e-05

             **** THE GBW FILE WAS UPDATED (BCDT-4F.gbw) ****
             **** DENSITY FILE WAS UPDATED (BCDT-4F.scfp) ****
             **** ENERGY FILE WAS UPDATED (BCDT-4F.en.tmp) ****
             **** THE GBW FILE WAS UPDATED (BCDT-4F.gbw) ****
             **** DENSITY FILE WAS UPDATED (BCDT-4F.scfp) ****
----------------
ORBITAL ENERGIES
----------------

  NO   OCC          E(Eh)            E(eV) 
   0   2.0000     -88.966953     -2420.9139 
   1   2.0000     -88.913645     -2419.4633 
   2   2.0000     -88.910816     -2419.3863 
   3   2.0000     -88.907667     -2419.3006 
   4   2.0000     -88.902258     -2419.1534 
   5   2.0000     -24.722072      -672.7218 
   6   2.0000     -24.721655      -672.7104 
   7   2.0000     -24.719618      -672.6550 
   8   2.0000     -24.719226      -672.6443 
   9   2.0000     -19.186590      -522.0937 
  10   2.0000     -19.177732      -521.8526 
  11   2.0000     -19.127777      -520.4933 
  12   2.0000     -19.124645      -520.4081 
  13   2.0000     -14.368415      -390.9844 
  14   2.0000     -14.366353      -390.9283 
  15   2.0000     -14.327710      -389.8768 
  16   2.0000     -14.326551      -389.8453 
  17   2.0000     -14.325148      -389.8071 
  18   2.0000     -14.323934      -389.7741 
  19   2.0000     -10.297117      -280.1988 
  20   2.0000     -10.296284      -280.1761 
  21   2.0000     -10.294466      -280.1267 
  22   2.0000     -10.293616      -280.1035 
  23   2.0000     -10.278518      -279.6927 
  24   2.0000     -10.273166      -279.5471 
  25   2.0000     -10.272743      -279.5355 
  26   2.0000     -10.270232      -279.4672 
  27   2.0000     -10.253410      -279.0095 
  28   2.0000     -10.252760      -278.9918 
  29   2.0000     -10.252263      -278.9783 
  30   2.0000     -10.251599      -278.9602 
  31   2.0000     -10.250609      -278.9333 
  32   2.0000     -10.250158      -278.9210 
  33   2.0000     -10.249732      -278.9094 
  34   2.0000     -10.249081      -278.8917 
  35   2.0000     -10.240613      -278.6612 
  36   2.0000     -10.238966      -278.6164 
  37   2.0000     -10.238717      -278.6096 
  38   2.0000     -10.235883      -278.5325 
  39   2.0000     -10.234495      -278.4948 
  40   2.0000     -10.231267      -278.4069 
  41   2.0000     -10.230745      -278.3927 
  42   2.0000     -10.227461      -278.3034 
  43   2.0000     -10.227195      -278.2961 
  44   2.0000     -10.226800      -278.2854 
  45   2.0000     -10.226217      -278.2695 
  46   2.0000     -10.225407      -278.2475 
  47   2.0000     -10.225395      -278.2471 
  48   2.0000     -10.224522      -278.2234 
  49   2.0000     -10.223256      -278.1889 
  50   2.0000     -10.223037      -278.1830 
  51   2.0000     -10.222867      -278.1784 
  52   2.0000     -10.221252      -278.1344 
  53   2.0000     -10.217276      -278.0262 
  54   2.0000     -10.217174      -278.0234 
  55   2.0000     -10.217077      -278.0208 
  56   2.0000     -10.214668      -277.9553 
  57   2.0000     -10.214491      -277.9504 
  58   2.0000     -10.213678      -277.9283 
  59   2.0000     -10.213277      -277.9174 
  60   2.0000     -10.211370      -277.8655 
  61   2.0000     -10.210551      -277.8432 
  62   2.0000     -10.208608      -277.7903 
  63   2.0000     -10.207594      -277.7628 
  64   2.0000     -10.205098      -277.6948 
  65   2.0000     -10.204107      -277.6679 
  66   2.0000     -10.203723      -277.6574 
  67   2.0000     -10.203398      -277.6486 
  68   2.0000     -10.199391      -277.5395 
  69   2.0000     -10.199306      -277.5372 
  70   2.0000     -10.193969      -277.3920 
  71   2.0000     -10.191918      -277.3362 
  72   2.0000     -10.190231      -277.2903 
  73   2.0000     -10.188867      -277.2532 
  74   2.0000     -10.186222      -277.1812 
  75   2.0000     -10.184254      -277.1276 
  76   2.0000     -10.181568      -277.0545 
  77   2.0000     -10.173288      -276.8292 
  78   2.0000     -10.172046      -276.7954 
  79   2.0000     -10.169514      -276.7266 
  80   2.0000     -10.152161      -276.2543 
  81   2.0000      -8.037808      -218.7199 
  82   2.0000      -7.989772      -217.4128 
  83   2.0000      -7.986997      -217.3372 
  84   2.0000      -7.983295      -217.2365 
  85   2.0000      -7.977818      -217.0875 
  86   2.0000      -6.002332      -163.3318 
  87   2.0000      -5.995007      -163.1324 
  88   2.0000      -5.994945      -163.1308 
  89   2.0000      -5.952163      -161.9666 
  90   2.0000      -5.949374      -161.8907 
  91   2.0000      -5.948494      -161.8668 
  92   2.0000      -5.946544      -161.8137 
  93   2.0000      -5.945902      -161.7962 
  94   2.0000      -5.945705      -161.7909 
  95   2.0000      -5.943773      -161.7383 
  96   2.0000      -5.941850      -161.6860 
  97   2.0000      -5.940473      -161.6485 
  98   2.0000      -5.939929      -161.6337 
  99   2.0000      -5.936397      -161.5376 
 100   2.0000      -5.934353      -161.4819 
 101   2.0000      -1.265062       -34.4241 
 102   2.0000      -1.262539       -34.3554 
 103   2.0000      -1.251738       -34.0615 
 104   2.0000      -1.249233       -33.9934 
 105   2.0000      -1.110587       -30.2206 
 106   2.0000      -1.084963       -29.5234 
 107   2.0000      -1.058630       -28.8068 
 108   2.0000      -1.055475       -28.7209 
 109   2.0000      -1.052668       -28.6446 
 110   2.0000      -0.947092       -25.7717 
 111   2.0000      -0.943797       -25.6820 
 112   2.0000      -0.942622       -25.6501 
 113   2.0000      -0.939677       -25.5699 
 114   2.0000      -0.924764       -25.1641 
[...]

------------------------
DAVIDSON-DIAGONALIZATION
------------------------

Dimension of the eigenvalue problem            ... 496000
Number of roots to be determined               ...      3
Maximum size of the expansion space            ...     15
Maximum number of iterations                   ...    100
Convergence tolerance for the residual         ...    2.500e-07
Convergence tolerance for the energies         ...    2.500e-07
Orthogonality tolerance                        ...    1.000e-14
Level Shift                                    ...    0.000e+00
Constructing the preconditioner                ... o.k.
Building the initial guess                     ... o.k.
Number of trial vectors determined             ...     15


                       ****Iteration    0****
                <<< Triplet sigma vectors requested >>>

   Memory handling for direct AO based CIS:
   Memory per vector needed      ...   230 MB
   Memory needed                 ...  2071 MB
   Memory available              ...  2000 MB
   Number of vectors per batch   ...     8
   Number of batches             ...     2
   Time for densities:    23.186
   Time for K (COSX):  4025.624
   Time for XC-Integration:    78.240
   Time for Sigma-Completion:   784.459
   Time for densities:     3.404
   Time for K (COSX):  3742.568
   Time for XC-Integration:    11.028
   Time for Sigma-Completion:    99.060
   Size of expansion space: 9
   Lowest Energy          :     0.039288848772
   Maximum Energy change  :     0.060974335963 (vector 2)
   Maximum residual norm  :     0.000536531579

                       ****Iteration    1****
   Time for densities:     9.020
   Time for K (COSX):  3882.844
   Time for XC-Integration:    32.133
   Time for Sigma-Completion:   292.696
   Size of expansion space: 12
   Lowest Energy          :     0.036421219545
   Maximum Energy change  :     0.002867629228 (vector 0)
   Maximum residual norm  :     0.000030963715

                       ****Iteration    2****
   Time for densities:     9.363
   Time for K (COSX):  4003.963
   Time for XC-Integration:    33.116
   Time for Sigma-Completion:   294.722
   Size of expansion space: 15
   Lowest Energy          :     0.036340198733
   Maximum Energy change  :     0.000130722747 (vector 1)
   Maximum residual norm  :     0.000001616271
   Rebuilding the expansion space

                       ****Iteration    3****
   Time for densities:    18.332
   Time for K (COSX):  4009.940
   Time for XC-Integration:    63.768
   Time for Sigma-Completion:   586.197
   Size of expansion space: 6
   Lowest Energy          :     0.036337984782
   Maximum Energy change  :     0.000006040435 (vector 2)
   Maximum residual norm  :     0.000000148712

      *** CONVERGENCE OF RESIDUAL NORM REACHED ***

Storing the converged CI vectors               ... BCDT-4F.cis3

                 *** DAVIDSON DONE ***

------------------------------------
TD-DFT/TDA EXCITED STATES (TRIPLETS)
------------------------------------

the weight of the individual excitations are printed if larger than 1.0e-02

STATE  1:  E=   0.036338 au      0.989 eV     7975.3 cm**-1
   299a -> 302a  :     0.044583 (c= -0.21114723)
   300a -> 301a  :     0.903818 (c= -0.95069326)
   300a -> 302a  :     0.010190 (c=  0.10094633)

STATE  2:  E=   0.047508 au      1.293 eV    10426.8 cm**-1
   298a -> 302a  :     0.013861 (c=  0.11773363)
   299a -> 301a  :     0.355408 (c=  0.59616066)
   299a -> 303a  :     0.017527 (c=  0.13239058)
   300a -> 302a  :     0.567847 (c=  0.75355608)

STATE  3:  E=   0.058540 au      1.593 eV    12847.9 cm**-1
   298a -> 301a  :     0.075629 (c=  0.27500795)
   299a -> 301a  :     0.013246 (c=  0.11509077)
   299a -> 302a  :     0.198265 (c=  0.44526963)
   300a -> 303a  :     0.648253 (c=  0.80514173)
   300a -> 304a  :     0.015474 (c= -0.12439266)
   300a -> 305a  :     0.017226 (c= -0.13124860)

------------------------------
TD-DFT/TDA SPIN-ORBIT COUPLING
------------------------------

Calculating the spin-orbit integrals:             

Loading the effective charges         ... done
Entering the SOC calc. section        ... 
------------------------------------------------------------------------------
                         ORCA SPIN-ORBIT COUPLING CALCULATION
------------------------------------------------------------------------------

GBW file                                    ... BCDT-4F.gbw
Input density                               ... BCDT-4F.cisp0
Output integrals                            ... BCDT-4F.cis
Operator type                               ... Mean-field/Effective potential
   One-Electron Terms                       ... 1
   Coulomb Contribution                     ... 2
   Exchange Contribution                    ... 3
   Correlation Contribution                 ... 0
   Maximum number of centers                ... 4
Setting up the integration grid             ... done
Evaluating density on the grid              ... (NumEl=  601.999347) done
Evaluating Coulomb term semi-analytically   ... done
One-Center Exchange (+SOO)                  ... done
Evaluating the spin-orbit operator          ... done
Transforming the SOC integrals              ... done
Constructing the SOC matrix:                ... done
Diagonalizing the SOC matrix:               ... done

      --------------------------------------------------------------------------------
                      CALCULATED SOCME BETWEEN TRIPLETS AND SINGLETS                  
      --------------------------------------------------------------------------------
           Root                          <T|HSO|S>  (Re, Im) cm-1                     
         T      S             Z                     X                     Y           
      --------------------------------------------------------------------------------
         1      0    (   0.00 ,   -1.71 )    (   0.00 ,   -0.65 )    (  -0.00 ,   -0.01 )
         1      1    (   0.00 ,   -0.03 )    (   0.00 ,    0.37 )    (  -0.00 ,   -0.03 )
         1      2    (   0.00 ,    1.25 )    (   0.00 ,    0.18 )    (  -0.00 ,   -0.51 )
         1      3    (   0.00 ,    0.18 )    (   0.00 ,   -0.25 )    (  -0.00 ,   -0.02 )
         2      0    (   0.00 ,    0.09 )    (   0.00 ,    0.79 )    (  -0.00 ,   -0.12 )
         2      1    (   0.00 ,    0.20 )    (   0.00 ,   -0.09 )    (  -0.00 ,    0.00 )
         2      2    (   0.00 ,    0.06 )    (   0.00 ,   -0.38 )    (  -0.00 ,    0.02 )
         2      3    (   0.00 ,    0.35 )    (   0.00 ,    0.03 )    (  -0.00 ,   -0.49 )
         3      0    (   0.00 ,    1.64 )    (   0.00 ,    0.52 )    (  -0.00 ,   -0.73 )
         3      1    (   0.00 ,    0.01 )    (   0.00 ,   -0.05 )    (  -0.00 ,   -0.01 )
         3      2    (   0.00 ,    0.04 )    (   0.00 ,   -0.12 )    (  -0.00 ,    0.03 )
         3      3    (   0.00 ,   -0.33 )    (   0.00 ,    0.60 )    (  -0.00 ,    0.07 )

SOC stabilization of the ground state:  -0.0008 cm-1
Eigenvalues of the SOC matrix:

   State:        cm-1         eV
     0:          0.00         0.0000
     1:       7975.27         0.9888
     2:       7975.27         0.9888
     3:       7975.27         0.9888
     4:      10426.80         1.2928
     5:      10426.80         1.2928
     6:      10426.80         1.2928
     7:      12752.69         1.5811
     8:      12847.94         1.5929
     9:      12847.94         1.5929
    10:      12847.94         1.5929
    11:      14934.63         1.8517
    12:      16537.95         2.0504

The threshold for printing is 0.0100
Eigenvectors of the SOC matrix:

             E(cm-1)  Weight      Real         Imag     : Root  Spin  Ms
 STATE  0:      0.00
                      1.00000      0.81340     -0.58170 : 0     0     0
 STATE  1:   7975.27
                      0.11612     -0.00260     -0.34075 : 1     1     0
                      0.44194      0.00354      0.66478 : 1     1    -1
                      0.44194     -0.00660     -0.66475 : 1     1     1
 STATE  2:   7975.27
                      0.49998      0.06358     -0.70423 : 1     1    -1
                      0.49998      0.05678     -0.70481 : 1     1     1
 STATE  3:   7975.27
                      0.88383     -0.00032     -0.94012 : 1     1     0
                      0.05808      0.00572     -0.24094 : 1     1    -1
                      0.05808      0.00588      0.24093 : 1     1     1
 STATE  4:  10426.80
                      0.97658     -0.98821     -0.00432 : 2     1     0
                      0.01171     -0.06926      0.08316 : 2     1    -1
                      0.01171      0.06853      0.08376 : 2     1     1
 STATE  5:  10426.80
                      0.01372     -0.11712      0.00048 : 2     1     0
                      0.49314     -0.01354     -0.70211 : 2     1    -1
                      0.49314      0.00775     -0.70220 : 2     1     1
 STATE  6:  10426.80
                      0.49515     -0.02954      0.70305 : 2     1    -1
                      0.49515      0.03444     -0.70282 : 2     1     1
 STATE  7:  12752.69
                      1.00000     -0.12141     -0.99260 : 1     0     0
 STATE  8:  12847.94
                      0.48799      0.64035     -0.27919 : 3     1     0
                      0.25600     -0.34433      0.37073 : 3     1    -1
                      0.25600      0.50597      0.00000 : 3     1     1
 STATE  9:  12847.94
                      0.01002     -0.04883     -0.08739 : 3     1     0
                      0.49499      0.36878     -0.59916 : 3     1    -1
                      0.49499      0.70355     -0.00000 : 3     1     1
 STATE 10:  12847.94
                      0.50198      0.58044     -0.40630 : 3     1     0
                      0.24901      0.17081     -0.46886 : 3     1    -1
                      0.24901     -0.49901      0.00000 : 3     1     1
 STATE 11:  14934.63
                      1.00000     -0.24115      0.97049 : 2     0     0
 STATE 12:  16537.95
                      1.00000     -0.12006     -0.99277 : 3     0     0

-----------------------------
TD-DFT/TDA-EXCITATION SPECTRA
-----------------------------

Center of mass = ( 18.1651,  3.5230, 12.8817)
Calculating the Dipole integrals                  ... done
Transforming integrals                            ... done
Calculating the Linear Momentum integrals         ... done
Transforming integrals                            ... done
Calculating angular momentum integrals            ... done
Transforming integrals                            ... done

-----------------------------------------------------------------------------
         ABSORPTION SPECTRUM VIA TRANSITION ELECTRIC DIPOLE MOMENTS
-----------------------------------------------------------------------------
State   Energy    Wavelength  fosc         T2        TX        TY        TZ  
        (cm-1)      (nm)                 (au**2)    (au)      (au)      (au) 
-----------------------------------------------------------------------------
   1   12752.7    784.1   3.310847200  85.46982  -3.99165  -0.90804  -8.28927
   2   14934.6    669.6   0.105395408   2.32329   0.58013   0.04922   1.40866
   3   16538.0    604.7   0.006527125   0.12993   0.06386  -0.33122   0.12708
   4    7975.3   1253.9   spin forbidden (mult=3)
   5   10426.8    959.1   spin forbidden (mult=3)
   6   12847.9    778.3   spin forbidden (mult=3)

-----------------------------------------------------------------------------
         ABSORPTION SPECTRUM VIA TRANSITION VELOCITY DIPOLE MOMENTS
-----------------------------------------------------------------------------
State   Energy    Wavelength   fosc        P2         PX        PY        PZ  
        (cm-1)      (nm)                 (au**2)     (au)      (au)      (au) 
-----------------------------------------------------------------------------
   1   12752.7    784.1   0.603724613   0.05262   0.10436   0.03239   0.20169
   2   14934.6    669.6   0.024636644   0.00251  -0.02151  -0.01217  -0.04363
   3   16538.0    604.7   0.015753997   0.00178  -0.00831  -0.04071  -0.00737
   4    7975.3   1253.9   spin forbidden (mult=3)
   5   10426.8    959.1   spin forbidden (mult=3)
   6   12847.9    778.3   spin forbidden (mult=3)

-------------------------------------------------------------------
                             CD SPECTRUM
-------------------------------------------------------------------
State  Energy     Wavelength     R         MX        MY        MZ   
       (cm-1)       (nm)     (1e40*cgs)   (au)      (au)      (au)  
-------------------------------------------------------------------
   1   12752.7    784.1    334.07293  -0.22414  -0.73203   0.10264
   2   14934.6    669.6      8.92460  -0.07814   0.14328   0.04061
   3   16538.0    604.7     42.57385  -0.01963  -0.23724   0.10214
   4    7975.3   1253.9 spin forbidden
   5   10426.8    959.1 spin forbidden
   6   12847.9    778.3 spin forbidden

-------------------------------------------
SOC CORRECTED TD-DFT/TDA-EXCITATION SPECTRA
--------------------------------------------

-----------------------------------------------------------------------------
  SOC CORRECTED ABSORPTION SPECTRUM VIA TRANSITION ELECTRIC DIPOLE MOMENTS*  
-----------------------------------------------------------------------------
State   Energy  Wavelength   fosc         T2         TX        TY        TZ  
        (cm-1)    (nm)                  (au**2)     (au)      (au)      (au) 
-----------------------------------------------------------------------------
   1    7975.3   1253.9   0.000000008   0.00000   0.00024   0.00005   0.00052
   2    7975.3   1253.9   0.000000000   0.00000   0.00003   0.00000   0.00000
   3    7975.3   1253.9   0.000000002   0.00000   0.00018   0.00004   0.00019
   4   10426.8    959.1   0.000000101   0.00000   0.00078   0.00016   0.00160
   5   10426.8    959.1   0.000000006   0.00000   0.00020   0.00006   0.00039
   6   10426.8    959.1   0.000000000   0.00000   0.00000   0.00001   0.00004
   7   12752.7    784.1   3.310846103  85.46979   3.99165   0.90804   8.28927
   8   12847.9    778.3   0.000000701   0.00002   0.00180   0.00043   0.00381
   9   12847.9    778.3   0.000000123   0.00000   0.00080   0.00020   0.00157
  10   12847.9    778.3   0.000000142   0.00000   0.00082   0.00025   0.00171
  11   14934.6    669.6   0.105395380   2.32329   0.58013   0.04922   1.40866
  12   16538.0    604.7   0.006527127   0.12993   0.06386   0.33122   0.12708

-----------------------------------------------------------------------------
  SOC CORRECTED ABSORPTION SPECTRUM VIA TRANSITION VELOCITY DIPOLE MOMENTS*  
-----------------------------------------------------------------------------
State   Energy  Wavelength   fosc         P2         PX        PY        PZ  
        (cm-1)    (nm)                  (au**2)     (au)      (au)      (au) 
-----------------------------------------------------------------------------
   1    7975.3   1253.9   0.000000009   0.00000   0.00001   0.00000   0.00002
   2    7975.3   1253.9   0.000000000   0.00000   0.00000   0.00000   0.00000
   3    7975.3   1253.9   0.000000001   0.00000   0.00000   0.00000   0.00001
   4   10426.8    959.1   0.000000005   0.00000   0.00001   0.00000   0.00002
   5   10426.8    959.1   0.000000000   0.00000   0.00000   0.00000   0.00000
   6   10426.8    959.1   0.000000001   0.00000   0.00000   0.00000   0.00001
   7   12752.7    784.1   0.603724363   0.05262   0.10436   0.03239   0.20169
   8   12847.9    778.3   0.000000118   0.00000   0.00005   0.00001   0.00009
   9   12847.9    778.3   0.000000019   0.00000   0.00002   0.00000   0.00004
  10   12847.9    778.3   0.000000022   0.00000   0.00002   0.00001   0.00004
  11   14934.6    669.6   0.024636636   0.00251   0.02151   0.01217   0.04363
  12   16538.0    604.7   0.015753994   0.00178   0.00831   0.04071   0.00737

-------------------------------------------------------------------
                    SOC CORRECTED CD SPECTRUM*                     
-------------------------------------------------------------------
State   Energy Wavelength       R         MX        MY        MZ   
        (cm-1)   (nm)       (1e40*sgs)   (au)      (au)      (au)  
-------------------------------------------------------------------
   1    7975.3   1253.9      0.00000   0.00002   0.00005   0.00000
   2    7975.3   1253.9      0.00000   0.00000   0.00000   0.00000
   3    7975.3   1253.9      0.00000   0.00001   0.00001   0.00001
   4   10426.8    959.1      0.00000   0.00002   0.00007   0.00001
   5   10426.8    959.1      0.00000   0.00000   0.00003   0.00001
   6   10426.8    959.1      0.00000   0.00002   0.00002   0.00001
   7   12752.7    784.1    334.07281   0.22414   0.73203   0.10264
   8   12847.9    778.3      0.00005   0.00011   0.00036   0.00006
   9   12847.9    778.3      0.00001   0.00003   0.00014   0.00002
  10   12847.9    778.3      0.00002   0.00003   0.00017   0.00002
  11   14934.6    669.6      8.92453   0.07814   0.14328   0.04061
  12   16538.0    604.7     42.57384   0.01963   0.23724   0.10214

*The X,Y and Z components are the absolute values of the complex numbers

Total run time:    71433.449 sec

           *** ORCA-CIS/TD-DFT FINISHED WITHOUT ERROR ***

---------------------------
SOC CIS/TD-DFT TOTAL ENERGY
---------------------------

    E(SCF)        =  -5405.392658910 Eh
    E(SOC CIS)    =      0.036337983 Eh (SOC Root  1)
    ----------------------------- ---------
    E(tot)        =  -5405.356320927 Eh


-------------------------   --------------------
FINAL SINGLE POINT ENERGY     -5405.356320926842
-------------------------   --------------------


                            ***************************************
                            *     ORCA property calculations      *
                            ***************************************

                                    ---------------------
                                    Active property flags
                                    ---------------------
   (+) Dipole Moment


------------------------------------------------------------------------------
                       ORCA ELECTRIC PROPERTIES CALCULATION
------------------------------------------------------------------------------

Dipole Moment Calculation                       ... on
Quadrupole Moment Calculation                   ... off
Polarizability Calculation                      ... off
GBWName                                         ... BCDT-4F.gbw
Electron density file                           ... BCDT-4F.scfp
The origin for moment calculation is the CENTER OF MASS  = (18.165079,  3.522965 12.881712)

-------------
DIPOLE MOMENT
-------------
                                X             Y             Z
Electronic contribution:    -71.99742       2.30916      30.65104
Nuclear contribution   :     73.80578      -2.22317     -32.01280
                        -----------------------------------------
Total Dipole Moment    :      1.80836       0.08599      -1.36176
                        -----------------------------------------
Magnitude (a.u.)       :      2.26538
Magnitude (Debye)      :      5.75813



--------------------
Rotational spectrum 
--------------------
 
Rotational constants in cm-1:     0.002936     0.000156     0.000153 
Rotational constants in MHz :    88.032623     4.670359     4.579373 

 Dipole components along the rotational axes: 
x,y,z [a.u.] :    -0.414023     2.217634     0.206448 
x,y,z [Debye]:    -1.052362     5.636778     0.524750 

 

Timings for individual modules:

Sum of individual times         ...    92573.871 sec (=1542.898 min)
GTO integral calculation        ...        9.636 sec (=   0.161 min)   0.0 %
SCF iterations                  ...    21130.507 sec (= 352.175 min)  22.8 %
CIS module                      ...    71433.728 sec (=1190.562 min)  77.2 %
                             ****ORCA TERMINATED NORMALLY****
TOTAL RUN TIME: 1 days 1 hours 42 minutes 57 seconds 279 msec
