
                                 *****************
                                 * O   R   C   A *
                                 *****************

           --- An Ab Initio, DFT and Semiempirical electronic structure package ---

                  #######################################################
                  #                        -***-                        #
                  #          Department of theory and spectroscopy      #
                  #               Directorship: Frank Neese             #
                  #        Max Planck Institute fuer Kohlenforschung    #
                  #                Kaiser Wilhelm Platz 1               #
                  #                 D-45470 Muelheim/Ruhr               #
                  #                      Germany                        #
                  #                                                     #
                  #                  All rights reserved                #
                  #                        -***-                        #
                  #######################################################


                         Program Version 4.2.0 -  RELEASE  -


 With contributions from (in alphabetic order):
   Daniel Aravena         : Magnetic Suceptibility
   Michael Atanasov       : Ab Initio Ligand Field Theory (pilot matlab implementation)
   Alexander A. Auer      : GIAO ZORA, VPT2
   Ute Becker             : Parallelization
   Giovanni Bistoni       : ED, misc. LED, open-shell LED, HFLED
   Martin Brehm           : Molecular dynamics
   Dmytro Bykov           : SCF Hessian
   Vijay G. Chilkuri      : MRCI spin determinant printing, contributions to CSF-ICE
   Dipayan Datta          : RHF DLPNO-CCSD density
   Achintya Kumar Dutta   : EOM-CC, STEOM-CC
   Dmitry Ganyushin       : Spin-Orbit,Spin-Spin,Magnetic field MRCI
   Miquel Garcia          : C-PCM Hessian, Gaussian charge scheme
   Yang Guo               : DLPNO-NEVPT2, CIM, IAO-localization
   Andreas Hansen         : Spin unrestricted coupled pair/coupled cluster methods
   Benjamin Helmich-Paris : CASSCF linear response (MC-RPA)
   Lee Huntington         : MR-EOM, pCC
   Robert Izsak           : Overlap fitted RIJCOSX, COSX-SCS-MP3, EOM
   Christian Kollmar      : KDIIS, OOCD, Brueckner-CCSD(T), CCSD density
   Simone Kossmann        : Meta GGA functionals, TD-DFT gradient, OOMP2, MP2 Hessian
   Martin Krupicka        : AUTO-CI
   Lucas Lang             : DCDCAS
   Dagmar Lenk            : GEPOL surface, SMD
   Dimitrios Liakos       : Extrapolation schemes; Compound Job, initial MDCI parallelization
   Dimitrios Manganas     : Further ROCIS development; embedding schemes
   Dimitrios Pantazis     : SARC Basis sets
   Taras Petrenko         : DFT Hessian,TD-DFT gradient, ASA, ECA, R-Raman, ABS, FL, XAS/XES, NRVS
   Peter Pinski           : DLPNO-MP2, DLPNO-MP2 Gradient
   Christoph Reimann      : Effective Core Potentials
   Marius Retegan         : Local ZFS, SOC
   Christoph Riplinger    : Optimizer, TS searches, QM/MM, DLPNO-CCSD(T), (RO)-DLPNO pert. Triples
   Tobias Risthaus        : Range-separated hybrids, TD-DFT gradient, RPA, STAB
   Michael Roemelt        : Original ROCIS implementation
   Masaaki Saitow         : Open-shell DLPNO-CCSD energy and density
   Barbara Sandhoefer     : DKH picture change effects
   Avijit Sen             : IP-ROCIS
   Kantharuban Sivalingam : CASSCF convergence, NEVPT2, FIC-MRCI
   Bernardo de Souza      : ESD, SOC TD-DFT
   Georgi Stoychev        : AutoAux, RI-MP2 NMR
   Willem Van den Heuvel  : Paramagnetic NMR
   Boris Wezisla          : Elementary symmetry handling
   Frank Wennmohs         : Technical directorship


 We gratefully acknowledge several colleagues who have allowed us to
 interface, adapt or use parts of their codes:
   Stefan Grimme, W. Hujo, H. Kruse,             : VdW corrections, initial TS optimization,
                  C. Bannwarth                     DFT functionals, gCP, sTDA/sTD-DF
   Ed Valeev, F. Pavosevic, A. Kumar             : LibInt (2-el integral package), F12 methods
   Garnet Chan, S. Sharma, J. Yang, R. Olivares  : DMRG
   Ulf Ekstrom                                   : XCFun DFT Library
   Mihaly Kallay                                 : mrcc  (arbitrary order and MRCC methods)
   Andreas Klamt, Michael Diedenhofen            : otool_cosmo (COSMO solvation model)
   Jiri Pittner, Ondrej Demel                    : Mk-CCSD
   Frank Weinhold                                : gennbo (NPA and NBO analysis)
   Christopher J. Cramer and Donald G. Truhlar   : smd solvation model
   Lars Goerigk                                  : TD-DFT with DH, B97 family of functionals
   V. Asgeirsson, H. Jonsson                     : NEB implementation
   FAccTs GmbH                                   : IRC, NEB, NEB-TS, Multilevel, MM, QM/MM, CI optimization
   S Lehtola, MJT Oliveira, MAL Marques          : LibXC Library


 Your calculation uses the libint2 library for the computation of 2-el integrals
 For citations please refer to: http://libint.valeyev.net

 Your ORCA version has been built with support for libXC version: 4.2.3
 For citations please refer to: https://tddft.org/programs/libxc/

 This ORCA versions uses:
   CBLAS   interface :  Fast vector & matrix operations
   LAPACKE interface :  Fast linear algebra routines
   SCALAPACK package :  Parallel linear algebra routines


----- Orbital basis set information -----
Your calculation utilizes the basis: def2-TZVP
   F. Weigend and R. Ahlrichs, Phys. Chem. Chem. Phys. 7, 3297 (2005).

----- AuxJ basis set information -----
Your calculation utilizes the auxiliary basis: def2/J
   F. Weigend, Phys. Chem. Chem. Phys. 8, 1057 (2006).

================================================================================
                                        WARNINGS
                       Please study these warnings very carefully!
================================================================================

INFO   : Checking CIS options ...

WARNING: (CIS/TDDFT): Spin-orbit needs TRIPLETS set to TRUE
  ===> : ajusting flags

WARNING: CIS/ROCIS methods need fully converged wavefunctions
  ===> : Setting SCFConvForced true
         You can overwrite this default with %scf ConvForced false 


INFO   : the flag for use of LIBINT has been found!

================================================================================
                                       INPUT FILE
================================================================================
NAME = BT6IC-HD-4Cl.inp
|  1> # ORCA input file
|  2> # BT6IC-HD-4Cl.out: Geometry 49
|  3> ! B3LYP def2-TZVP def2/J RIJCOSX Grid4 TightSCF
|  4> 
|  5> %maxcore 6000
|  6> %tddft
|  7>   maxdim 5
|  8>   nroots 3
|  9>   dosoc true
| 10>   end
| 11> %pal
| 12>   nprocs 6
| 13>   end
| 14> 
| 15> 
| 16> * xyz 0 1
| 17>    C        3.28537         6.67626        -0.29350
| 18>    O        4.26803         7.38619        -0.35043
| 19>    C        1.86343         7.10164        -0.33313
| 20>    C        1.35529         8.38498        -0.46032
| 21>    C       -0.03336         8.55020        -0.49890
| 22>    C       -0.87818         7.42193        -0.41475
| 23>    C       -0.35319         6.13102        -0.25930
| 24>    C        1.03265         5.96897        -0.21266
| 25>    C        1.88304         4.76988         0.00656
| 26>    C        1.42866         3.56444         0.51665
| 27>    C        2.31219         2.56557         1.02067
| 28>    N        3.01607         1.74930         1.45557
| 29>    C        0.04224         3.25488         0.67175
| 30>    N       -1.07918         2.97165         0.78761
| 31>    C        3.26297         5.17586        -0.20239
| 32>    C        4.48091         4.54320        -0.32426
| 33>    C        4.91899         3.21176        -0.54873
| 34>    S        6.53938         2.85520         0.08768
| 35>    C        6.43645         1.23108        -0.47890
| 36>    C        5.22883         0.99556        -1.17226
| 37>    C        4.36016         2.11089        -1.22765
| 38>    C        3.10591         2.18720        -2.05593
| 39>    C        2.19012         0.96080        -2.00020
| 40>    S        5.11123        -0.66383        -1.77776
| 41>    C        6.67433        -1.01234        -1.08920
| 42>    C        7.24510         0.07656        -0.42277
| 43>    N        8.50884        -0.25261         0.04127
| 44>    C        9.46536         0.83882         0.22118
| 45>    C       10.32562         1.15126        -1.01997
| 46>    C        8.75601        -1.58564        -0.32414
| 47>    C        7.61541        -2.06276        -1.04790
| 48>    C        7.57857        -3.37249        -1.62088
| 49>    N        6.58253        -3.91633        -2.30699
| 50>    S        7.08500        -5.42601        -2.76384
| 51>    N        8.59591        -5.40728        -2.08609
| 52>    C        8.73918        -4.22866        -1.49459
| 53>    C        9.85188        -3.77709        -0.71356
| 54>    C        9.85023        -2.49165        -0.07124
| 55>    N       10.97020        -2.43047         0.76259
| 56>    C       11.38599        -1.44894         1.76047
| 57>    C       12.45919        -0.42607         1.31998
| 58>    C       11.65978        -3.62437         0.64109
| 59>    C       11.01507        -4.45193        -0.28933
| 60>    S       11.82964        -5.97406        -0.54591
| 61>    C       13.04719        -5.50856         0.64951
| 62>    C       12.79237        -4.24099         1.21926
| 63>    S       13.96476        -3.85753         2.42383
| 64>    C       14.83100        -5.38710         2.12949
| 65>    C       14.22429        -6.14625         1.10652
| 66>    C       14.83831        -7.32574         0.40147
| 67>    C       15.22245        -6.99356        -1.05166
| 68>    C       16.04762        -5.50167         2.85162
| 69>    C       16.81742        -6.58786         3.21581
| 70>    C       18.16802        -6.50490         3.77154
| 71>    C       18.97412        -5.38421         3.89010
| 72>    C       18.61551        -4.08124         3.42218
| 73>    N       18.37204        -3.00793         3.04655
| 74>    C       20.26162        -5.42460         4.50986
| 75>    N       21.30344        -5.43798         5.02462
| 76>    C       18.57093        -7.87561         4.15992
| 77>    C       19.77174        -8.38091         4.66253
| 78>    C       19.88698        -9.75788         4.88297
| 79>    C       18.80920       -10.63215         4.62070
| 80>    C       17.59997       -10.12207         4.13349
| 81>    C       17.50409        -8.75795         3.90177
| 82>    C       16.35330        -8.00384         3.32991
| 83>    O       15.25453        -8.45931         3.07707
| 84>   Cl       18.97441       -12.33468         4.88351
| 85>   Cl       -0.69375        10.14323        -0.65005
| 86>    C       13.08272         0.23571         2.55997
| 87>    C       12.09648         0.98085         3.46215
| 88>    C       13.53723        -0.99377         0.39506
| 89>    C        9.51034         1.18197        -2.32144
| 90>    C       10.36402         1.31429        -3.58282
| 91>    C       11.06684         2.46984        -0.77067
| 92>   Cl       -2.59708         7.61383        -0.49317
| 93>   Cl       21.39354       -10.36765         5.47966
| 94>    H        2.02176         9.24559        -0.52851
| 95>    H       -1.04638         5.29701        -0.17658
| 96>    H        5.29978         5.27258        -0.23352
| 97>    H        3.42606         2.35423        -3.10166
| 98>    H        2.54024         3.08377        -1.78105
| 99>    H        2.65854         0.07505        -2.45365
|100>    H        1.26509         1.15912        -2.56096
|101>    H        1.91908         0.70377        -0.96698
|102>    H       10.10001         0.65300         1.09116
|103>    H        8.87221         1.72492         0.48600
|104>    H       11.07009         0.34150        -1.12427
|105>    H       11.77852        -2.02965         2.61113
|106>    H       10.48846        -0.94322         2.13730
|107>    H       11.95501         0.36776         0.75780
|108>    H       14.12944        -8.17039         0.43634
|109>    H       15.72539        -7.66435         0.94004
|110>    H       14.35471        -6.68521        -1.65351
|111>    H       15.67780        -7.87120        -1.53647
|112>    H       15.95479        -6.17154        -1.08139
|113>    H       16.42411        -4.53317         3.18832
|114>    H       20.62874        -7.75234         4.88956
|115>    H       16.75930       -10.78414         3.92113
|116>    H       13.85596         0.94021         2.21187
|117>    H       13.61915        -0.53298         3.14480
|118>    H       11.51201         1.72187         2.89087
|119>    H       12.62693         1.52618         4.25755
|120>    H       11.38071         0.30419         3.95661
|121>    H       14.17512        -1.72647         0.90926
|122>    H       14.18936        -0.17780         0.04913
|123>    H       13.10716        -1.47690        -0.49472
|124>    H        8.77693         2.00615        -2.26809
|125>    H        8.92202         0.25550        -2.40251
|126>    H       10.90735         2.27102        -3.62764
|127>    H        9.73635         1.24961        -4.48485
|128>    H       11.11319         0.50673        -3.64138
|129>    H       10.35388         3.31211        -0.76433
|130>    H       11.81653         2.66937        -1.54900
|131>    H       11.59286         2.46888         0.19719
|132> *
|133> 
|134>                          ****END OF INPUT****
================================================================================

                       ****************************
                       * Single Point Calculation *
                       ****************************

---------------------------------
CARTESIAN COORDINATES (ANGSTROEM)
---------------------------------
  C      3.285370    6.676260   -0.293500
  O      4.268030    7.386190   -0.350430
  C      1.863430    7.101640   -0.333130
  C      1.355290    8.384980   -0.460320
  C     -0.033360    8.550200   -0.498900
  C     -0.878180    7.421930   -0.414750
  C     -0.353190    6.131020   -0.259300
  C      1.032650    5.968970   -0.212660
  C      1.883040    4.769880    0.006560
  C      1.428660    3.564440    0.516650
  C      2.312190    2.565570    1.020670
  N      3.016070    1.749300    1.455570
  C      0.042240    3.254880    0.671750
  N     -1.079180    2.971650    0.787610
  C      3.262970    5.175860   -0.202390
  C      4.480910    4.543200   -0.324260
  C      4.918990    3.211760   -0.548730
  S      6.539380    2.855200    0.087680
  C      6.436450    1.231080   -0.478900
  C      5.228830    0.995560   -1.172260
  C      4.360160    2.110890   -1.227650
  C      3.105910    2.187200   -2.055930
  C      2.190120    0.960800   -2.000200
  S      5.111230   -0.663830   -1.777760
  C      6.674330   -1.012340   -1.089200
  C      7.245100    0.076560   -0.422770
  N      8.508840   -0.252610    0.041270
  C      9.465360    0.838820    0.221180
  C     10.325620    1.151260   -1.019970
  C      8.756010   -1.585640   -0.324140
  C      7.615410   -2.062760   -1.047900
  C      7.578570   -3.372490   -1.620880
  N      6.582530   -3.916330   -2.306990
  S      7.085000   -5.426010   -2.763840
  N      8.595910   -5.407280   -2.086090
  C      8.739180   -4.228660   -1.494590
  C      9.851880   -3.777090   -0.713560
  C      9.850230   -2.491650   -0.071240
  N     10.970200   -2.430470    0.762590
  C     11.385990   -1.448940    1.760470
  C     12.459190   -0.426070    1.319980
  C     11.659780   -3.624370    0.641090
  C     11.015070   -4.451930   -0.289330
  S     11.829640   -5.974060   -0.545910
  C     13.047190   -5.508560    0.649510
  C     12.792370   -4.240990    1.219260
  S     13.964760   -3.857530    2.423830
  C     14.831000   -5.387100    2.129490
  C     14.224290   -6.146250    1.106520
  C     14.838310   -7.325740    0.401470
  C     15.222450   -6.993560   -1.051660
  C     16.047620   -5.501670    2.851620
  C     16.817420   -6.587860    3.215810
  C     18.168020   -6.504900    3.771540
  C     18.974120   -5.384210    3.890100
  C     18.615510   -4.081240    3.422180
  N     18.372040   -3.007930    3.046550
  C     20.261620   -5.424600    4.509860
  N     21.303440   -5.437980    5.024620
  C     18.570930   -7.875610    4.159920
  C     19.771740   -8.380910    4.662530
  C     19.886980   -9.757880    4.882970
  C     18.809200  -10.632150    4.620700
  C     17.599970  -10.122070    4.133490
  C     17.504090   -8.757950    3.901770
  C     16.353300   -8.003840    3.329910
  O     15.254530   -8.459310    3.077070
  Cl    18.974410  -12.334680    4.883510
  Cl    -0.693750   10.143230   -0.650050
  C     13.082720    0.235710    2.559970
  C     12.096480    0.980850    3.462150
  C     13.537230   -0.993770    0.395060
  C      9.510340    1.181970   -2.321440
  C     10.364020    1.314290   -3.582820
  C     11.066840    2.469840   -0.770670
  Cl    -2.597080    7.613830   -0.493170
  Cl    21.393540  -10.367650    5.479660
  H      2.021760    9.245590   -0.528510
  H     -1.046380    5.297010   -0.176580
  H      5.299780    5.272580   -0.233520
  H      3.426060    2.354230   -3.101660
  H      2.540240    3.083770   -1.781050
  H      2.658540    0.075050   -2.453650
  H      1.265090    1.159120   -2.560960
  H      1.919080    0.703770   -0.966980
  H     10.100010    0.653000    1.091160
  H      8.872210    1.724920    0.486000
  H     11.070090    0.341500   -1.124270
  H     11.778520   -2.029650    2.611130
  H     10.488460   -0.943220    2.137300
  H     11.955010    0.367760    0.757800
  H     14.129440   -8.170390    0.436340
  H     15.725390   -7.664350    0.940040
  H     14.354710   -6.685210   -1.653510
  H     15.677800   -7.871200   -1.536470
  H     15.954790   -6.171540   -1.081390
  H     16.424110   -4.533170    3.188320
  H     20.628740   -7.752340    4.889560
  H     16.759300  -10.784140    3.921130
  H     13.855960    0.940210    2.211870
  H     13.619150   -0.532980    3.144800
  H     11.512010    1.721870    2.890870
  H     12.626930    1.526180    4.257550
  H     11.380710    0.304190    3.956610
  H     14.175120   -1.726470    0.909260
  H     14.189360   -0.177800    0.049130
  H     13.107160   -1.476900   -0.494720
  H      8.776930    2.006150   -2.268090
  H      8.922020    0.255500   -2.402510
  H     10.907350    2.271020   -3.627640
  H      9.736350    1.249610   -4.484850
  H     11.113190    0.506730   -3.641380
  H     10.353880    3.312110   -0.764330
  H     11.816530    2.669370   -1.549000
  H     11.592860    2.468880    0.197190

----------------------------
CARTESIAN COORDINATES (A.U.)
----------------------------
  NO LB      ZA    FRAG     MASS         X           Y           Z
   0 C     6.0000    0    12.011    6.208450   12.616303   -0.554635
   1 O     8.0000    0    15.999    8.065408   13.957876   -0.662217
   2 C     6.0000    0    12.011    3.521372   13.420155   -0.629524
   3 C     6.0000    0    12.011    2.561127   15.845316   -0.869879
   4 C     6.0000    0    12.011   -0.063041   16.157536   -0.942784
   5 C     6.0000    0    12.011   -1.659520   14.025415   -0.783764
   6 C     6.0000    0    12.011   -0.667432   11.585949   -0.490006
   7 C     6.0000    0    12.011    1.951426   11.279719   -0.401869
   8 C     6.0000    0    12.011    3.558430    9.013767    0.012397
   9 C     6.0000    0    12.011    2.699776    6.735815    0.976327
  10 C     6.0000    0    12.011    4.369406    4.848225    1.928787
  11 N     7.0000    0    14.007    5.699546    3.305698    2.750629
  12 C     6.0000    0    12.011    0.079822    6.150832    1.269424
  13 N     7.0000    0    14.007   -2.039355    5.615605    1.488367
  14 C     6.0000    0    12.011    6.166120    9.780958   -0.382462
  15 C     6.0000    0    12.011    8.467693    8.585404   -0.612763
  16 C     6.0000    0    12.011    9.295544    6.069347   -1.036949
  17 S    16.0000    0    32.060   12.357637    5.395546    0.165691
  18 C     6.0000    0    12.011   12.163128    2.326404   -0.904990
  19 C     6.0000    0    12.011    9.881057    1.881336   -2.215250
  20 C     6.0000    0    12.011    8.239508    3.989004   -2.319922
  21 C     6.0000    0    12.011    5.869319    4.133209   -3.885145
  22 C     6.0000    0    12.011    4.138727    1.815649   -3.779830
  23 S    16.0000    0    32.060    9.658825   -1.254457   -3.359480
  24 C     6.0000    0    12.011   12.612656   -1.913045   -2.058290
  25 C     6.0000    0    12.011   13.691255    0.144677   -0.798920
  26 N     7.0000    0    14.007   16.079377   -0.477364    0.077989
  27 C     6.0000    0    12.011   17.886938    1.585140    0.417970
  28 C     6.0000    0    12.011   19.512594    2.175566   -1.927464
  29 C     6.0000    0    12.011   16.546461   -2.996425   -0.612536
  30 C     6.0000    0    12.011   14.391039   -3.898051   -1.980244
  31 C     6.0000    0    12.011   14.321422   -6.373082   -3.063019
  32 N     7.0000    0    14.007   12.439179   -7.400791   -4.359579
  33 S    16.0000    0    32.060   13.388710  -10.253673   -5.222901
  34 N     7.0000    0    14.007   16.243916  -10.218278   -3.942139
  35 C     6.0000    0    12.011   16.514657   -7.991009   -2.824366
  36 C     6.0000    0    12.011   18.617355   -7.137666   -1.348433
  37 C     6.0000    0    12.011   18.614237   -4.708536   -0.134624
  38 N     7.0000    0    14.007   20.730674   -4.592923    1.441086
  39 C     6.0000    0    12.011   21.516403   -2.738100    3.326806
  40 C     6.0000    0    12.011   23.544457   -0.805156    2.494401
  41 C     6.0000    0    12.011   22.033791   -6.849067    1.211485
  42 C     6.0000    0    12.011   20.815466   -8.412928   -0.546754
  43 S    16.0000    0    32.060   22.354780  -11.289337   -1.031620
  44 C     6.0000    0    12.011   24.655616  -10.409670    1.227396
  45 C     6.0000    0    12.011   24.174076   -8.014310    2.304067
  46 S    16.0000    0    32.060   26.389572   -7.289675    4.580375
  47 C     6.0000    0    12.011   28.026528  -10.180144    4.024153
  48 C     6.0000    0    12.011   26.880013  -11.614729    2.091020
  49 C     6.0000    0    12.011   28.040342  -13.843642    0.758668
  50 C     6.0000    0    12.011   28.766262  -13.215913   -1.987349
  51 C     6.0000    0    12.011   30.325607  -10.396650    5.388781
  52 C     6.0000    0    12.011   31.780318  -12.449251    6.077000
  53 C     6.0000    0    12.011   34.332582  -12.292480    7.127178
  54 C     6.0000    0    12.011   35.855890  -10.174682    7.351224
  55 C     6.0000    0    12.011   35.178216   -7.712426    6.466983
  56 N     7.0000    0    14.007   34.718124   -5.684164    5.757145
  57 C     6.0000    0    12.011   38.288913  -10.251008    8.522400
  58 N     7.0000    0    14.007   40.257667  -10.276293    9.495156
  59 C     6.0000    0    12.011   35.093972  -14.882746    7.861110
  60 C     6.0000    0    12.011   37.363174  -15.837625    8.810905
  61 C     6.0000    0    12.011   37.580946  -18.439721    9.227476
  62 C     6.0000    0    12.011   35.544237  -20.091852    8.731858
  63 C     6.0000    0    12.011   33.259123  -19.127940    7.811164
  64 C     6.0000    0    12.011   33.077936  -16.550127    7.373277
  65 C     6.0000    0    12.011   30.903258  -15.125066    6.292618
  66 O     8.0000    0    15.999   28.826884  -15.985779    5.814820
  67 Cl   17.0000    0    35.453   35.856438  -23.309167    9.228496
  68 Cl   17.0000    0    35.453   -1.310998   19.167927   -1.228416
  69 C     6.0000    0    12.011   24.722758    0.445427    4.837642
  70 C     6.0000    0    12.011   22.859034    1.853538    6.542515
  71 C     6.0000    0    12.011   25.581657   -1.877953    0.746555
  72 C     6.0000    0    12.011   17.971938    2.233600   -4.386886
  73 C     6.0000    0    12.011   19.585159    2.483648   -6.770549
  74 C     6.0000    0    12.011   20.913297    4.667321   -1.456355
  75 Cl   17.0000    0    35.453   -4.907770   14.388054   -0.931956
  76 Cl   17.0000    0    35.453   40.427932  -19.592019   10.355057
  77 H     1.0000    0     1.008    3.820573   17.471633   -0.998739
  78 H     1.0000    0     1.008   -1.977372   10.009898   -0.333688
  79 H     1.0000    0     1.008   10.015133    9.963732   -0.441289
  80 H     1.0000    0     1.008    6.474315    4.448850   -5.861288
  81 H     1.0000    0     1.008    4.800358    5.827481   -3.365697
  82 H     1.0000    0     1.008    5.023913    0.141824   -4.636727
  83 H     1.0000    0     1.008    2.390674    2.190419   -4.839513
  84 H     1.0000    0     1.008    3.626536    1.329933   -1.827327
  85 H     1.0000    0     1.008   19.086253    1.233991    2.061994
  86 H     1.0000    0     1.008   16.766047    3.259626    0.918407
  87 H     1.0000    0     1.008   20.919438    0.645341   -2.124562
  88 H     1.0000    0     1.008   22.258177   -3.835483    4.934321
  89 H     1.0000    0     1.008   19.820317   -1.782427    4.038912
  90 H     1.0000    0     1.008   22.591695    0.694966    1.432034
  91 H     1.0000    0     1.008   26.700772  -15.439800    0.824563
  92 H     1.0000    0     1.008   29.716680  -14.483522    1.776418
  93 H     1.0000    0     1.008   27.126471  -12.633216   -3.124681
  94 H     1.0000    0     1.008   29.626748  -14.874412   -2.903508
  95 H     1.0000    0     1.008   30.150184  -11.662520   -2.043531
  96 H     1.0000    0     1.008   31.037070   -8.566450    6.025052
  97 H     1.0000    0     1.008   38.982669  -14.649799    9.239929
  98 H     1.0000    0     1.008   31.670487  -20.379071    7.409862
  99 H     1.0000    0     1.008   26.183970    1.776739    4.179829
 100 H     1.0000    0     1.008   25.736464   -1.007186    5.942811
 101 H     1.0000    0     1.008   21.754546    3.253863    5.462953
 102 H     1.0000    0     1.008   23.861440    2.884062    8.045604
 103 H     1.0000    0     1.008   21.506425    0.574836    7.476909
 104 H     1.0000    0     1.008   26.787095   -3.262555    1.718252
 105 H     1.0000    0     1.008   26.814004   -0.335993    0.092842
 106 H     1.0000    0     1.008   24.768943   -2.790937   -0.934885
 107 H     1.0000    0     1.008   16.585994    3.791074   -4.286069
 108 H     1.0000    0     1.008   16.860174    0.482825   -4.540086
 109 H     1.0000    0     1.008   20.611904    4.291606   -6.855246
 110 H     1.0000    0     1.008   18.399035    2.361421   -8.475138
 111 H     1.0000    0     1.008   21.000886    0.957581   -6.881211
 112 H     1.0000    0     1.008   19.565998    6.258981   -1.444374
 113 H     1.0000    0     1.008   22.330006    5.044378   -2.927186
 114 H     1.0000    0     1.008   21.907331    4.665507    0.372635

--------------------------------
INTERNAL COORDINATES (ANGSTROEM)
--------------------------------
 C      0   0   0     0.000000000000     0.00000000     0.00000000
 O      1   0   0     1.213615386109     0.00000000     0.00000000
 C      1   2   0     1.484732987746   127.34438540     0.00000000
 C      3   1   2     1.386125936306   128.22803434     0.94428080
 C      4   3   1     1.398976371244   118.40869379   178.84742565
 C      5   4   3     1.412018147121   119.85976754   359.72061873
 C      6   5   4     1.402222461202   121.21283935     1.58357024
 C      7   6   5     1.396061602402   118.83068675   358.82503197
 C      8   7   6     1.486283078219   131.80091587   176.53631730
 C      9   8   7     1.385546313228   124.65018161   344.59925011
 C     10   9   8     1.425623617299   122.44514555   196.10653209
 N     11  10   9     1.162274398453   178.56339533   130.85245147
 C     10   9   8     1.429000986704   123.13384288    11.47360154
 N     13  10   9     1.162422293704   178.34023298   140.38466239
 C      9   8   7     1.453508399632   107.25666337   173.59971396
 C     15   9   8     1.377856602154   136.35734739   190.29954970
 C     16  15   9     1.419518700440   135.84453875    14.50359641
 S     17  16  15     1.777024612604   114.39201141   206.00707919
 C     18  17  16     1.723186947403    90.96800878   179.92576592
 C     19  18  17     1.412290276253   111.69560165     2.24240797
 C     17  16  15     1.408949286596   133.36577584    29.24965842
 C     21  17  16     1.504996357803   123.78817869     7.08053684
 C     22  21  17     1.531611607752   115.95594915   216.35010865
 S     20  19  18     1.770320643867   112.39778020   179.39293707
 C     24  20  19     1.743231397061    89.58357038     0.16548927
 C     25  24  20     1.398431459815   113.48689778     0.59163262
 N     26  25  24     1.385902160363   110.29147736   182.86709218
 C     27  26  25     1.462367109655   117.41038588   153.79985008
 C     28  27  26     1.542115217388   114.65019891   270.06656399
 C     27  26  25     1.404131923254   107.38941747   359.55307075
 C     25  24  20     1.410928571119   139.32977716   185.17449946
 C     31  25  24     1.430054523051   130.76336997   358.76575289
 N     32  31  25     1.326123885352   127.03046859   357.39395133
 S     33  32  31     1.655391713704   106.78623670   178.60649338
 N     34  33  32     1.656063073527    98.83976460     0.00000000
 C     35  34  33     1.326477910596   106.92285054   359.90792406
 C     36  35  34     1.432488958352   127.38143858   176.34441079
 C     37  36  35     1.436987716893   121.65533047   183.09459776
 N     38  37  36     1.397622360368   107.75304973   171.37204295
 C     39  38  37     1.460153060265   131.70829996   188.27105462
 C     40  39  38     1.546626237008   116.58490496   259.87831295
 C     39  38  37     1.384080935639   108.00580365     0.60172475
 C     42  39  38     1.402208227796   109.77108881     1.36605678
 S     43  42  39     1.745347334544   113.43223687   178.60836279
 C     44  43  42     1.768656899712    89.56395246     1.20260853
 C     45  44  43     1.412898439308   112.61391311     1.06573402
 S     46  45  44     1.724102308043   111.01612625   177.62944792
 C     47  46  45     1.782299682461    91.38903743     1.53253193
 C     48  47  46     1.410983120913   111.86881451     1.00808676
 C     49  48  47     1.505095586001   125.86219343   166.06258273
 C     50  49  48     1.539316045814   112.01869184   251.26103401
 C     48  47  46     1.419423208983   113.69291210   174.10114036
 C     52  48  47     1.380230093934   132.51673853   159.28191850
 C     53  52  48     1.462818701856   124.78918759   169.13494034
 C     54  53  52     1.385568388677   127.99045861   351.81983546
 C     55  54  53     1.430133238338   124.26569688   357.50817273
 N     56  55  54     1.162914396635   177.52116875   194.77234112
 C     55  54  53     1.429471951351   122.56435158   177.14638392
 N     58  55  54     1.162129852641   178.87414993   223.55687920
 C     54  53  52     1.480547667791   107.36219267   173.84185679
 C     60  54  53     1.396384459309   131.56412091   175.80349520
 C     61  60  54     1.399257100071   118.92257030   183.09094260
 C     62  61  60     1.412353820471   121.13482730   359.26048111
 C     63  62  61     1.399925849251   119.88367359   359.90577080
 C     64  63  62     1.386978913755   118.43836562     0.95950813
 C     65  64  63     1.489974286959   127.97335326   176.84279464
 O     66  65  64     1.216008429000   126.02370271     6.81149016
 Cl    63  62  61     1.730598694412   120.52583408   179.36296961
 Cl     5   4   3     1.731099608775   119.32474130   179.72672935
 C     41  40  39     1.537633776099   109.65452697   196.99798769
 C     70  41  40     1.530304449971   115.06508128   300.70379033
 C     41  40  39     1.529683149544   114.56884369   322.83057281
 C     29  28  27     1.536049720354   112.94775254    44.28972476
 C     73  29  28     1.528841924203   113.85459530   187.29319988
 C     29  28  27     1.533039723817   108.24597624   169.10253909
 Cl     6   5   4     1.731355687431   120.18132717   181.21149353
 Cl    62  61  60     1.731352489414   118.19947401   178.92257402
 H      4   3   1     1.090633627347   120.81697181   358.83515955
 H      7   6   5     1.087624776566   118.40863738   178.61642035
 H     16  15   9     1.100353129182   110.25275709   193.61196478
 H     22  21  17     1.106321054803   106.66038629    94.55915551
 H     22  21  17     1.095161781747   109.50169434   341.14668555
 H     23  22  21     1.099812375544   112.03739958   293.55729871
 H     23  22  21     1.099755927877   109.87567248   174.69322404
 H     23  22  21     1.098667679920   111.65727312    54.49224006
 H     28  27  26     1.092783096181   110.54268820   144.28920487
 H     28  27  26     1.098694573073   106.16830732    30.93665322
 H     29  28  27     1.104909647211   107.65930601   286.39161200
 H     40  39  38     1.102236971164   105.94305044   138.78637501
 H     40  39  38     1.096956548000   108.16054169    25.93785404
 H     41  40  39     1.095632189058   107.81856146    81.10783383
 H     50  49  48     1.103243498191   108.84712944   128.36468073
 H     50  49  48     1.091615913863   110.08978920    13.05113665
 H     51  50  49     1.100125380400   112.33927561   299.91668765
 H     51  50  49     1.101197678984   110.29236197   179.40158180
 H     51  50  49     1.101327666455   110.63997935    60.04796785
 H     52  48  47     1.092292936945   112.37617908   340.31854061
 H     61  60  54     1.086780504886   122.95773962     2.88875700
 H     64  63  62     1.090944317277   120.81335268   179.70085656
 H     70  41  40     1.102449072565   107.74741534   178.78374112
 H     70  41  40     1.104838264136   108.92413951    64.53152420
 H     71  70  41     1.103211974056   111.29763178   306.09625411
 H     71  70  41     1.100646705987   110.89736334   186.77071909
 H     71  70  41     1.102128005315   112.58739071    66.87081887
 H     72  41  40     1.099160853606   111.93310248   292.78386015
 H     72  41  40     1.100340012314   109.42416208   173.96744153
 H     72  41  40     1.100037840349   112.11982684    54.60977413
 H     73  29  28     1.104540231499   109.05155971    63.72120168
 H     73  29  28     1.100472365941   109.22850464   308.21783453
 H     74  73  29     1.101157851627   112.59999153   295.64642815
 H     74  73  29     1.100822988586   110.64622684   175.44883966
 H     74  73  29     1.103103855537   111.07950655    56.13130400
 H     75  29  28     1.103526578792   110.18421153   290.92956300
 H     75  29  28     1.098928981281   111.76702917   171.05408890
 H     75  29  28     1.101567492984   111.90132772    50.73293834

---------------------------
INTERNAL COORDINATES (A.U.)
---------------------------
 C      0   0   0     0.000000000000     0.00000000     0.00000000
 O      1   0   0     2.293400711659     0.00000000     0.00000000
 C      1   2   0     2.805738728838   127.34438540     0.00000000
 C      3   1   2     2.619398406743   128.22803434     0.94428080
 C      4   3   1     2.643682209479   118.40869379   178.84742565
 C      5   4   3     2.668327594186   119.85976754   359.72061873
 C      6   5   4     2.649816430505   121.21283935     1.58357024
 C      7   6   5     2.638174094622   118.83068675   358.82503197
 C      8   7   6     2.808667975315   131.80091587   176.53631730
 C      9   8   7     2.618303077865   124.65018161   344.59925011
 C     10   9   8     2.694038206745   122.44514555   196.10653209
 N     11  10   9     2.196380305545   178.56339533   130.85245147
 C     10   9   8     2.700420509973   123.13384288    11.47360154
 N     13  10   9     2.196659787065   178.34023298   140.38466239
 C      9   8   7     2.746732808658   107.25666337   173.59971396
 C     15   9   8     2.603771629887   136.35734739   190.29954970
 C     16  15   9     2.682501585812   135.84453875    14.50359641
 S     17  16  15     3.358089851059   114.39201141   206.00707919
 C     18  17  16     3.256351408139    90.96800878   179.92576592
 C     19  18  17     2.668841843719   111.69560165     2.24240797
 C     17  16  15     2.662528288251   133.36577584    29.24965842
 C     21  17  16     2.844030948796   123.78817869     7.08053684
 C     22  21  17     2.894326482186   115.95594915   216.35010865
 S     20  19  18     3.345421186135   112.39778020   179.39293707
 C     24  20  19     3.294229928499    89.58357038     0.16548927
 C     25  24  20     2.642652476110   113.48689778     0.59163262
 N     26  25  24     2.618975531497   110.29147736   182.86709218
 C     27  26  25     2.763473344501   117.41038588   153.79985008
 C     28  27  26     2.914175427816   114.65019891   270.06656399
 C     27  26  25     2.653424790846   107.38941747   359.55307075
 C     25  24  20     2.666268593940   139.32977716   185.17449946
 C     31  25  24     2.702411405143   130.76336997   358.76575289
 N     32  31  25     2.506010962966   127.03046859   357.39395133
 S     33  32  31     3.128236983263   106.78623670   178.60649338
 N     34  33  32     3.129505669466    98.83976460     0.00000000
 C     35  34  33     2.506679973723   106.92285054   359.90792406
 C     36  35  34     2.707011821151   127.38143858   176.34441079
 C     37  36  35     2.715513242736   121.65533047   183.09459776
 N     38  37  36     2.641123499740   107.75304973   171.37204295
 C     39  38  37     2.759289397507   131.70829996   188.27105462
 C     40  39  38     2.922700019481   116.58490496   259.87831295
 C     39  38  37     2.615533915540   108.00580365     0.60172475
 C     42  39  38     2.649789533266   109.77108881     1.36605678
 S     43  42  39     3.298228470858   113.43223687   178.60836279
 C     44  43  42     3.342277165327    89.56395246     1.20260853
 C     45  44  43     2.669991105338   112.61391311     1.06573402
 S     46  45  44     3.258081189063   111.01612625   177.62944792
 C     47  46  45     3.368058288426    91.38903743     1.53253193
 C     48  47  46     2.666371678110   111.86881451     1.00808676
 C     49  48  47     2.844218462916   125.86219343   166.06258273
 C     50  49  48     2.908885760139   112.01869184   251.26103401
 C     48  47  46     2.682321133110   113.69291210   174.10114036
 C     52  48  47     2.608256879331   132.51673853   159.28191850
 C     53  52  48     2.764326730086   124.78918759   169.13494034
 C     54  53  52     2.618344794417   127.99045861   351.81983546
 C     55  54  53     2.702560155477   124.26569688   357.50817273
 N     56  55  54     2.197589726834   177.52116875   194.77234112
 C     55  54  53     2.701310504176   122.56435158   177.14638392
 N     58  55  54     2.196107153546   178.87414993   223.55687920
 C     54  53  52     2.797829620340   107.36219267   173.84185679
 C     60  54  53     2.638784205758   131.56412091   175.80349520
 C     61  60  54     2.644212710080   118.92257030   183.09094260
 C     62  61  60     2.668961924888   121.13482730   359.26048111
 C     63  62  61     2.645476462881   119.88367359   359.90577080
 C     64  63  62     2.621010300520   118.43836562     0.95950813
 C     65  64  63     2.815643348938   127.97335326   176.84279464
 O     66  65  64     2.297922907351   126.02370271     6.81149016
 Cl    63  62  61     3.270357580160   120.52583408   179.36296961
 Cl     5   4   3     3.271304171122   119.32474130   179.72672935
 C     41  40  39     2.905706731094   109.65452697   196.99798769
 C     70  41  40     2.891856311966   115.06508128   300.70379033
 C     41  40  39     2.890682224313   114.56884369   322.83057281
 C     29  28  27     2.902713299556   112.94775254    44.28972476
 C     73  29  28     2.889092538800   113.85459530   187.29319988
 C     29  28  27     2.897025230436   108.24597624   169.10253909
 Cl     6   5   4     3.271788089652   120.18132717   181.21149353
 Cl    62  61  60     3.271782046275   118.19947401   178.92257402
 H      4   3   1     2.060998868131   120.81697181   358.83515955
 H      7   6   5     2.055312964177   118.40863738   178.61642035
 H     16  15   9     2.079366064757   110.25275709   193.61196478
 H     22  21  17     2.090643809768   106.66038629    94.55915551
 H     22  21  17     2.069555839840   109.50169434   341.14668555
 H     23  22  21     2.078344188476   112.03739958   293.55729871
 H     23  22  21     2.078237517843   109.87567248   174.69322404
 H     23  22  21     2.076181027239   111.65727312    54.49224006
 H     28  27  26     2.065060775562   110.54268820   144.28920487
 H     28  27  26     2.076231847933   106.16830732    30.93665322
 H     29  28  27     2.087976635956   107.65930601   286.39161200
 H     40  39  38     2.082926010182   105.94305044   138.78637501
 H     40  39  38     2.072947456532   108.16054169    25.93785404
 H     41  40  39     2.070444780828   107.81856146    81.10783383
 H     50  49  48     2.084828070610   108.84712944   128.36468073
 H     50  49  48     2.062855120632   110.08978920    13.05113665
 H     51  50  49     2.078935681932   112.33927561   299.91668765
 H     51  50  49     2.080962032590   110.29236197   179.40158180
 H     51  50  49     2.081207673311   110.63997935    60.04796785
 H     52  48  47     2.064134508843   112.37617908   340.31854061
 H     61  60  54     2.053717521919   122.95773962     2.88875700
 H     64  63  62     2.061585987012   120.81335268   179.70085656
 H     70  41  40     2.083326823744   107.74741534   178.78374112
 H     70  41  40     2.087841741495   108.92413951    64.53152420
 H     71  70  41     2.084768498628   111.29763178   306.09625411
 H     71  70  41     2.079920844518   110.89736334   186.77071909
 H     71  70  41     2.082720094571   112.58739071    66.87081887
 H     72  41  40     2.077112990443   111.93310248   292.78386015
 H     72  41  40     2.079341277470   109.42416208   173.96744153
 H     72  41  40     2.078770255210   112.11982684    54.60977413
 H     73  29  28     2.087278541431   109.05155971    63.72120168
 H     73  29  28     2.079591389577   109.22850464   308.21783453
 H     74  73  29     2.080886769792   112.59999153   295.64642815
 H     74  73  29     2.080253970353   110.64622684   175.44883966
 H     74  73  29     2.084564184237   111.07950655    56.13130400
 H     75  29  28     2.085363015420   110.18421153   290.92956300
 H     75  29  28     2.076674815251   111.76702917   171.05408890
 H     75  29  28     2.081660879771   111.90132772    50.73293834

---------------------
BASIS SET INFORMATION
---------------------
There are 6 groups of distinct atoms

 Group   1 Type C   : 11s6p2d1f contracted to 5s3p2d1f pattern {62111/411/11/1}
 Group   2 Type O   : 11s6p2d1f contracted to 5s3p2d1f pattern {62111/411/11/1}
 Group   3 Type N   : 11s6p2d1f contracted to 5s3p2d1f pattern {62111/411/11/1}
 Group   4 Type S   : 14s9p3d1f contracted to 5s5p2d1f pattern {73211/51111/21/1}
 Group   5 Type Cl  : 14s9p3d1f contracted to 5s5p2d1f pattern {73211/51111/21/1}
 Group   6 Type H   : 5s1p contracted to 3s1p pattern {311/1}

Atom   0C    basis set group =>   1
Atom   1O    basis set group =>   2
Atom   2C    basis set group =>   1
Atom   3C    basis set group =>   1
Atom   4C    basis set group =>   1
Atom   5C    basis set group =>   1
Atom   6C    basis set group =>   1
Atom   7C    basis set group =>   1
Atom   8C    basis set group =>   1
Atom   9C    basis set group =>   1
Atom  10C    basis set group =>   1
Atom  11N    basis set group =>   3
Atom  12C    basis set group =>   1
Atom  13N    basis set group =>   3
Atom  14C    basis set group =>   1
Atom  15C    basis set group =>   1
Atom  16C    basis set group =>   1
Atom  17S    basis set group =>   4
Atom  18C    basis set group =>   1
Atom  19C    basis set group =>   1
Atom  20C    basis set group =>   1
Atom  21C    basis set group =>   1
Atom  22C    basis set group =>   1
Atom  23S    basis set group =>   4
Atom  24C    basis set group =>   1
Atom  25C    basis set group =>   1
Atom  26N    basis set group =>   3
Atom  27C    basis set group =>   1
Atom  28C    basis set group =>   1
Atom  29C    basis set group =>   1
Atom  30C    basis set group =>   1
Atom  31C    basis set group =>   1
Atom  32N    basis set group =>   3
Atom  33S    basis set group =>   4
Atom  34N    basis set group =>   3
Atom  35C    basis set group =>   1
Atom  36C    basis set group =>   1
Atom  37C    basis set group =>   1
Atom  38N    basis set group =>   3
Atom  39C    basis set group =>   1
Atom  40C    basis set group =>   1
Atom  41C    basis set group =>   1
Atom  42C    basis set group =>   1
Atom  43S    basis set group =>   4
Atom  44C    basis set group =>   1
Atom  45C    basis set group =>   1
Atom  46S    basis set group =>   4
Atom  47C    basis set group =>   1
Atom  48C    basis set group =>   1
Atom  49C    basis set group =>   1
Atom  50C    basis set group =>   1
Atom  51C    basis set group =>   1
Atom  52C    basis set group =>   1
Atom  53C    basis set group =>   1
Atom  54C    basis set group =>   1
Atom  55C    basis set group =>   1
Atom  56N    basis set group =>   3
Atom  57C    basis set group =>   1
Atom  58N    basis set group =>   3
Atom  59C    basis set group =>   1
Atom  60C    basis set group =>   1
Atom  61C    basis set group =>   1
Atom  62C    basis set group =>   1
Atom  63C    basis set group =>   1
Atom  64C    basis set group =>   1
Atom  65C    basis set group =>   1
Atom  66O    basis set group =>   2
Atom  67Cl   basis set group =>   5
Atom  68Cl   basis set group =>   5
Atom  69C    basis set group =>   1
Atom  70C    basis set group =>   1
Atom  71C    basis set group =>   1
Atom  72C    basis set group =>   1
Atom  73C    basis set group =>   1
Atom  74C    basis set group =>   1
Atom  75Cl   basis set group =>   5
Atom  76Cl   basis set group =>   5
Atom  77H    basis set group =>   6
Atom  78H    basis set group =>   6
Atom  79H    basis set group =>   6
Atom  80H    basis set group =>   6
Atom  81H    basis set group =>   6
Atom  82H    basis set group =>   6
Atom  83H    basis set group =>   6
Atom  84H    basis set group =>   6
Atom  85H    basis set group =>   6
Atom  86H    basis set group =>   6
Atom  87H    basis set group =>   6
Atom  88H    basis set group =>   6
Atom  89H    basis set group =>   6
Atom  90H    basis set group =>   6
Atom  91H    basis set group =>   6
Atom  92H    basis set group =>   6
Atom  93H    basis set group =>   6
Atom  94H    basis set group =>   6
Atom  95H    basis set group =>   6
Atom  96H    basis set group =>   6
Atom  97H    basis set group =>   6
Atom  98H    basis set group =>   6
Atom  99H    basis set group =>   6
Atom 100H    basis set group =>   6
Atom 101H    basis set group =>   6
Atom 102H    basis set group =>   6
Atom 103H    basis set group =>   6
Atom 104H    basis set group =>   6
Atom 105H    basis set group =>   6
Atom 106H    basis set group =>   6
Atom 107H    basis set group =>   6
Atom 108H    basis set group =>   6
Atom 109H    basis set group =>   6
Atom 110H    basis set group =>   6
Atom 111H    basis set group =>   6
Atom 112H    basis set group =>   6
Atom 113H    basis set group =>   6
Atom 114H    basis set group =>   6
---------------------------------
AUXILIARY/J BASIS SET INFORMATION
---------------------------------
There are 6 groups of distinct atoms

 Group   1 Type C   : 12s5p4d2f1g contracted to 6s4p3d1f1g pattern {711111/2111/211/2/1}
 Group   2 Type O   : 12s5p4d2f1g contracted to 6s4p3d1f1g pattern {711111/2111/211/2/1}
 Group   3 Type N   : 12s5p4d2f1g contracted to 6s4p3d1f1g pattern {711111/2111/211/2/1}
 Group   4 Type S   : 14s5p5d2f1g contracted to 8s4p3d1f1g pattern {71111111/2111/311/2/1}
 Group   5 Type Cl  : 14s5p5d2f1g contracted to 8s4p3d1f1g pattern {71111111/2111/311/2/1}
 Group   6 Type H   : 5s2p1d contracted to 3s1p1d pattern {311/2/1}

Atom   0C    basis set group =>   1
Atom   1O    basis set group =>   2
Atom   2C    basis set group =>   1
Atom   3C    basis set group =>   1
Atom   4C    basis set group =>   1
Atom   5C    basis set group =>   1
Atom   6C    basis set group =>   1
Atom   7C    basis set group =>   1
Atom   8C    basis set group =>   1
Atom   9C    basis set group =>   1
Atom  10C    basis set group =>   1
Atom  11N    basis set group =>   3
Atom  12C    basis set group =>   1
Atom  13N    basis set group =>   3
Atom  14C    basis set group =>   1
Atom  15C    basis set group =>   1
Atom  16C    basis set group =>   1
Atom  17S    basis set group =>   4
Atom  18C    basis set group =>   1
Atom  19C    basis set group =>   1
Atom  20C    basis set group =>   1
Atom  21C    basis set group =>   1
Atom  22C    basis set group =>   1
Atom  23S    basis set group =>   4
Atom  24C    basis set group =>   1
Atom  25C    basis set group =>   1
Atom  26N    basis set group =>   3
Atom  27C    basis set group =>   1
Atom  28C    basis set group =>   1
Atom  29C    basis set group =>   1
Atom  30C    basis set group =>   1
Atom  31C    basis set group =>   1
Atom  32N    basis set group =>   3
Atom  33S    basis set group =>   4
Atom  34N    basis set group =>   3
Atom  35C    basis set group =>   1
Atom  36C    basis set group =>   1
Atom  37C    basis set group =>   1
Atom  38N    basis set group =>   3
Atom  39C    basis set group =>   1
Atom  40C    basis set group =>   1
Atom  41C    basis set group =>   1
Atom  42C    basis set group =>   1
Atom  43S    basis set group =>   4
Atom  44C    basis set group =>   1
Atom  45C    basis set group =>   1
Atom  46S    basis set group =>   4
Atom  47C    basis set group =>   1
Atom  48C    basis set group =>   1
Atom  49C    basis set group =>   1
Atom  50C    basis set group =>   1
Atom  51C    basis set group =>   1
Atom  52C    basis set group =>   1
Atom  53C    basis set group =>   1
Atom  54C    basis set group =>   1
Atom  55C    basis set group =>   1
Atom  56N    basis set group =>   3
Atom  57C    basis set group =>   1
Atom  58N    basis set group =>   3
Atom  59C    basis set group =>   1
Atom  60C    basis set group =>   1
Atom  61C    basis set group =>   1
Atom  62C    basis set group =>   1
Atom  63C    basis set group =>   1
Atom  64C    basis set group =>   1
Atom  65C    basis set group =>   1
Atom  66O    basis set group =>   2
Atom  67Cl   basis set group =>   5
Atom  68Cl   basis set group =>   5
Atom  69C    basis set group =>   1
Atom  70C    basis set group =>   1
Atom  71C    basis set group =>   1
Atom  72C    basis set group =>   1
Atom  73C    basis set group =>   1
Atom  74C    basis set group =>   1
Atom  75Cl   basis set group =>   5
Atom  76Cl   basis set group =>   5
Atom  77H    basis set group =>   6
Atom  78H    basis set group =>   6
Atom  79H    basis set group =>   6
Atom  80H    basis set group =>   6
Atom  81H    basis set group =>   6
Atom  82H    basis set group =>   6
Atom  83H    basis set group =>   6
Atom  84H    basis set group =>   6
Atom  85H    basis set group =>   6
Atom  86H    basis set group =>   6
Atom  87H    basis set group =>   6
Atom  88H    basis set group =>   6
Atom  89H    basis set group =>   6
Atom  90H    basis set group =>   6
Atom  91H    basis set group =>   6
Atom  92H    basis set group =>   6
Atom  93H    basis set group =>   6
Atom  94H    basis set group =>   6
Atom  95H    basis set group =>   6
Atom  96H    basis set group =>   6
Atom  97H    basis set group =>   6
Atom  98H    basis set group =>   6
Atom  99H    basis set group =>   6
Atom 100H    basis set group =>   6
Atom 101H    basis set group =>   6
Atom 102H    basis set group =>   6
Atom 103H    basis set group =>   6
Atom 104H    basis set group =>   6
Atom 105H    basis set group =>   6
Atom 106H    basis set group =>   6
Atom 107H    basis set group =>   6
Atom 108H    basis set group =>   6
Atom 109H    basis set group =>   6
Atom 110H    basis set group =>   6
Atom 111H    basis set group =>   6
Atom 112H    basis set group =>   6
Atom 113H    basis set group =>   6
Atom 114H    basis set group =>   6


           ************************************************************
           *        Program running with 6 parallel MPI-processes     *
           *              working on a common directory               *
           ************************************************************
------------------------------------------------------------------------------
                           ORCA GTO INTEGRAL CALCULATION
                           -- RI-GTO INTEGRALS CHOSEN --
------------------------------------------------------------------------------

                         BASIS SET STATISTICS AND STARTUP INFO

Gaussian basis set:
 # of primitive gaussian shells          ... 1831
 # of primitive gaussian functions       ... 3999
 # of contracted shells                  ... 1017
 # of contracted basis functions         ... 2669
 Highest angular momentum                ...    3
 Maximum contraction depth               ...    7
Auxiliary gaussian basis set:
 # of primitive gaussian shells          ... 2179
 # of primitive gaussian functions       ... 6061
 # of contracted shells                  ... 1363
 # of contracted aux-basis functions     ... 4209
 Highest angular momentum                ...    4
 Maximum contraction depth               ...    7
Ratio of auxiliary to basis functions    ...  1.58
Integral package used                  ... LIBINT
 One Electron integrals                  ... done
 Ordering auxiliary basis shells         ... done
 Integral threshhold             Thresh  ...  2.500e-11
 Primitive cut-off               TCut    ...  2.500e-12
 Pre-screening matrix                    ... done
 Shell pair data                         ... 
 Ordering of the shell pairs             ... done (   0.040 sec) 170592 of 517653 pairs
 Determination of significant pairs      ... done (   0.001 sec)
 Creation of shell pair data             ... done (   0.018 sec)
 Storage of shell pair data              ... done (   0.104 sec)
 Shell pair data done in (   0.163 sec)
 Computing two index integrals           ... done
 Cholesky decomposition of the V-matrix  ... done


Timings:
 Total evaluation time                   ...   8.511 sec (  0.142 min)
 One electron matrix time                ...   2.988 sec (  0.050 min) = 35.1%
 Schwartz matrix evaluation time         ...   4.174 sec (  0.070 min) = 49.0%
 Two index repulsion integral time       ...   0.420 sec (  0.007 min) =  4.9%
 Cholesky decomposition of V             ...   0.748 sec (  0.012 min) =  8.8%
 Three index repulsion integral time     ...   0.000 sec (  0.000 min) =  0.0%



           ************************************************************
           *        Program running with 6 parallel MPI-processes     *
           *              working on a common directory               *
           ************************************************************
-------------------------------------------------------------------------------
                                 ORCA SCF
-------------------------------------------------------------------------------

------------
SCF SETTINGS
------------
Hamiltonian:
 Density Functional     Method          .... DFT(GTOs)
 Exchange Functional    Exchange        .... B88
   X-Alpha parameter    XAlpha          ....  0.666667
   Becke's b parameter  XBeta           ....  0.004200
 Correlation Functional Correlation     .... LYP
 LDA part of GGA corr.  LDAOpt          .... VWN-5
 Gradients option       PostSCFGGA      .... off
 Hybrid DFT is turned on
   Fraction HF Exchange ScalHFX         ....  0.200000
   Scaling of DF-GGA-X  ScalDFX         ....  0.720000
   Scaling of DF-GGA-C  ScalDFC         ....  0.810000
   Scaling of DF-LDA-C  ScalLDAC        ....  1.000000
   Perturbative correction              ....  0.000000
   Density functional embedding theory  .... OFF
   NL short-range parameter             ....  4.800000
 RI-approximation to the Coulomb term is turned on
   Number of auxiliary basis functions  .... 4209
   RIJ-COSX (HFX calculated with COS-X)).... on


General Settings:
 Integral files         IntName         .... BT6IC-HD-4Cl
 Hartree-Fock type      HFTyp           .... RHF
 Total Charge           Charge          ....    0
 Multiplicity           Mult            ....    1
 Number of Electrons    NEL             ....  606
 Basis Dimension        Dim             .... 2669
 Nuclear Repulsion      ENuc            ....  13597.6317925058 Eh

Convergence Acceleration:
 DIIS                   CNVDIIS         .... on
   Start iteration      DIISMaxIt       ....    12
   Startup error        DIISStart       ....  0.200000
   # of expansion vecs  DIISMaxEq       ....     5
   Bias factor          DIISBfac        ....   1.050
   Max. coefficient     DIISMaxC        ....  10.000
 Newton-Raphson         CNVNR           .... off
 SOSCF                  CNVSOSCF        .... on
   Start iteration      SOSCFMaxIt      ....   150
   Startup grad/error   SOSCFStart      ....  0.003300
 Level Shifting         CNVShift        .... on
   Level shift para.    LevelShift      ....    0.2500
   Turn off err/grad.   ShiftErr        ....    0.0010
 Zerner damping         CNVZerner       .... off
 Static damping         CNVDamp         .... on
   Fraction old density DampFac         ....    0.7000
   Max. Damping (<1)    DampMax         ....    0.9800
   Min. Damping (>=0)   DampMin         ....    0.0000
   Turn off err/grad.   DampErr         ....    0.1000
 Fernandez-Rico         CNVRico         .... off

SCF Procedure:
 Maximum # iterations   MaxIter         ....   125
 SCF integral mode      SCFMode         .... Direct
   Integral package                     .... LIBINT
 Reset frequency        DirectResetFreq ....    20
 Integral Threshold     Thresh          ....  2.500e-11 Eh
 Primitive CutOff       TCut            ....  2.500e-12 Eh

Convergence Tolerance:
 Convergence Check Mode ConvCheckMode   .... Total+1el-Energy
 Convergence forced     ConvForced      .... 1
 Energy Change          TolE            ....  1.000e-08 Eh
 1-El. energy change                    ....  1.000e-05 Eh
 Orbital Gradient       TolG            ....  1.000e-05
 Orbital Rotation angle TolX            ....  1.000e-05
 DIIS Error             TolErr          ....  5.000e-07


Diagonalization of the overlap matrix:
Smallest eigenvalue                        ... 2.161e-06
Time for diagonalization                   ...    1.393 sec
Threshold for overlap eigenvalues          ... 1.000e-08
Number of eigenvalues below threshold      ... 0
Time for construction of square roots      ...    0.986 sec
Total time needed                          ...    2.395 sec

-------------------
DFT GRID GENERATION
-------------------

General Integration Accuracy     IntAcc      ...  4.670
Radial Grid Type                 RadialGrid  ... Gauss-Chebyshev
Angular Grid (max. acc.)         AngularGrid ... Lebedev-302
Angular grid pruning method      GridPruning ... 3 (G Style)
Weight generation scheme         WeightScheme... Becke
Basis function cutoff            BFCut       ...    1.0000e-11
Integration weight cutoff        WCut        ...    1.0000e-14
Grids for H and He will be reduced by one unit

# of grid points (after initial pruning)     ... 612570 (   0.0 sec)
# of grid points (after weights+screening)   ... 516950 (   8.6 sec)
nearest neighbour list constructed           ...    0.0 sec
Grid point re-assignment to atoms done       ...    0.1 sec
Grid point division into batches done        ...    1.8 sec
Reduced shell lists constructed in    4.0 sec

Total number of grid points                  ...   516950
Total number of batches                      ...     8130
Average number of points per batch           ...       63
Average number of grid points per atom       ...     4495
Average number of shells per batch           ...   167.39 (16.46%)
Average number of basis functions per batch  ...   433.41 (16.24%)
Average number of large shells per batch     ...   104.15 (62.22%)
Average number of large basis fcns per batch ...   273.52 (63.11%)
Maximum spatial batch extension              ...  16.75, 17.17, 21.50 au
Average spatial batch extension              ...   0.30,  0.31,  0.34 au

Time for grid setup =   13.591 sec

------------------------------
INITIAL GUESS: MODEL POTENTIAL
------------------------------
Loading Hartree-Fock densities                     ... done
Calculating cut-offs                               ... done
Setting up the integral package                    ... done
Initializing the effective Hamiltonian             ... done
Starting the Coulomb interaction                   ... done (   6.0 sec)
Reading the grid                                   ... done
Mapping shells                                     ... done
Starting the XC term evaluation                    ... done (   6.0 sec)
  promolecular density results
     # of electrons  =    605.983625912
     EX              =   -613.793020107
     EC              =    -21.885913357
     EX+EC           =   -635.678933464
Transforming the Hamiltonian                       ... done (   0.8 sec)
Diagonalizing the Hamiltonian                      ... done (   1.4 sec)
Back transforming the eigenvectors                 ... done (   0.4 sec)
Now organizing SCF variables                       ... done
                      ------------------
                      INITIAL GUESS DONE (  28.5 sec)
                      ------------------
--------------------
COSX GRID GENERATION
--------------------

General Integration Accuracy     IntAcc      ...  3.340
Radial Grid Type                 RadialGrid  ... Gauss-Chebyshev
Angular Grid (max. acc.)         AngularGrid ... Lebedev-50
Angular grid pruning method      GridPruning ... 3 (G Style)
Weight generation scheme         WeightScheme... Becke
Basis function cutoff            BFCut       ...    1.0000e-11
Integration weight cutoff        WCut        ...    1.0000e-14
Grids for H and He will be reduced by one unit

# of grid points (after initial pruning)     ...  57842 (   0.0 sec)
# of grid points (after weights+screening)   ...  51134 (   0.8 sec)
nearest neighbour list constructed           ...    0.0 sec
Grid point re-assignment to atoms done       ...    0.0 sec
Grid point division into batches done        ...    0.0 sec
Reduced shell lists constructed in    0.3 sec

Total number of grid points                  ...    51134
Total number of batches                      ...      860
Average number of points per batch           ...       59
Average number of grid points per atom       ...      445
Average number of shells per batch           ...   197.02 (19.37%)
Average number of basis functions per batch  ...   516.18 (19.34%)
Average number of large shells per batch     ...   124.20 (63.04%)
Average number of large basis fcns per batch ...   331.33 (64.19%)
Maximum spatial batch extension              ...  13.61, 15.14, 30.36 au
Average spatial batch extension              ...   0.53,  0.60,  0.85 au

Overlap Fitting                  UseSFitting ... on
Constructing numerical overlap ... done (      0.5 sec)
Inverting numerical overlap    ... done (      0.4 sec)
Obtaining analytic overlap     ... done (      0.0 sec)
Final contraction and storage  ... done (      0.6 sec)


General Integration Accuracy     IntAcc      ...  3.670
Radial Grid Type                 RadialGrid  ... Gauss-Chebyshev
Angular Grid (max. acc.)         AngularGrid ... Lebedev-50
Angular grid pruning method      GridPruning ... 3 (G Style)
Weight generation scheme         WeightScheme... Becke
Basis function cutoff            BFCut       ...    1.0000e-11
Integration weight cutoff        WCut        ...    1.0000e-14
Grids for H and He will be reduced by one unit

# of grid points (after initial pruning)     ...  72358 (   0.0 sec)
# of grid points (after weights+screening)   ...  63660 (   1.0 sec)
nearest neighbour list constructed           ...    0.0 sec
Grid point re-assignment to atoms done       ...    0.0 sec
Grid point division into batches done        ...    0.0 sec
Reduced shell lists constructed in    0.4 sec

Total number of grid points                  ...    63660
Total number of batches                      ...     1056
Average number of points per batch           ...       60
Average number of grid points per atom       ...      554
Average number of shells per batch           ...   195.29 (19.20%)
Average number of basis functions per batch  ...   510.81 (19.14%)
Average number of large shells per batch     ...   122.10 (62.52%)
Average number of large basis fcns per batch ...   325.24 (63.67%)
Maximum spatial batch extension              ...  13.96, 16.92, 30.32 au
Average spatial batch extension              ...   0.49,  0.56,  0.78 au

Overlap Fitting                  UseSFitting ... on
Constructing numerical overlap ... done (      0.6 sec)
Inverting numerical overlap    ... done (      0.4 sec)
Obtaining analytic overlap     ... done (      0.0 sec)
Final contraction and storage  ... done (      0.6 sec)


General Integration Accuracy     IntAcc      ...  4.010
Radial Grid Type                 RadialGrid  ... Gauss-Chebyshev
Angular Grid (max. acc.)         AngularGrid ... Lebedev-110
Angular grid pruning method      GridPruning ... 3 (G Style)
Weight generation scheme         WeightScheme... Becke
Basis function cutoff            BFCut       ...    1.0000e-11
Integration weight cutoff        WCut        ...    1.0000e-14
Grids for H and He will be reduced by one unit

# of grid points (after initial pruning)     ... 139900 (   0.0 sec)
# of grid points (after weights+screening)   ... 122016 (   2.0 sec)
nearest neighbour list constructed           ...    0.0 sec
Grid point re-assignment to atoms done       ...    0.0 sec
Grid point division into batches done        ...    0.1 sec
Reduced shell lists constructed in    0.8 sec

Total number of grid points                  ...   122016
Total number of batches                      ...     1964
Average number of points per batch           ...       62
Average number of grid points per atom       ...     1061
Average number of shells per batch           ...   182.97 (17.99%)
Average number of basis functions per batch  ...   478.90 (17.94%)
Average number of large shells per batch     ...   115.61 (63.19%)
Average number of large basis fcns per batch ...   307.65 (64.24%)
Maximum spatial batch extension              ...  15.13, 16.65, 21.19 au
Average spatial batch extension              ...   0.44,  0.47,  0.59 au

Overlap Fitting                  UseSFitting ... on
Constructing numerical overlap ... done (      0.9 sec)
Inverting numerical overlap    ... done (      0.4 sec)
Obtaining analytic overlap     ... done (      0.0 sec)
Final contraction and storage  ... done (      0.6 sec)

Time for X-Grid setup             =   11.304 sec
--------------
SCF ITERATIONS
--------------
ITER       Energy         Delta-E        Max-DP      RMS-DP      [F,P]     Damp
               ***  Starting incremental Fock matrix formation  ***
  0  -6650.2383026207   0.000000000000 0.22710006  0.00088600  0.3050138 0.7000
  1  -6651.1651372135  -0.926834592809 0.18481443  0.00073105  0.1077413 0.7000
                               ***Turning on DIIS***
  2  -6651.4825551346  -0.317417921106 0.24344930  0.00100724  0.0438077 0.0000
  3  -6652.0242945058  -0.541739371251 0.19981917  0.00069429  0.0567038 0.0000
  4  -6652.1386788235  -0.114384317621 0.04780625  0.00022469  0.0376017 0.0000
  5  -6652.1529746564  -0.014295832971 0.02292997  0.00010587  0.0115557 0.0000
                      *** Initiating the SOSCF procedure ***
                           *** Shutting down DIIS ***
                      *** Re-Reading the Fockian *** 
                      *** Removing any level shift *** 
ITER      Energy       Delta-E        Grad      Rot      Max-DP    RMS-DP
  6  -6652.15411846  -0.0011438036  0.001066  0.001066  0.008838  0.000034
               *** Restarting incremental Fock matrix formation ***
  7  -6652.15427266  -0.0001541954  0.000532  0.006619  0.010175  0.000062
  8  -6652.15429297  -0.0000203128  0.000389  0.005522  0.004905  0.000031
  9  -6652.15430945  -0.0000164812  0.000467  0.004380  0.004799  0.000030
 10  -6652.15431789  -0.0000084385  0.000160  0.000828  0.001416  0.000010
 11  -6652.15432061  -0.0000027259  0.000123  0.000860  0.001449  0.000009
 12  -6652.15432101  -0.0000003996  0.000103  0.000394  0.000634  0.000004
 13  -6652.15432207  -0.0000010523  0.000046  0.000533  0.000950  0.000005
 14  -6652.15432250  -0.0000004364  0.000040  0.000087  0.000290  0.000001
 15  -6652.15432269  -0.0000001828  0.000031  0.000236  0.000463  0.000002
 16  -6652.15432253   0.0000001513  0.000017  0.000040  0.000370  0.000001
 17  -6652.15432266  -0.0000001262  0.000008  0.000132  0.000616  0.000002
 18  -6652.15432285  -0.0000001913  0.000006  0.000045  0.000282  0.000001
 19  -6652.15432260   0.0000002515  0.000004  0.000034  0.000538  0.000001
 20  -6652.15432245   0.0000001474  0.000003  0.000020  0.000292  0.000001
                  ***Gradient check signals convergence***
              ***Rediagonalizing the Fockian in SOSCF/NRSCF***

               *****************************************************
               *                     SUCCESS                       *
               *           SCF CONVERGED AFTER  21 CYCLES          *
               *****************************************************

Setting up the final grid:

General Integration Accuracy     IntAcc      ...  5.010
Radial Grid Type                 RadialGrid  ... Gauss-Chebyshev
Angular Grid (max. acc.)         AngularGrid ... Lebedev-434
Angular grid pruning method      GridPruning ... 3 (G Style)
Weight generation scheme         WeightScheme... Becke
Basis function cutoff            BFCut       ...    1.0000e-11
Integration weight cutoff        WCut        ...    1.0000e-14
Grids for H and He will be reduced by one unit

# of grid points (after initial pruning)     ... 1087420 (   0.1 sec)
# of grid points (after weights+screening)   ... 914278 (  14.8 sec)
nearest neighbour list constructed           ...    0.0 sec
Grid point re-assignment to atoms done       ...    0.1 sec
Grid point division into batches done        ...    5.9 sec
Reduced shell lists constructed in    9.6 sec

Total number of grid points                  ...   914278
Total number of batches                      ...    14340
Average number of points per batch           ...       63
Average number of grid points per atom       ...     7950
Average number of shells per batch           ...   164.51 (16.18%)
Average number of basis functions per batch  ...   423.70 (15.87%)
Average number of large shells per batch     ...   102.03 (62.02%)
Average number of large basis fcns per batch ...   267.14 (63.05%)
Maximum spatial batch extension              ...  14.83, 18.49, 19.85 au
Average spatial batch extension              ...   0.25,  0.25,  0.27 au

Final grid set up in   26.7 sec
Final integration                            ... done (  13.3 sec)
Change in XC energy                          ...    -0.000016490
Integrated number of electrons               ...   606.000031878
Previous integrated no of electrons          ...   606.001035301
Old exchange energy                            =   -123.755732630 Eh
New exchange energy                            =   -123.758827121 Eh
Exchange energy change after final integration =     -0.003094491 Eh
Total energy after final integration           =  -6652.157433608 Eh
Final COS-X integration done in                =   335.095 sec

----------------
TOTAL SCF ENERGY
----------------

Total Energy       :        -6652.15743361 Eh         -181014.40636 eV

Components:
Nuclear Repulsion  :        13597.63179251 Eh          370010.37204 eV
Electronic Energy  :       -20249.78922611 Eh         -551024.77840 eV
One Electron Energy:       -36221.96714770 Eh         -985649.83556 eV
Two Electron Energy:        15972.17792159 Eh          434625.05716 eV

Virial components:
Potential Energy   :       -13284.85091323 Eh         -361499.17161 eV
Kinetic Energy     :         6632.69347962 Eh          180484.76525 eV
Virial Ratio       :            2.00293455


DFT components:
N(Alpha)           :      303.000015938844 electrons
N(Beta)            :      303.000015938844 electrons
N(Total)           :      606.000031877687 electrons
E(X)               :     -491.798617040796 Eh       
E(C)               :      -25.672709938103 Eh       
E(XC)              :     -517.471326978898 Eh       
DFET-embed. en.    :        0.000000000000 Eh       

---------------
SCF CONVERGENCE
---------------

  Last Energy change         ...   -1.7526e-07  Tolerance :   1.0000e-08
  Last MAX-Density change    ...    4.4409e-15  Tolerance :   1.0000e-07
  Last RMS-Density change    ...    1.2704e-17  Tolerance :   5.0000e-09
  Last Orbital Gradient      ...    2.4700e-06  Tolerance :   1.0000e-05
  Last Orbital Rotation      ...    2.0273e-05  Tolerance :   1.0000e-05

             **** THE GBW FILE WAS UPDATED (BT6IC-HD-4Cl.gbw) ****
             **** DENSITY FILE WAS UPDATED (BT6IC-HD-4Cl.scfp) ****
             **** ENERGY FILE WAS UPDATED (BT6IC-HD-4Cl.en.tmp) ****
             **** THE GBW FILE WAS UPDATED (BT6IC-HD-4Cl.gbw) ****
             **** DENSITY FILE WAS UPDATED (BT6IC-HD-4Cl.scfp) ****
----------------
ORBITAL ENERGIES
----------------

  NO   OCC          E(Eh)            E(eV) 
   0   2.0000    -101.550961     -2763.3421 
   1   2.0000    -101.549652     -2763.3065 
   2   2.0000    -101.549433     -2763.3005 
   3   2.0000    -101.546967     -2763.2335 
   4   2.0000     -88.946547     -2420.3586 
   5   2.0000     -88.914297     -2419.4810 
   6   2.0000     -88.913954     -2419.4717 
   7   2.0000     -88.911281     -2419.3990 
   8   2.0000     -88.910243     -2419.3707 
   9   2.0000     -19.136660      -520.7350 
  10   2.0000     -19.134037      -520.6636 
  11   2.0000     -14.411498      -392.1568 
  12   2.0000     -14.406663      -392.0252 
  13   2.0000     -14.361096      -390.7853 
  14   2.0000     -14.360480      -390.7685 
  15   2.0000     -14.337050      -390.1310 
  16   2.0000     -14.336486      -390.1156 
  17   2.0000     -14.335486      -390.0884 
  18   2.0000     -14.332262      -390.0007 
  19   2.0000     -10.282292      -279.7954 
  20   2.0000     -10.282140      -279.7913 
  21   2.0000     -10.277896      -279.6758 
  22   2.0000     -10.276839      -279.6470 
  23   2.0000     -10.275427      -279.6086 
  24   2.0000     -10.274384      -279.5802 
  25   2.0000     -10.268722      -279.4261 
  26   2.0000     -10.266402      -279.3630 
  27   2.0000     -10.266031      -279.3529 
  28   2.0000     -10.263573      -279.2860 
  29   2.0000     -10.263306      -279.2788 
  30   2.0000     -10.260458      -279.2013 
  31   2.0000     -10.250833      -278.9393 
  32   2.0000     -10.249497      -278.9030 
  33   2.0000     -10.248933      -278.8877 
  34   2.0000     -10.246863      -278.8313 
  35   2.0000     -10.246736      -278.8279 
  36   2.0000     -10.246207      -278.8135 
  37   2.0000     -10.245229      -278.7869 
  38   2.0000     -10.244382      -278.7638 
  39   2.0000     -10.243791      -278.7477 
  40   2.0000     -10.243298      -278.7343 
  41   2.0000     -10.237554      -278.5780 
  42   2.0000     -10.237219      -278.5689 
  43   2.0000     -10.237127      -278.5664 
  44   2.0000     -10.236582      -278.5516 
  45   2.0000     -10.236069      -278.5376 
  46   2.0000     -10.235987      -278.5354 
  47   2.0000     -10.235895      -278.5329 
  48   2.0000     -10.234799      -278.5030 
  49   2.0000     -10.234446      -278.4934 
  50   2.0000     -10.234155      -278.4855 
  51   2.0000     -10.233471      -278.4669 
  52   2.0000     -10.232405      -278.4379 
  53   2.0000     -10.231830      -278.4222 
  54   2.0000     -10.231596      -278.4159 
  55   2.0000     -10.225362      -278.2462 
  56   2.0000     -10.225055      -278.2379 
  57   2.0000     -10.223006      -278.1821 
  58   2.0000     -10.221643      -278.1451 
  59   2.0000     -10.221098      -278.1302 
  60   2.0000     -10.221085      -278.1299 
  61   2.0000     -10.221015      -278.1280 
  62   2.0000     -10.220005      -278.1005 
  63   2.0000     -10.219777      -278.0943 
  64   2.0000     -10.217473      -278.0316 
  65   2.0000     -10.208828      -277.7963 
  66   2.0000     -10.206877      -277.7432 
  67   2.0000     -10.204394      -277.6757 
  68   2.0000     -10.196039      -277.4483 
  69   2.0000     -10.193813      -277.3878 
  70   2.0000     -10.189928      -277.2820 
  71   2.0000     -10.188976      -277.2561 
  72   2.0000     -10.186639      -277.1925 
  73   2.0000     -10.181597      -277.0553 
  74   2.0000     -10.181319      -277.0478 
  75   2.0000     -10.179946      -277.0104 
  76   2.0000     -10.179061      -276.9863 
  77   2.0000      -9.483192      -258.0508 
  78   2.0000      -9.481907      -258.0158 
  79   2.0000      -9.481671      -258.0094 
  80   2.0000      -9.479241      -257.9433 
  81   2.0000      -8.016983      -218.1532 
  82   2.0000      -7.990326      -217.4278 
  83   2.0000      -7.990148      -217.4230 
  84   2.0000      -7.986242      -217.3167 
  85   2.0000      -7.985091      -217.2854 
  86   2.0000      -7.244931      -197.1446 
  87   2.0000      -7.243675      -197.1104 
  88   2.0000      -7.243401      -197.1030 
  89   2.0000      -7.241019      -197.0381 
  90   2.0000      -7.236445      -196.9137 
  91   2.0000      -7.235696      -196.8933 
  92   2.0000      -7.235151      -196.8785 
  93   2.0000      -7.234939      -196.8727 
  94   2.0000      -7.234391      -196.8578 
  95   2.0000      -7.234181      -196.8521 
  96   2.0000      -7.232484      -196.8059 
  97   2.0000      -7.231726      -196.7853 
  98   2.0000      -5.981721      -162.7709 
  99   2.0000      -5.974661      -162.5788 
 100   2.0000      -5.973405      -162.5446 
 101   2.0000      -5.953077      -161.9914 
 102   2.0000      -5.952815      -161.9843 
 103   2.0000      -5.949357      -161.8902 
 104   2.0000      -5.949316      -161.8891 
 105   2.0000      -5.949106      -161.8834 
 106   2.0000      -5.948145      -161.8572 
 107   2.0000      -5.946422      -161.8104 
 108   2.0000      -5.946327      -161.8078 
 109   2.0000      -5.945515      -161.7857 
 110   2.0000      -5.944403      -161.7554 
 111   2.0000      -5.941905      -161.6875 
 112   2.0000      -5.940741      -161.6558 
 113   2.0000      -1.064448       -28.9651 
 114   2.0000      -1.061848       -28.8944 
 115   2.0000      -1.036803       -28.2128 
 116   2.0000      -1.024887       -27.8886 
 117   2.0000      -1.022527       -27.8244 
 118   2.0000      -0.946782       -25.7632 
 119   2.0000      -0.944315       -25.6961 
 120   2.0000      -0.937906       -25.5217 
 121   2.0000      -0.935246       -25.4493 
 122   2.0000      -0.932350       -25.3705 
 123   2.0000      -0.930979       -25.3332 
 124   2.0000      -0.922954       -25.1149 
 125   2.0000      -0.920925       -25.0596 
 126   2.0000      -0.908650       -24.7256 
 127   2.0000      -0.906388       -24.6641 
 128   2.0000      -0.903802       -24.5937 
 129   2.0000      -0.888922       -24.1888 
 130   2.0000      -0.881468       -23.9860 
 131   2.0000      -0.879478       -23.9318 
 132   2.0000      -0.878125       -23.8950 
 133   2.0000      -0.868104       -23.6223 
 134   2.0000      -0.854293       -23.2465 
 135   2.0000      -0.851279       -23.1645 
 136   2.0000      -0.844791       -22.9879 
 137   2.0000      -0.841754       -22.9053 
 138   2.0000      -0.825130       -22.4529 
 139   2.0000      -0.823083       -22.3972 
 140   2.0000      -0.820501       -22.3270 
 141   2.0000      -0.818910       -22.2837 
 142   2.0000      -0.808828       -22.0093 
 143   2.0000      -0.794203       -21.6114 
 144   2.0000      -0.786864       -21.4116 
[...]
   Size of expansion space: 12
   Lowest Energy          :     0.047646673874
   Maximum Energy change  :     0.004777227381 (vector 2)
   Maximum residual norm  :     0.000055214898

                       ****Iteration    2****
   Time for densities:     8.236
   Time for K (COSX):   296.083
   Time for XC-Integration:     4.820
   Time for Sigma-Completion:    41.334
   Size of expansion space: 15
   Lowest Energy          :     0.047540489784
   Maximum Energy change  :     0.000715377005 (vector 2)
   Maximum residual norm  :     0.000017410423
   Rebuilding the expansion space

                       ****Iteration    3****
   Time for densities:    16.556
   Time for K (COSX):   309.491
   Time for XC-Integration:     9.418
   Time for Sigma-Completion:    83.795
   Size of expansion space: 6
   Lowest Energy          :     0.047535647767
   Maximum Energy change  :     0.000157626080 (vector 2)
   Maximum residual norm  :     0.000003774868

                       ****Iteration    4****
   Time for densities:     8.594
   Time for K (COSX):   304.555
   Time for XC-Integration:     4.915
   Time for Sigma-Completion:    43.121
   Size of expansion space: 9
   Lowest Energy          :     0.047535213639
   Maximum Energy change  :     0.000047296035 (vector 2)
   Maximum residual norm  :     0.000002030751

                       ****Iteration    5****
   Time for densities:     8.497
   Time for K (COSX):   306.081
   Time for XC-Integration:     4.954
   Time for Sigma-Completion:    43.397
   Size of expansion space: 12
   Lowest Energy          :     0.047535189877
   Maximum Energy change  :     0.000017990263 (vector 2)
   Maximum residual norm  :     0.000001971355

                       ****Iteration    6****
   Time for densities:     8.305
   Time for K (COSX):   305.245
   Time for XC-Integration:     4.894
   Time for Sigma-Completion:    41.915
   Size of expansion space: 15
   Lowest Energy          :     0.047535189263
   Maximum Energy change  :     0.000023570769 (vector 2)
   Maximum residual norm  :     0.000000397965
   Rebuilding the expansion space

                       ****Iteration    7****
   Time for densities:    16.176
   Time for K (COSX):   315.716
   Time for XC-Integration:     9.789
   Time for Sigma-Completion:    82.532
   Size of expansion space: 6
   Lowest Energy          :     0.047535191859
   Maximum Energy change  :     0.000002804517 (vector 2)
   Maximum residual norm  :     0.000000122687

      *** CONVERGENCE OF RESIDUAL NORM REACHED ***

Storing the converged CI vectors               ... BT6IC-HD-4Cl.cis3

                 *** DAVIDSON DONE ***

------------------------------------
TD-DFT/TDA EXCITED STATES (TRIPLETS)
------------------------------------

the weight of the individual excitations are printed if larger than 1.0e-02

STATE  1:  E=   0.047535 au      1.293 eV    10432.8 cm**-1
   300a -> 304a  :     0.060148 (c=  0.24525062)
   302a -> 303a  :     0.895709 (c=  0.94641890)

STATE  2:  E=   0.054912 au      1.494 eV    12051.7 cm**-1
   298a -> 304a  :     0.010892 (c= -0.10436348)
   300a -> 303a  :     0.173522 (c= -0.41656010)
   302a -> 304a  :     0.764451 (c= -0.87432883)
   302a -> 306a  :     0.018626 (c=  0.13647704)

STATE  3:  E=   0.073949 au      2.012 eV    16230.0 cm**-1
   298a -> 303a  :     0.061879 (c=  0.24875498)
   298a -> 304a  :     0.010989 (c=  0.10482609)
   298a -> 305a  :     0.013100 (c= -0.11445524)
   300a -> 303a  :     0.038437 (c=  0.19605352)
   300a -> 304a  :     0.107873 (c=  0.32844088)
   300a -> 306a  :     0.032688 (c=  0.18079788)
   301a -> 304a  :     0.016310 (c= -0.12771116)
   302a -> 304a  :     0.014146 (c= -0.11893630)
   302a -> 305a  :     0.578294 (c= -0.76045622)
   302a -> 307a  :     0.054365 (c= -0.23316311)

------------------------------
TD-DFT/TDA SPIN-ORBIT COUPLING
------------------------------

Calculating the spin-orbit integrals:             

Loading the effective charges         ... done
Entering the SOC calc. section        ... 
------------------------------------------------------------------------------
                         ORCA SPIN-ORBIT COUPLING CALCULATION
------------------------------------------------------------------------------

GBW file                                    ... BT6IC-HD-4Cl.gbw
Input density                               ... BT6IC-HD-4Cl.cisp0
Output integrals                            ... BT6IC-HD-4Cl.cis
Operator type                               ... Mean-field/Effective potential
   One-Electron Terms                       ... 1
   Coulomb Contribution                     ... 2
   Exchange Contribution                    ... 3
   Correlation Contribution                 ... 0
   Maximum number of centers                ... 4
Setting up the integration grid             ... done
Evaluating density on the grid              ... (NumEl=  606.001035) done
Evaluating Coulomb term semi-analytically   ... done
One-Center Exchange (+SOO)                  ... done
Evaluating the spin-orbit operator          ... done
Transforming the SOC integrals              ... done
Constructing the SOC matrix:                ... done
Diagonalizing the SOC matrix:               ... done

      --------------------------------------------------------------------------------
                      CALCULATED SOCME BETWEEN TRIPLETS AND SINGLETS                  
      --------------------------------------------------------------------------------
           Root                          <T|HSO|S>  (Re, Im) cm-1                     
         T      S             Z                     X                     Y           
      --------------------------------------------------------------------------------
         1      0    (   0.00 ,   -1.23 )    (   0.00 ,   -0.32 )    (  -0.00 ,    1.34 )
         1      1    (   0.00 ,   -0.02 )    (   0.00 ,   -0.03 )    (  -0.00 ,    0.52 )
         1      2    (   0.00 ,    0.92 )    (   0.00 ,    0.78 )    (  -0.00 ,   -1.23 )
         1      3    (   0.00 ,    0.04 )    (   0.00 ,   -1.13 )    (  -0.00 ,    0.98 )
         2      0    (   0.00 ,    0.09 )    (   0.00 ,    1.25 )    (  -0.00 ,    2.48 )
         2      1    (   0.00 ,    0.05 )    (   0.00 ,   -0.07 )    (  -0.00 ,    0.07 )
         2      2    (   0.00 ,    0.10 )    (   0.00 ,    0.37 )    (  -0.00 ,   -0.80 )
         2      3    (   0.00 ,   -0.48 )    (   0.00 ,   -0.38 )    (  -0.00 ,    0.67 )
         3      0    (   0.00 ,    0.45 )    (   0.00 ,   -1.86 )    (  -0.00 ,    1.72 )
         3      1    (   0.00 ,    0.12 )    (   0.00 ,    0.67 )    (  -0.00 ,   -1.04 )
         3      2    (   0.00 ,   -0.22 )    (   0.00 ,    0.09 )    (  -0.00 ,    0.31 )
         3      3    (   0.00 ,   -0.19 )    (   0.00 ,   -0.47 )    (  -0.00 ,    0.69 )

SOC stabilization of the ground state:  -0.0014 cm-1
Eigenvalues of the SOC matrix:

   State:        cm-1         eV
     0:          0.00         0.0000
     1:      10432.77         1.2935
     2:      10432.77         1.2935
     3:      10432.77         1.2935
     4:      12051.69         1.4942
     5:      12051.69         1.4942
     6:      12051.69         1.4942
     7:      14439.97         1.7903
     8:      16230.00         2.0123
     9:      16230.00         2.0123
    10:      16230.00         2.0123
    11:      16334.08         2.0252
    12:      18653.93         2.3128

The threshold for printing is 0.0100
Eigenvectors of the SOC matrix:

             E(cm-1)  Weight      Real         Imag     : Root  Spin  Ms
 STATE  0:      0.00
                      1.00000      0.67794     -0.73512 : 0     0     0
 STATE  1:  10432.77
                      0.04303      0.20662     -0.01843 : 1     1     0
                      0.47848     -0.68886      0.06294 : 1     1    -1
                      0.47848      0.68912     -0.06000 : 1     1     1
 STATE  2:  10432.77
                      0.57889     -0.68556      0.33001 : 1     1     0
                      0.21055      0.09094      0.44976 : 1     1    -1
                      0.21055      0.29482      0.35162 : 1     1     1
 STATE  3:  10432.77
                      0.37807     -0.56836      0.23461 : 1     1     0
                      0.31096     -0.29608     -0.47255 : 1     1    -1
                      0.31096     -0.12346     -0.54380 : 1     1     1
 STATE  4:  12051.69
                      0.05489      0.08924     -0.21663 : 2     1     0
                      0.47255      0.57891     -0.37070 : 2     1    -1
                      0.47255      0.14982      0.67090 : 2     1     1
 STATE  5:  12051.69
                      0.93885     -0.75677      0.60510 : 2     1     0
                      0.03057      0.16110     -0.06798 : 2     1    -1
                      0.03057     -0.10175      0.14220 : 2     1     1
 STATE  6:  12051.69
                      0.49687      0.61857     -0.33799 : 2     1    -1
                      0.49687     -0.07877     -0.70048 : 2     1     1
 STATE  7:  14439.97
                      1.00000     -0.83989      0.54275 : 1     0     0
 STATE  8:  16230.00
                      0.40443     -0.10101      0.62787 : 3     1     0
                      0.29778     -0.51816     -0.17115 : 3     1    -1
                      0.29778     -0.54569      0.00000 : 3     1     1
 STATE  9:  16230.00
                      0.33991     -0.51895      0.26571 : 3     1     0
                      0.33004     -0.33585      0.46610 : 3     1    -1
                      0.33004      0.57450      0.00000 : 3     1     1
 STATE 10:  16230.00
                      0.25566      0.39835      0.31142 : 3     1     0
                      0.37217     -0.14723     -0.59203 : 3     1    -1
                      0.37217      0.61006      0.00000 : 3     1     1
 STATE 11:  16334.08
                      0.99999      0.96111      0.27614 : 2     0     0
 STATE 12:  18653.93
                      1.00000     -0.82261      0.56860 : 3     0     0

-----------------------------
TD-DFT/TDA-EXCITATION SPECTRA
-----------------------------

Center of mass = ( 18.2050, -2.6849,  1.4429)
Calculating the Dipole integrals                  ... done
Transforming integrals                            ... done
Calculating the Linear Momentum integrals         ... done
Transforming integrals                            ... done
Calculating angular momentum integrals            ... done
Transforming integrals                            ... done

-----------------------------------------------------------------------------
         ABSORPTION SPECTRUM VIA TRANSITION ELECTRIC DIPOLE MOMENTS
-----------------------------------------------------------------------------
State   Energy    Wavelength  fosc         T2        TX        TY        TZ  
        (cm-1)      (nm)                 (au**2)    (au)      (au)      (au) 
-----------------------------------------------------------------------------
   1   14440.0    692.5   2.440011584  55.62899   5.95095  -4.31427   1.26580
   2   16334.1    612.2   0.169163314   3.40947   1.37976  -0.30921   1.18749
   3   18653.9    536.1   0.458981245   8.10029  -1.97090   1.97118  -0.57469
   4   10432.8    958.5   spin forbidden (mult=3)
   5   12051.7    829.8   spin forbidden (mult=3)
   6   16230.0    616.1   spin forbidden (mult=3)

-----------------------------------------------------------------------------
         ABSORPTION SPECTRUM VIA TRANSITION VELOCITY DIPOLE MOMENTS
-----------------------------------------------------------------------------
State   Energy    Wavelength   fosc        P2         PX        PY        PZ  
        (cm-1)      (nm)                 (au**2)     (au)      (au)      (au) 
-----------------------------------------------------------------------------
   1   14440.0    692.5   0.652370620   0.06438  -0.18037   0.16864  -0.05838
   2   16334.1    612.2   0.071439470   0.00798  -0.01660   0.08610   0.01693
   3   18653.9    536.1   0.170297720   0.02171   0.13714  -0.05315   0.00891
   4   10432.8    958.5   spin forbidden (mult=3)
   5   12051.7    829.8   spin forbidden (mult=3)
   6   16230.0    616.1   spin forbidden (mult=3)

-------------------------------------------------------------------
                             CD SPECTRUM
-------------------------------------------------------------------
State  Energy     Wavelength     R         MX        MY        MZ   
       (cm-1)       (nm)     (1e40*cgs)   (au)      (au)      (au)  
-------------------------------------------------------------------
   1   14440.0    692.5    -204.91676  -0.08547  -0.02430  -0.02438
   2   16334.1    612.2    -147.89145  -0.00592  -0.10726  -0.28521
   3   18653.9    536.1    -74.58397   0.16700   0.08794   0.00418
   4   10432.8    958.5 spin forbidden
   5   12051.7    829.8 spin forbidden
   6   16230.0    616.1 spin forbidden

-------------------------------------------
SOC CORRECTED TD-DFT/TDA-EXCITATION SPECTRA
--------------------------------------------

-----------------------------------------------------------------------------
  SOC CORRECTED ABSORPTION SPECTRUM VIA TRANSITION ELECTRIC DIPOLE MOMENTS*  
-----------------------------------------------------------------------------
State   Energy  Wavelength   fosc         T2         TX        TY        TZ  
        (cm-1)    (nm)                  (au**2)     (au)      (au)      (au) 
-----------------------------------------------------------------------------
   1   10432.8    958.5   0.000000000   0.00000   0.00002   0.00001   0.00006
   2   10432.8    958.5   0.000000020   0.00000   0.00062   0.00048   0.00012
   3   10432.8    958.5   0.000000030   0.00000   0.00072   0.00062   0.00018
   4   12051.7    829.8   0.000000088   0.00000   0.00126   0.00083   0.00035
   5   12051.7    829.8   0.000000030   0.00000   0.00070   0.00057   0.00016
   6   12051.7    829.8   0.000000055   0.00000   0.00090   0.00082   0.00001
   7   14440.0    692.5   2.440010948  55.62898   5.95095   4.31427   1.26580
   8   16230.0    616.1   0.000003631   0.00007   0.00671   0.00217   0.00489
   9   16230.0    616.1   0.000000011   0.00000   0.00001   0.00019   0.00044
  10   16230.0    616.1   0.000000428   0.00001   0.00240   0.00160   0.00059
  11   16334.1    612.2   0.169159771   3.40940   1.37974   0.30920   1.18748
  12   18653.9    536.1   0.458981214   8.10028   1.97090   1.97118   0.57469

-----------------------------------------------------------------------------
  SOC CORRECTED ABSORPTION SPECTRUM VIA TRANSITION VELOCITY DIPOLE MOMENTS*  
-----------------------------------------------------------------------------
State   Energy  Wavelength   fosc         P2         PX        PY        PZ  
        (cm-1)    (nm)                  (au**2)     (au)      (au)      (au) 
-----------------------------------------------------------------------------
   1   10432.8    958.5   0.000000007   0.00000   0.00002   0.00001   0.00000
   2   10432.8    958.5   0.000000008   0.00000   0.00002   0.00002   0.00001
   3   10432.8    958.5   0.000000003   0.00000   0.00001   0.00000   0.00001
   4   12051.7    829.8   0.000000006   0.00000   0.00001   0.00002   0.00000
   5   12051.7    829.8   0.000000005   0.00000   0.00002   0.00001   0.00000
   6   12051.7    829.8   0.000000003   0.00000   0.00001   0.00001   0.00000
   7   14440.0    692.5   0.652370353   0.06438   0.18037   0.16864   0.05838
   8   16230.0    616.1   0.000001349   0.00000   0.00010   0.00037   0.00004
   9   16230.0    616.1   0.000000008   0.00000   0.00000   0.00003   0.00001
  10   16230.0    616.1   0.000000079   0.00000   0.00006   0.00007   0.00003
  11   16334.1    612.2   0.071438128   0.00798   0.01660   0.08610   0.01693
  12   18653.9    536.1   0.170297705   0.02171   0.13714   0.05315   0.00891

-------------------------------------------------------------------
                    SOC CORRECTED CD SPECTRUM*                     
-------------------------------------------------------------------
State   Energy Wavelength       R         MX        MY        MZ   
        (cm-1)   (nm)       (1e40*sgs)   (au)      (au)      (au)  
-------------------------------------------------------------------
   1   10432.8    958.5      0.00000   0.00002   0.00002   0.00002
   2   10432.8    958.5      0.00000   0.00001   0.00001   0.00001
   3   10432.8    958.5      0.00000   0.00001   0.00002   0.00008
   4   12051.7    829.8      0.00001   0.00001   0.00003   0.00005
   5   12051.7    829.8      0.00000   0.00003   0.00002   0.00001
   6   12051.7    829.8      0.00000   0.00001   0.00002   0.00002
   7   14440.0    692.5    204.91674   0.08547   0.02430   0.02438
   8   16230.0    616.1      0.00207   0.00001   0.00037   0.00107
   9   16230.0    616.1      0.00003   0.00000   0.00004   0.00014
  10   16230.0    616.1      0.00001   0.00000   0.00002   0.00001
  11   16334.1    612.2    147.88926   0.00592   0.10726   0.28521
  12   18653.9    536.1     74.58405   0.16700   0.08794   0.00418

*The X,Y and Z components are the absolute values of the complex numbers

Total run time:    10154.059 sec

           *** ORCA-CIS/TD-DFT FINISHED WITHOUT ERROR ***

---------------------------
SOC CIS/TD-DFT TOTAL ENERGY
---------------------------

    E(SCF)        =  -6652.157433608 Eh
    E(SOC CIS)    =      0.047535187 Eh (SOC Root  1)
    ----------------------------- ---------
    E(tot)        =  -6652.109898421 Eh


-------------------------   --------------------
FINAL SINGLE POINT ENERGY     -6652.109898421233
-------------------------   --------------------


                            ***************************************
                            *     ORCA property calculations      *
                            ***************************************

                                    ---------------------
                                    Active property flags
                                    ---------------------
   (+) Dipole Moment


------------------------------------------------------------------------------
                       ORCA ELECTRIC PROPERTIES CALCULATION
------------------------------------------------------------------------------

Dipole Moment Calculation                       ... on
Quadrupole Moment Calculation                   ... off
Polarizability Calculation                      ... off
GBWName                                         ... BT6IC-HD-4Cl.gbw
Electron density file                           ... BT6IC-HD-4Cl.scfp
The origin for moment calculation is the CENTER OF MASS  = (18.204987, -2.684899  1.442871)

-------------
DIPOLE MOMENT
-------------
                                X             Y             Z
Electronic contribution:    -33.67880     -33.15494      31.90354
Nuclear contribution   :     33.59221      33.87873     -33.74683
                        -----------------------------------------
Total Dipole Moment    :     -0.08659       0.72380      -1.84329
                        -----------------------------------------
Magnitude (a.u.)       :      1.98219
Magnitude (Debye)      :      5.03833



--------------------
Rotational spectrum 
--------------------
 
Rotational constants in cm-1:     0.001945     0.000184     0.000176 
Rotational constants in MHz :    58.298287     5.501645     5.265529 

 Dipole components along the rotational axes: 
x,y,z [a.u.] :    -0.864640    -0.346530     1.749687 
x,y,z [Debye]:    -2.197740    -0.880809     4.447351 

 

Timings for individual modules:

Sum of individual times         ...    13957.283 sec (= 232.621 min)
GTO integral calculation        ...        9.361 sec (=   0.156 min)   0.1 %
SCF iterations                  ...     3792.946 sec (=  63.216 min)  27.2 %
CIS module                      ...    10154.976 sec (= 169.250 min)  72.8 %
                             ****ORCA TERMINATED NORMALLY****
TOTAL RUN TIME: 0 days 3 hours 52 minutes 39 seconds 570 msec
