
                                 *****************
                                 * O   R   C   A *
                                 *****************

           --- An Ab Initio, DFT and Semiempirical electronic structure package ---

                  #######################################################
                  #                        -***-                        #
                  #          Department of theory and spectroscopy      #
                  #               Directorship: Frank Neese             #
                  #        Max Planck Institute fuer Kohlenforschung    #
                  #                Kaiser Wilhelm Platz 1               #
                  #                 D-45470 Muelheim/Ruhr               #
                  #                      Germany                        #
                  #                                                     #
                  #                  All rights reserved                #
                  #                        -***-                        #
                  #######################################################


                         Program Version 4.2.0 -  RELEASE  -


 With contributions from (in alphabetic order):
   Daniel Aravena         : Magnetic Suceptibility
   Michael Atanasov       : Ab Initio Ligand Field Theory (pilot matlab implementation)
   Alexander A. Auer      : GIAO ZORA, VPT2
   Ute Becker             : Parallelization
   Giovanni Bistoni       : ED, misc. LED, open-shell LED, HFLED
   Martin Brehm           : Molecular dynamics
   Dmytro Bykov           : SCF Hessian
   Vijay G. Chilkuri      : MRCI spin determinant printing, contributions to CSF-ICE
   Dipayan Datta          : RHF DLPNO-CCSD density
   Achintya Kumar Dutta   : EOM-CC, STEOM-CC
   Dmitry Ganyushin       : Spin-Orbit,Spin-Spin,Magnetic field MRCI
   Miquel Garcia          : C-PCM Hessian, Gaussian charge scheme
   Yang Guo               : DLPNO-NEVPT2, CIM, IAO-localization
   Andreas Hansen         : Spin unrestricted coupled pair/coupled cluster methods
   Benjamin Helmich-Paris : CASSCF linear response (MC-RPA)
   Lee Huntington         : MR-EOM, pCC
   Robert Izsak           : Overlap fitted RIJCOSX, COSX-SCS-MP3, EOM
   Christian Kollmar      : KDIIS, OOCD, Brueckner-CCSD(T), CCSD density
   Simone Kossmann        : Meta GGA functionals, TD-DFT gradient, OOMP2, MP2 Hessian
   Martin Krupicka        : AUTO-CI
   Lucas Lang             : DCDCAS
   Dagmar Lenk            : GEPOL surface, SMD
   Dimitrios Liakos       : Extrapolation schemes; Compound Job, initial MDCI parallelization
   Dimitrios Manganas     : Further ROCIS development; embedding schemes
   Dimitrios Pantazis     : SARC Basis sets
   Taras Petrenko         : DFT Hessian,TD-DFT gradient, ASA, ECA, R-Raman, ABS, FL, XAS/XES, NRVS
   Peter Pinski           : DLPNO-MP2, DLPNO-MP2 Gradient
   Christoph Reimann      : Effective Core Potentials
   Marius Retegan         : Local ZFS, SOC
   Christoph Riplinger    : Optimizer, TS searches, QM/MM, DLPNO-CCSD(T), (RO)-DLPNO pert. Triples
   Tobias Risthaus        : Range-separated hybrids, TD-DFT gradient, RPA, STAB
   Michael Roemelt        : Original ROCIS implementation
   Masaaki Saitow         : Open-shell DLPNO-CCSD energy and density
   Barbara Sandhoefer     : DKH picture change effects
   Avijit Sen             : IP-ROCIS
   Kantharuban Sivalingam : CASSCF convergence, NEVPT2, FIC-MRCI
   Bernardo de Souza      : ESD, SOC TD-DFT
   Georgi Stoychev        : AutoAux, RI-MP2 NMR
   Willem Van den Heuvel  : Paramagnetic NMR
   Boris Wezisla          : Elementary symmetry handling
   Frank Wennmohs         : Technical directorship


 We gratefully acknowledge several colleagues who have allowed us to
 interface, adapt or use parts of their codes:
   Stefan Grimme, W. Hujo, H. Kruse,             : VdW corrections, initial TS optimization,
                  C. Bannwarth                     DFT functionals, gCP, sTDA/sTD-DF
   Ed Valeev, F. Pavosevic, A. Kumar             : LibInt (2-el integral package), F12 methods
   Garnet Chan, S. Sharma, J. Yang, R. Olivares  : DMRG
   Ulf Ekstrom                                   : XCFun DFT Library
   Mihaly Kallay                                 : mrcc  (arbitrary order and MRCC methods)
   Andreas Klamt, Michael Diedenhofen            : otool_cosmo (COSMO solvation model)
   Jiri Pittner, Ondrej Demel                    : Mk-CCSD
   Frank Weinhold                                : gennbo (NPA and NBO analysis)
   Christopher J. Cramer and Donald G. Truhlar   : smd solvation model
   Lars Goerigk                                  : TD-DFT with DH, B97 family of functionals
   V. Asgeirsson, H. Jonsson                     : NEB implementation
   FAccTs GmbH                                   : IRC, NEB, NEB-TS, Multilevel, MM, QM/MM, CI optimization
   S Lehtola, MJT Oliveira, MAL Marques          : LibXC Library


 Your calculation uses the libint2 library for the computation of 2-el integrals
 For citations please refer to: http://libint.valeyev.net

 Your ORCA version has been built with support for libXC version: 4.2.3
 For citations please refer to: https://tddft.org/programs/libxc/

 This ORCA versions uses:
   CBLAS   interface :  Fast vector & matrix operations
   LAPACKE interface :  Fast linear algebra routines
   SCALAPACK package :  Parallel linear algebra routines


----- Orbital basis set information -----
Your calculation utilizes the basis: def2-TZVP
   F. Weigend and R. Ahlrichs, Phys. Chem. Chem. Phys. 7, 3297 (2005).

----- AuxJ basis set information -----
Your calculation utilizes the auxiliary basis: def2/J
   F. Weigend, Phys. Chem. Chem. Phys. 8, 1057 (2006).

================================================================================
                                        WARNINGS
                       Please study these warnings very carefully!
================================================================================

INFO   : Checking CIS options ...

WARNING: (CIS/TDDFT): Spin-orbit needs TRIPLETS set to TRUE
  ===> : ajusting flags

WARNING: CIS/ROCIS methods need fully converged wavefunctions
  ===> : Setting SCFConvForced true
         You can overwrite this default with %scf ConvForced false 


INFO   : the flag for use of LIBINT has been found!

================================================================================
                                       INPUT FILE
================================================================================
NAME = BTA43.inp
|  1> # ORCA input file
|  2> # BTA43.out: Geometry 438
|  3> ! B3LYP def2-TZVP def2/J RIJCOSX Grid4 TightSCF
|  4> 
|  5> %maxcore 6000
|  6> %tddft
|  7>   maxdim 5
|  8>   nroots 3
|  9>   dosoc true
| 10>   end
| 11> %pal
| 12>   nprocs 6
| 13>   end
| 14> 
| 15> 
| 16> * xyz 0 1
| 17>    C        2.48897        -2.61765        -0.43746
| 18>    C        2.53644        -2.05384         0.86642
| 19>    C        1.52815        -1.20077         1.33355
| 20>    C        0.43159        -0.99596         0.51152
| 21>    C        0.29913        -1.69907        -0.71629
| 22>    C        1.35014        -2.48737        -1.21971
| 23>    C        3.78386        -3.40320        -0.73421
| 24>    C        4.36095        -3.51382         0.68590
| 25>    C        3.67571        -2.64540         1.52679
| 26>    C        5.34410        -4.26613         1.36306
| 27>    C        5.39482        -3.96768         2.72738
| 28>    S        4.23372        -2.70248         3.14829
| 29>    C       -0.79516        -0.10654         0.78344
| 30>    C       -1.71434        -0.55769        -0.35206
| 31>    C       -1.05347        -1.45678        -1.17812
| 32>    C       -3.06627        -0.36677        -0.70321
| 33>    C       -3.45672        -1.19091        -1.75587
| 34>    S       -2.09390        -2.12256        -2.38381
| 35>    C        6.17204        -4.58363         3.77786
| 36>    C       -4.80203        -1.43097        -2.23753
| 37>    C       -1.34836        -0.44171         2.17254
| 38>    C       -0.44925         1.38014         0.59495
| 39>    C        3.46942        -4.73734        -1.40788
| 40>    C        4.74314        -2.53563        -1.57965
| 41>    C        5.92975        -4.32792         5.13642
| 42>    C        6.62120        -4.95831         6.18534
| 43>    C        7.64307        -5.89397         5.97605
| 44>    C        7.94415        -6.14138         4.59926
| 45>    C        7.22415        -5.52264         3.53081
| 46>    C       -5.20491        -2.65567        -2.78384
| 47>    C       -6.53724        -2.94487        -3.13738
| 48>    C       -7.58887        -2.03153        -2.98639
| 49>    C       -7.18767        -0.74403        -2.50413
| 50>    C       -5.83983        -0.45504        -2.12886
| 51>    N        8.86342        -6.96325         4.06004
| 52>    N        8.67911        -6.82309         2.75778
| 53>    N        7.72834        -5.99229         2.37044
| 54>    N       -7.91996         0.36912        -2.31037
| 55>    N       -7.03526         1.24371        -1.85496
| 56>    N       -5.79043         0.82782        -1.71629
| 57>    C        8.36566        -6.59138         7.00868
| 58>    C        8.02637        -6.77932         8.31226
| 59>    C       -8.98513        -2.30474        -3.21482
| 60>    C       -9.61059        -3.49023        -3.45084
| 61>    C       -7.40144         2.61787        -1.56584
| 62>    C        9.49490        -7.54175         1.79731
| 63>    C      -11.08484        -3.57853        -3.53503
| 64>    N      -11.48040        -4.93618        -3.67255
| 65>    C      -10.47009        -5.84717        -3.75141
| 66>    S       -8.88620        -5.08915        -3.60250
| 67>    C        8.89198        -7.54320         9.23273
| 68>    N        8.23061        -7.72640        10.47702
| 69>    C        6.99401        -7.16593        10.58550
| 70>    S        6.52534        -6.31561         9.11438
| 71>    C        8.89792        -8.48051        11.53233
| 72>    O       10.00239        -7.96888         9.00824
| 73>    C        6.12643        -7.18636        11.66881
| 74>    C        4.86787        -6.52145        11.53396
| 75>    C        6.38561        -7.81634        12.92180
| 76>    C        2.72108        -5.70313        -0.71003
| 77>    C        2.31997        -6.88250        -1.32185
| 78>    C        2.65732        -7.13364        -2.66526
| 79>    C        3.41786        -6.19087        -3.36620
| 80>    C        3.81456        -5.00596        -2.73276
| 81>    C        4.29686        -1.48029        -2.39192
| 82>    C        5.18306        -0.72486        -3.15491
| 83>    C        6.55791        -1.00354        -3.13075
| 84>    C        7.02005        -2.06322        -2.33473
| 85>    C        6.11628        -2.81013        -1.57480
| 86>    C       -2.22859        -1.52359         2.35108
| 87>    C       -2.60000        -1.94896         3.61969
| 88>    C       -2.08156        -1.31460         4.76148
| 89>    C       -1.21824        -0.22074         4.60108
| 90>    C       -0.86790         0.20647         3.31379
| 91>    C        0.81462         1.80715         0.15643
| 92>    C        1.07157         3.14652        -0.11416
| 93>    C        0.06104         4.10682         0.02851
| 94>    C       -1.20286         3.70277         0.48784
| 95>    C       -1.44064         2.35410         0.76889
| 96>    O      -11.87626        -2.66486        -3.48340
| 97>    C      -12.90223        -5.26545        -3.68767
| 98>    C      -10.55077        -7.22152        -3.92596
| 99>    C       -9.33126        -7.96548        -3.96866
|100>    C      -11.76052        -7.96027        -4.08414
|101>    N        3.85043        -5.97537        11.39865
|102>    N        6.55038        -8.31569        13.95887
|103>    N      -12.72343        -8.59809        -4.21627
|104>    N       -8.32507        -8.54642        -4.00091
|105>    O       -2.47352        -1.82794         5.95387
|106>    O        0.39954         5.37819        -0.29909
|107>    O        7.35033        -0.20965        -3.89455
|108>    O        2.20483        -8.29800        -3.19111
|109>    C       -1.95473        -1.27827         7.14330
|110>    C       -0.58360         6.38448        -0.26611
|111>    C        8.74383        -0.40694        -3.85918
|112>    C        2.45788        -8.58083        -4.54782
|113>    H        1.58537        -0.73898         2.32032
|114>    H        1.26520        -3.00509        -2.17684
|115>    H        5.97456        -5.03804         0.92503
|116>    H       -3.76970         0.28340        -0.18578
|117>    H        5.14597        -3.61897         5.40955
|118>    H        6.34821        -4.66475         7.20003
|119>    H       -4.46319        -3.44865        -2.89672
|120>    H       -6.73188        -3.93716        -3.54244
|121>    H        9.29904        -7.07801         6.70915
|122>    H       -9.66283        -1.44933        -3.13009
|123>    H       -8.48110         2.71530        -1.72246
|124>    H       -6.85747         3.29255        -2.24086
|125>    H       -7.13388         2.86004        -0.52786
|126>    H       10.07857        -6.82864         1.19771
|127>    H        8.84674        -8.12859         1.13168
|128>    H       10.16356        -8.20120         2.36099
|129>    H        9.86114        -8.80448        11.12194
|130>    H        8.30293        -9.35568        11.82331
|131>    H        9.06171        -7.84923        12.41571
|132>    H        2.43299        -5.50924         0.32606
|133>    H        1.73142        -7.63042        -0.78705
|134>    H        3.70803        -6.35954        -4.40266
|135>    H        4.39422        -4.27569        -3.29969
|136>    H        3.23616        -1.23080        -2.43107
|137>    H        4.82993         0.09977        -3.77685
|138>    H        8.07931        -2.31825        -2.29380
|139>    H        6.50401        -3.62651        -0.96406
|140>    H       -2.61863        -2.05252         1.48080
|141>    H       -3.27921        -2.79139         3.76272
|142>    H       -0.80898         0.30540         5.46272
|143>    H       -0.19698         1.06100         3.20042
|144>    H        1.61723         1.08393         0.01644
|145>    H        2.05245         3.47608        -0.46172
|146>    H       -2.00784         4.42466         0.62731
|147>    H       -2.42601         2.05677         1.13552
|148>    H      -13.44074        -4.32693        -3.51462
|149>    H      -13.13829        -5.98599        -2.89418
|150>    H      -13.19764        -5.69084        -4.65595
|151>    H       -2.40789        -1.83954         7.97037
|152>    H       -2.21837        -0.21055         7.25001
|153>    H       -0.85577        -1.38232         7.19694
|154>    H       -0.09336         7.30958        -0.59819
|155>    H       -0.98954         6.53876         0.75061
|156>    H       -1.42339         6.15879        -0.94735
|157>    H        9.18752         0.35052        -4.51753
|158>    H        9.02678        -1.40946        -4.22797
|159>    H        9.15021        -0.27771        -2.84005
|160>    H        1.96316        -9.53575        -4.76744
|161>    H        3.53903        -8.68038        -4.75415
|162>    H        2.04283        -7.80234        -5.21227
|163> *
|164> 
|165>                          ****END OF INPUT****
================================================================================

                       ****************************
                       * Single Point Calculation *
                       ****************************

---------------------------------
CARTESIAN COORDINATES (ANGSTROEM)
---------------------------------
  C      2.488970   -2.617650   -0.437460
  C      2.536440   -2.053840    0.866420
  C      1.528150   -1.200770    1.333550
  C      0.431590   -0.995960    0.511520
  C      0.299130   -1.699070   -0.716290
  C      1.350140   -2.487370   -1.219710
  C      3.783860   -3.403200   -0.734210
  C      4.360950   -3.513820    0.685900
  C      3.675710   -2.645400    1.526790
  C      5.344100   -4.266130    1.363060
  C      5.394820   -3.967680    2.727380
  S      4.233720   -2.702480    3.148290
  C     -0.795160   -0.106540    0.783440
  C     -1.714340   -0.557690   -0.352060
  C     -1.053470   -1.456780   -1.178120
  C     -3.066270   -0.366770   -0.703210
  C     -3.456720   -1.190910   -1.755870
  S     -2.093900   -2.122560   -2.383810
  C      6.172040   -4.583630    3.777860
  C     -4.802030   -1.430970   -2.237530
  C     -1.348360   -0.441710    2.172540
  C     -0.449250    1.380140    0.594950
  C      3.469420   -4.737340   -1.407880
  C      4.743140   -2.535630   -1.579650
  C      5.929750   -4.327920    5.136420
  C      6.621200   -4.958310    6.185340
  C      7.643070   -5.893970    5.976050
  C      7.944150   -6.141380    4.599260
  C      7.224150   -5.522640    3.530810
  C     -5.204910   -2.655670   -2.783840
  C     -6.537240   -2.944870   -3.137380
  C     -7.588870   -2.031530   -2.986390
  C     -7.187670   -0.744030   -2.504130
  C     -5.839830   -0.455040   -2.128860
  N      8.863420   -6.963250    4.060040
  N      8.679110   -6.823090    2.757780
  N      7.728340   -5.992290    2.370440
  N     -7.919960    0.369120   -2.310370
  N     -7.035260    1.243710   -1.854960
  N     -5.790430    0.827820   -1.716290
  C      8.365660   -6.591380    7.008680
  C      8.026370   -6.779320    8.312260
  C     -8.985130   -2.304740   -3.214820
  C     -9.610590   -3.490230   -3.450840
  C     -7.401440    2.617870   -1.565840
  C      9.494900   -7.541750    1.797310
  C    -11.084840   -3.578530   -3.535030
  N    -11.480400   -4.936180   -3.672550
  C    -10.470090   -5.847170   -3.751410
  S     -8.886200   -5.089150   -3.602500
  C      8.891980   -7.543200    9.232730
  N      8.230610   -7.726400   10.477020
  C      6.994010   -7.165930   10.585500
  S      6.525340   -6.315610    9.114380
  C      8.897920   -8.480510   11.532330
  O     10.002390   -7.968880    9.008240
  C      6.126430   -7.186360   11.668810
  C      4.867870   -6.521450   11.533960
  C      6.385610   -7.816340   12.921800
  C      2.721080   -5.703130   -0.710030
  C      2.319970   -6.882500   -1.321850
  C      2.657320   -7.133640   -2.665260
  C      3.417860   -6.190870   -3.366200
  C      3.814560   -5.005960   -2.732760
  C      4.296860   -1.480290   -2.391920
  C      5.183060   -0.724860   -3.154910
  C      6.557910   -1.003540   -3.130750
  C      7.020050   -2.063220   -2.334730
  C      6.116280   -2.810130   -1.574800
  C     -2.228590   -1.523590    2.351080
  C     -2.600000   -1.948960    3.619690
  C     -2.081560   -1.314600    4.761480
  C     -1.218240   -0.220740    4.601080
  C     -0.867900    0.206470    3.313790
  C      0.814620    1.807150    0.156430
  C      1.071570    3.146520   -0.114160
  C      0.061040    4.106820    0.028510
  C     -1.202860    3.702770    0.487840
  C     -1.440640    2.354100    0.768890
  O    -11.876260   -2.664860   -3.483400
  C    -12.902230   -5.265450   -3.687670
  C    -10.550770   -7.221520   -3.925960
  C     -9.331260   -7.965480   -3.968660
  C    -11.760520   -7.960270   -4.084140
  N      3.850430   -5.975370   11.398650
  N      6.550380   -8.315690   13.958870
  N    -12.723430   -8.598090   -4.216270
  N     -8.325070   -8.546420   -4.000910
  O     -2.473520   -1.827940    5.953870
  O      0.399540    5.378190   -0.299090
  O      7.350330   -0.209650   -3.894550
  O      2.204830   -8.298000   -3.191110
  C     -1.954730   -1.278270    7.143300
  C     -0.583600    6.384480   -0.266110
  C      8.743830   -0.406940   -3.859180
  C      2.457880   -8.580830   -4.547820
  H      1.585370   -0.738980    2.320320
  H      1.265200   -3.005090   -2.176840
  H      5.974560   -5.038040    0.925030
  H     -3.769700    0.283400   -0.185780
  H      5.145970   -3.618970    5.409550
  H      6.348210   -4.664750    7.200030
  H     -4.463190   -3.448650   -2.896720
  H     -6.731880   -3.937160   -3.542440
  H      9.299040   -7.078010    6.709150
  H     -9.662830   -1.449330   -3.130090
  H     -8.481100    2.715300   -1.722460
  H     -6.857470    3.292550   -2.240860
  H     -7.133880    2.860040   -0.527860
  H     10.078570   -6.828640    1.197710
  H      8.846740   -8.128590    1.131680
  H     10.163560   -8.201200    2.360990
  H      9.861140   -8.804480   11.121940
  H      8.302930   -9.355680   11.823310
  H      9.061710   -7.849230   12.415710
  H      2.432990   -5.509240    0.326060
  H      1.731420   -7.630420   -0.787050
  H      3.708030   -6.359540   -4.402660
  H      4.394220   -4.275690   -3.299690
  H      3.236160   -1.230800   -2.431070
  H      4.829930    0.099770   -3.776850
  H      8.079310   -2.318250   -2.293800
  H      6.504010   -3.626510   -0.964060
  H     -2.618630   -2.052520    1.480800
  H     -3.279210   -2.791390    3.762720
  H     -0.808980    0.305400    5.462720
  H     -0.196980    1.061000    3.200420
  H      1.617230    1.083930    0.016440
  H      2.052450    3.476080   -0.461720
  H     -2.007840    4.424660    0.627310
  H     -2.426010    2.056770    1.135520
  H    -13.440740   -4.326930   -3.514620
  H    -13.138290   -5.985990   -2.894180
  H    -13.197640   -5.690840   -4.655950
  H     -2.407890   -1.839540    7.970370
  H     -2.218370   -0.210550    7.250010
  H     -0.855770   -1.382320    7.196940
  H     -0.093360    7.309580   -0.598190
  H     -0.989540    6.538760    0.750610
  H     -1.423390    6.158790   -0.947350
  H      9.187520    0.350520   -4.517530
  H      9.026780   -1.409460   -4.227970
  H      9.150210   -0.277710   -2.840050
  H      1.963160   -9.535750   -4.767440
  H      3.539030   -8.680380   -4.754150
  H      2.042830   -7.802340   -5.212270

----------------------------
CARTESIAN COORDINATES (A.U.)
----------------------------
  NO LB      ZA    FRAG     MASS         X           Y           Z
   0 C     6.0000    0    12.011    4.703472   -4.946642   -0.826680
   1 C     6.0000    0    12.011    4.793177   -3.881195    1.637297
   2 C     6.0000    0    12.011    2.887785   -2.269126    2.520044
   3 C     6.0000    0    12.011    0.815587   -1.882092    0.966633
   4 C     6.0000    0    12.011    0.565274   -3.210777   -1.353592
   5 C     6.0000    0    12.011    2.551395   -4.700448   -2.304918
   6 C     6.0000    0    12.011    7.150459   -6.431116   -1.387456
   7 C     6.0000    0    12.011    8.241001   -6.640157    1.296163
   8 C     6.0000    0    12.011    6.946085   -4.999082    2.885215
   9 C     6.0000    0    12.011   10.098885   -8.061817    2.575810
  10 C     6.0000    0    12.011   10.194732   -7.497829    5.154001
  11 S    16.0000    0    32.060    8.000571   -5.106947    5.949406
  12 C     6.0000    0    12.011   -1.502635   -0.201331    1.480487
  13 C     6.0000    0    12.011   -3.239633   -1.053881   -0.665297
  14 C     6.0000    0    12.011   -1.990770   -2.752915   -2.226324
  15 C     6.0000    0    12.011   -5.794411   -0.693095   -1.328874
  16 C     6.0000    0    12.011   -6.532254   -2.250494   -3.318113
  17 S    16.0000    0    32.060   -3.956898   -4.011057   -4.504748
  18 C     6.0000    0    12.011   11.663465   -8.661805    7.139121
  19 C     6.0000    0    12.011   -9.074522   -2.704141   -4.228319
  20 C     6.0000    0    12.011   -2.548031   -0.834711    4.105506
  21 C     6.0000    0    12.011   -0.848959    2.608087    1.124293
  22 C     6.0000    0    12.011    6.556254   -8.952275   -2.660508
  23 C     6.0000    0    12.011    8.963236   -4.791646   -2.985106
  24 C     6.0000    0    12.011   11.205604   -8.178584    9.706427
  25 C     6.0000    0    12.011   12.512255   -9.369848   11.688599
  26 C     6.0000    0    12.011   14.443309  -11.137989   11.293098
  27 C     6.0000    0    12.011   15.012268  -11.605526    8.691342
  28 C     6.0000    0    12.011   13.651665  -10.436277    6.672264
  29 C     6.0000    0    12.011   -9.835854   -5.018489   -5.260695
  30 C     6.0000    0    12.011  -12.353593   -5.564998   -5.928789
  31 C     6.0000    0    12.011  -14.340886   -3.839035   -5.643459
  32 C     6.0000    0    12.011  -13.582728   -1.406013   -4.732120
  33 C     6.0000    0    12.011  -11.035679   -0.859901   -4.022962
  34 N     7.0000    0    14.007   16.749436  -13.158636    7.672364
  35 N     7.0000    0    14.007   16.401141  -12.893771    5.211449
  36 N     7.0000    0    14.007   14.604446  -11.323787    4.479482
  37 N     7.0000    0    14.007  -14.966555    0.697536   -4.365967
  38 N     7.0000    0    14.007  -13.294715    2.350271   -3.505366
  39 N     7.0000    0    14.007  -10.942327    1.564353   -3.243318
  40 C     6.0000    0    12.011   15.808806  -12.455903   13.244486
  41 C     6.0000    0    12.011   15.167641  -12.811058   15.707895
  42 C     6.0000    0    12.011  -16.979435   -4.355327   -6.075129
  43 C     6.0000    0    12.011  -18.161383   -6.595579   -6.521143
  44 C     6.0000    0    12.011  -13.986695    4.947057   -2.959009
  45 C     6.0000    0    12.011   17.942761  -14.251842    3.396424
  46 C     6.0000    0    12.011  -20.947312   -6.762442   -6.680239
  47 N     7.0000    0    14.007  -21.694812   -9.328028   -6.940114
  48 C     6.0000    0    12.011  -19.785603  -11.049550   -7.089138
  49 S    16.0000    0    32.060  -16.792484   -9.617100   -6.807738
  50 C     6.0000    0    12.011   16.803407  -14.254582   17.447331
  51 N     7.0000    0    14.007   15.553599  -14.600780   19.798698
  52 C     6.0000    0    12.011   13.216763  -13.541645   20.003696
  53 S    16.0000    0    32.060   12.331106  -11.934773   17.223682
  54 C     6.0000    0    12.011   16.814632  -16.025841   21.792945
  55 O     8.0000    0    15.999   18.901778  -15.059001   17.023107
  56 C     6.0000    0    12.011   11.577275  -13.580252   22.050855
  57 C     6.0000    0    12.011    9.198941  -12.323754   21.796026
  58 C     6.0000    0    12.011   12.067054  -14.770742   24.418663
  59 C     6.0000    0    12.011    5.142096  -10.777354   -1.341762
  60 C     6.0000    0    12.011    4.384108  -13.006040   -2.497934
  61 C     6.0000    0    12.011    5.021607  -13.480626   -5.036611
  62 C     6.0000    0    12.011    6.458819  -11.699049   -6.361196
  63 C     6.0000    0    12.011    7.208474   -9.459893   -5.164168
  64 C     6.0000    0    12.011    8.119889   -2.797343   -4.520074
  65 C     6.0000    0    12.011    9.794564   -1.369787   -5.961916
  66 C     6.0000    0    12.011   12.392654   -1.896416   -5.916260
  67 C     6.0000    0    12.011   13.265972   -3.898921   -4.412000
  68 C     6.0000    0    12.011   11.558094   -5.310376   -2.975941
  69 C     6.0000    0    12.011   -4.211425   -2.879168    4.442897
  70 C     6.0000    0    12.011   -4.913288   -3.683001    6.840223
  71 C     6.0000    0    12.011   -3.933578   -2.484234    8.997893
  72 C     6.0000    0    12.011   -2.302140   -0.417138    8.694781
  73 C     6.0000    0    12.011   -1.640093    0.390172    6.262156
  74 C     6.0000    0    12.011    1.539409    3.415019    0.295610
  75 C     6.0000    0    12.011    2.024974    5.946061   -0.215731
  76 C     6.0000    0    12.011    0.115349    7.760765    0.053876
  77 C     6.0000    0    12.011   -2.273076    6.997221    0.921884
  78 C     6.0000    0    12.011   -2.722415    4.448604    1.452992
  79 O     8.0000    0    15.999  -22.442879   -5.035856   -6.582672
  80 C     6.0000    0    12.011  -24.381681   -9.950258   -6.968686
  81 C     6.0000    0    12.011  -19.938066  -13.646695   -7.418989
  82 C     6.0000    0    12.011  -17.633526  -15.052576   -7.499681
  83 C     6.0000    0    12.011  -22.224162  -15.042730   -7.717906
  84 N     7.0000    0    14.007    7.276258  -11.291813   21.540327
  85 N     7.0000    0    14.007   12.378424  -15.714377   26.378441
  86 N     7.0000    0    14.007  -24.043798  -16.248035   -7.967596
  87 N     7.0000    0    14.007  -15.732102  -16.150393   -7.560624
  88 O     8.0000    0    15.999   -4.674275   -3.454306   11.251184
  89 O     8.0000    0    15.999    0.755021   10.163306   -0.565198
  90 O     8.0000    0    15.999   13.890111   -0.396181   -7.359633
  91 O     8.0000    0    15.999    4.166525  -15.680947   -6.030324
  92 C     6.0000    0    12.011   -3.693904   -2.415580   13.498881
  93 C     6.0000    0    12.011   -1.102844   12.064919   -0.502875
  94 C     6.0000    0    12.011   16.523444   -0.769005   -7.292793
  95 C     6.0000    0    12.011    4.644720  -16.215419   -8.594134
  96 H     1.0000    0     1.008    2.995915   -1.396470    4.384769
  97 H     1.0000    0     1.008    2.390882   -5.678797   -4.113631
  98 H     1.0000    0     1.008   11.290282   -9.520516    1.748053
  99 H     1.0000    0     1.008   -7.123701    0.535548   -0.351073
 100 H     1.0000    0     1.008    9.724474   -6.838862   10.222568
 101 H     1.0000    0     1.008   11.996378   -8.815100   13.606085
 102 H     1.0000    0     1.008   -8.434207   -6.517004   -5.474007
 103 H     1.0000    0     1.008  -12.721410   -7.440154   -6.694241
 104 H     1.0000    0     1.008   17.572639  -13.375500   12.678456
 105 H     1.0000    0     1.008  -18.260102   -2.738837   -5.915013
 106 H     1.0000    0     1.008  -16.026956    5.131173   -3.254978
 107 H     1.0000    0     1.008  -12.958740    6.222018   -4.234612
 108 H     1.0000    0     1.008  -13.481079    5.404692   -0.997511
 109 H     1.0000    0     1.008   19.045737  -12.904259    2.263344
 110 H     1.0000    0     1.008   16.717916  -15.360809    2.138565
 111 H     1.0000    0     1.008   19.206345  -15.498022    4.461625
 112 H     1.0000    0     1.008   18.634854  -16.638056   21.017421
 113 H     1.0000    0     1.008   15.690264  -17.679673   22.342818
 114 H     1.0000    0     1.008   17.124150  -14.832895   23.462292
 115 H     1.0000    0     1.008    4.597685  -10.410955    0.616164
 116 H     1.0000    0     1.008    3.271910  -14.419404   -1.487309
 117 H     1.0000    0     1.008    7.007161  -12.017789   -8.319822
 118 H     1.0000    0     1.008    8.303872   -8.079883   -6.235510
 119 H     1.0000    0     1.008    6.115456   -2.325875   -4.594057
 120 H     1.0000    0     1.008    9.127245    0.188538   -7.137212
 121 H     1.0000    0     1.008   15.267683   -4.380858   -4.334654
 122 H     1.0000    0     1.008   12.290798   -6.853111   -1.821809
 123 H     1.0000    0     1.008   -4.948494   -3.878701    2.798306
 124 H     1.0000    0     1.008   -6.196809   -5.274963    7.110510
 125 H     1.0000    0     1.008   -1.528751    0.577122   10.323045
 126 H     1.0000    0     1.008   -0.372238    2.004999    6.047917
 127 H     1.0000    0     1.008    3.056122    2.048331    0.031067
 128 H     1.0000    0     1.008    3.878568    6.568839   -0.872524
 129 H     1.0000    0     1.008   -3.794268    8.361396    1.185444
 130 H     1.0000    0     1.008   -4.584494    3.886732    2.145822
 131 H     1.0000    0     1.008  -25.399318   -8.176713   -6.641669
 132 H     1.0000    0     1.008  -24.827770  -11.311882   -5.469208
 133 H     1.0000    0     1.008  -24.939925  -10.754129   -8.798470
 134 H     1.0000    0     1.008   -4.550253   -3.476227   15.061816
 135 H     1.0000    0     1.008   -4.192112   -0.397882   13.700533
 136 H     1.0000    0     1.008   -1.617171   -2.612206   13.600246
 137 H     1.0000    0     1.008   -0.176425   13.813104   -1.130415
 138 H     1.0000    0     1.008   -1.869960   12.356466    1.418447
 139 H     1.0000    0     1.008   -2.689817   11.638426   -1.790232
 140 H     1.0000    0     1.008   17.361897    0.662387   -8.536895
 141 H     1.0000    0     1.008   17.058142   -2.663493   -7.989705
 142 H     1.0000    0     1.008   17.291391   -0.524796   -5.366917
 143 H     1.0000    0     1.008    3.709835  -18.019956   -9.009156
 144 H     1.0000    0     1.008    6.687797  -16.403541   -8.984041
 145 H     1.0000    0     1.008    3.860389  -14.744286   -9.849763

--------------------------------
INTERNAL COORDINATES (ANGSTROEM)
--------------------------------
 C      0   0   0     0.000000000000     0.00000000     0.00000000
 C      1   0   0     1.421350826292     0.00000000     0.00000000
 C      2   1   0     1.400923833012   121.56029151     0.00000000
 C      3   2   1     1.385685494836   117.50026865     4.30375774
 C      4   3   2     1.421065346773   120.87638353     4.19135299
 C      1   2   3     1.387739784614   120.48198296   351.03377714
 C      1   2   3     1.543337123606   110.50378594   174.62361671
 C      7   1   2     1.536874121260   100.02132267    14.59428287
 C      8   7   1     1.389533427486   109.20964023   346.83645578
 C      8   7   1     1.411063401907   138.02466198   164.38909839
 C     10   8   7     1.397502766831   112.32911791   182.85819001
 S      9   8   7     1.715778405418   113.00022394   179.40840768
 C      4   3   2     1.539455743209   127.67726960   180.46284928
 C     13   4   3     1.528982813801   100.21866797   191.13304174
 C     14  13   4     1.388339694959   110.29137518   355.40320703
 C     14  13   4     1.409777107844   136.18049785   169.69665500
 C     16  14  13     1.392749445414   112.14580615   189.53345350
 S     15  14  13     1.726107172049   112.23907728   174.15962981
 C     11  10   8     1.444636134568   129.66989703   174.38262015
 C     17  16  14     1.448959680357   127.55871339   169.07611938
 C     13   4   3     1.532308056136   108.75013201   309.91477745
 C     13   4   3     1.537985575550   110.95308812    75.82691013
 C      7   1   2     1.527296082002   110.89742981   136.34272811
 C      7   1   2     1.545206981896   109.89483978   260.90153702
 C     19  11  10     1.403487556696   122.23009029   191.87410323
 C     25  19  11     1.405605855494   123.76016356   176.74911121
 C     26  25  19     1.401242390381   123.14428012     1.11809525
 C     27  26  25     1.430877904854   114.36948629     1.01444079
 C     28  27  26     1.429274147986   122.57745680   357.66614614
 C     20  17  16     1.400234623376   122.80244562   212.35597295
 C     30  20  17     1.408449644290   123.34638057   173.72453447
 C     31  30  20     1.401040182365   123.30748783     0.49702710
 C     32  31  30     1.432198449098   114.33435351     3.09514558
 C     33  32  31     1.428641123096   122.31552822   356.10656406
 N     28  27  26     1.345840197869   129.40708014   179.50122705
 N     35  28  27     1.322685189038   103.56684848   178.34094158
 N     36  35  28     1.320690920882   117.11202383   359.90014904
 N     33  32  31     1.346437708994   129.74057681   176.41272995
 N     38  33  32     1.324764139838   103.41854276   179.94981003
 N     39  38  33     1.319771036923   117.25661793   359.57052401
 C     27  26  25     1.440431092798   125.59509715   181.38889378
 C     41  27  26     1.360058809059   128.96749865    18.69924393
 C     32  31  30     1.440960081543   125.91860354   185.93466446
 C     43  32  31     1.360989416601   129.63923022     9.08610593
 C     39  38  33     1.451204283483   121.67598244   177.31557878
 C     36  35  28     1.450685403732   121.39939441   179.33754958
 C     44  43  32     1.479289663521   121.32288829   174.11493654
 N     47  44  43     1.420771968509   109.87754996   184.97781444
 C     48  47  44     1.362662091569   115.97733418   357.53957676
 S     44  43  32     1.761898633321   128.05797421   357.91836924
 C     42  41  27     1.476502064814   121.51781133   179.24077341
 N     51  42  41     1.420996172057   109.86034228   187.11004195
 C     52  51  42     1.362011046688   116.05678548   358.81282320
 S     53  52  51     1.762637150891   111.92844235   359.34245700
 C     52  51  42     1.458651337469   119.15949297   178.88148324
 O     51  42  41     1.210210556308   127.17460457     7.15643296
 C     53  52  51     1.388046468026   128.57869470   179.83986832
 C     57  53  52     1.429777291819   118.01703725   180.23860334
 C     57  53  52     1.426195292693   125.35129970     0.47391318
 C     23   7   1     1.407038628539   119.36180534   296.80111233
 C     60  23   7     1.387849610513   121.22231385   174.67992146
 C     61  60  23     1.407702649781   120.20196249   359.91634104
 C     62  61  60     1.399483207509   119.21132051     1.00113843
 C     23   7   1     1.395200823681   122.41903392   112.11662675
 C     24   7   1     1.404525153531   122.75414974   335.91436258
 C     65  24   7     1.392184853028   121.49395046   180.74047799
 C     66  65  24     1.403017737058   120.43467746     0.03786432
 C     67  66  65     1.403617797835   118.83980971     0.58441264
 C     68  67  66     1.397200188198   119.93825911   359.37349822
 C     21  13   4     1.406110137543   120.62438965   276.12900488
 C     70  21  13     1.388616706330   121.27380497   171.45043035
 C     71  70  21     1.405303186967   120.35257529   358.94802518
 C     72  71  70     1.402704274607   119.08872967     1.98957777
 C     21  13   4     1.397651847385   120.97649390    88.07958171
 C     22  13   4     1.404280850614   122.31865510     3.34913732
 C     75  22  13     1.390379174003   121.33375714   174.55398679
 C     76  75  22     1.401321412025   120.46808356   359.12676749
 C     77  76  75     1.404166536206   119.02590099     1.92946990
 C     78  77  76     1.398012589285   119.76549474   358.75041376
 O     47  44  43     1.209877738534   127.18553492     4.14847911
 C     48  47  44     1.459536877300   119.19595809   176.09947039
 C     49  48  47     1.387737326514   128.77488235   182.04005911
 C     82  49  48     1.429162136253   118.01377302   180.36211660
 C     82  49  48     1.426277510655   125.18520672     1.16802888
 N     58  57  53     1.162624752919   178.67484317     3.86860415
 N     59  57  53     1.162761265394   177.48236318   181.72994421
 N     84  82  49     1.162526712553   177.89820521   179.91869385
 N     83  82  49     1.162303601560   178.61066762   357.74858885
 O     72  71  70     1.356076881781   115.90655335   181.88303070
 O     77  76  75     1.355833945179   115.97337105   181.97534743
 O     67  66  65     1.357048720017   116.50738607   180.61347821
 O     62  61  60     1.355359595163   116.32838632   181.16863757
 C     89  72  71     1.409263601283   119.21435934   177.55651044
 C     90  77  76     1.407221199421   119.37056435   175.89372947
 C     91  67  66     1.407841124204   118.80685775   177.12700366
 C     92  62  61     1.408789954358   119.08702864   177.20708541
 H      3   2   1     1.090980827238   121.43924924   182.35893947
 H      6   1   2     1.091488267871   120.90603066   186.52679033
 H     10   8   7     1.088666680210   126.04580977   359.67638569
 H     16  14  13     1.088700417333   125.59844764     5.11978315
 H     25  19  11     1.091568224070   118.97954715   358.28225489
 H     26  25  19     1.091007245530   116.76149279   179.32125368
 H     30  20  17     1.091653669073   118.69786707   356.96728786
 H     31  30  20     1.089310689060   116.70572899   180.73972627
 H     41  27  26     1.094406324086   116.54607389   195.89287273
 H     43  32  31     1.094615334718   116.07044395   184.99599058
 H     45  39  38     1.095302764034   107.72608441     4.06221496
 H     45  39  38     1.098521034710   109.52355909   244.17369862
 H     45  39  38     1.098925449200   109.59769098   124.72110389
 H     46  36  35     1.099416527527   109.77368278   243.73427170
 H     46  36  35     1.098888469363   109.50603505   123.83727735
 H     46  36  35     1.095315315560   107.50755737     3.74449406
 H     55  52  51     1.095978686563   106.49795657   359.02491586
 H     55  52  51     1.097544982859   110.85753083   239.53152727
 H     55  52  51     1.098044546865   110.67460633   118.42311740
 H     60  23   7     1.092735863921   119.25435467   356.02337187
 H     61  60  23     1.091689731059   121.46932125   180.57288595
 H     63  62  61     1.089448268345   121.12743746   179.16277522
 H     64  23   7     1.091196413759   119.73066953     4.60140932
 H     65  24   7     1.090349701976   120.11907170     1.15949437
 H     66  65  24     1.091569877470   121.08158580   180.56563450
 H     68  67  66     1.090296892319   121.18204840   179.50013328
 H     69  68  67     1.090786049095   118.33975184   180.11945422
 H     70  21  13     1.090543637320   119.71873341   352.39370487
 H     71  70  21     1.091545743384   121.50389486   180.30063404
 H     73  72  71     1.089376214537   121.15862252   179.05987124
 H     74  21  13     1.092340571525   119.28752055     8.92801756
 H     75  22  13     1.089415981432   120.08817174   354.87433692
 H     76  75  22     1.091573782023   121.25632485   180.43681002
 H     78  77  76     1.090215507778   121.05915317   178.94256582
 H     79  78  77     1.092600898178   118.90614606   179.36511935
 H     81  48  47     1.095791546326   106.49205134   356.37425125
 H     81  48  47     1.097510180044   110.49655669   236.90747181
 H     81  48  47     1.098084640909   111.01443061   115.86541611
 H     93  89  72     1.097461973555   106.53368780   179.77465840
 H     93  89  72     1.104952067784   111.75093007    61.01909405
 H     93  89  72     1.105177240853   111.73412946   298.73946393
 H     94  90  77     1.098372611640   106.46146240   181.91085083
 H     94  90  77     1.105580915356   112.20135926    62.83747149
 H     94  90  77     1.104658842268   111.75091124   300.77218819
 H     95  91  67     1.097283550501   106.76359708   181.64821089
 H     95  91  67     1.105039871226   111.85115064    62.72293152
 H     95  91  67     1.104749317357   111.77019431   300.63828288
 H     96  92  62     1.097657974599   106.64145110   182.85661029
 H     96  92  62     1.105155008992   111.93785767    63.75926167
 H     96  92  62     1.104448724523   111.73784784   301.71352689

---------------------------
INTERNAL COORDINATES (A.U.)
---------------------------
 C      0   0   0     0.000000000000     0.00000000     0.00000000
 C      1   0   0     2.685963801914     0.00000000     0.00000000
 C      2   1   0     2.647362378875   121.56029151     0.00000000
 C      3   2   1     2.618566092988   117.50026865     4.30375774
 C      4   3   2     2.685424323807   120.87638353     4.19135299
 C      1   2   3     2.622448138067   120.48198296   351.03377714
 C      1   2   3     2.916484495929   110.50378594   174.62361671
 C      7   1   2     2.904271191493   100.02132267    14.59428287
 C      8   7   1     2.625837631877   109.20964023   346.83645578
 C      8   7   1     2.666523387203   138.02466198   164.38909839
 C     10   8   7     2.640897500708   112.32911791   182.85819001
 S      9   8   7     3.242351292737   113.00022394   179.40840768
 C      4   3   2     2.909149749958   127.67726960   180.46284928
 C     13   4   3     2.889358781557   100.21866797   191.13304174
 C     14  13   4     2.623581804325   110.29137518   355.40320703
 C     14  13   4     2.664092643696   136.18049785   169.69665500
 C     16  14  13     2.631915025002   112.14580615   189.53345350
 S     15  14  13     3.261869832970   112.23907728   174.15962981
 C     11  10   8     2.729966657500   129.66989703   174.38262015
 C     17  16  14     2.738136974969   127.55871339   169.07611938
 C     13   4   3     2.895642578899   108.75013201   309.91477745
 C     13   4   3     2.906371535711   110.95308812    75.82691013
 C      7   1   2     2.886171320396   110.89742981   136.34272811
 C      7   1   2     2.920018016006   109.89483978   260.90153702
 C     19  11  10     2.652207114521   122.23009029   191.87410323
 C     25  19  11     2.656210119120   123.76016356   176.74911121
 C     26  25  19     2.647964365061   123.14428012     1.11809525
 C     27  26  25     2.703967371254   114.36948629     1.01444079
 C     28  27  26     2.700936709986   122.57745680   357.66614614
 C     20  17  16     2.646059961414   122.80244562   212.35597295
 C     30  20  17     2.661584101126   123.34638057   173.72453447
 C     31  30  20     2.647582247288   123.30748783     0.49702710
 C     32  31  30     2.706462838223   114.33435351     3.09514558
 C     33  32  31     2.699740466308   122.31552822   356.10656406
 N     28  27  26     2.543269393995   129.40708014   179.50122705
 N     35  28  27     2.499512768675   103.56684848   178.34094158
 N     36  35  28     2.495744148023   117.11202383   359.90014904
 N     33  32  31     2.544398526382   129.74057681   176.41272995
 N     38  33  32     2.503441416333   103.41854276   179.94981003
 N     39  38  33     2.494005819265   117.25661793   359.57052401
 C     27  26  25     2.722020280174   125.59509715   181.38889378
 C     41  27  26     2.570138675149   128.96749865    18.69924393
 C     32  31  30     2.723019924029   125.91860354   185.93466446
 C     43  32  31     2.571897268541   129.63923022     9.08610593
 C     39  38  33     2.742378660157   121.67598244   177.31557878
 C     36  35  28     2.741398119530   121.39939441   179.33754958
 C     44  43  32     2.795452336795   121.32288829   174.11493654
 N     47  44  43     2.684869919234   109.87754996   184.97781444
 C     48  47  44     2.575058166142   115.97733418   357.53957676
 S     44  43  32     3.329505892708   128.05797421   357.91836924
 C     42  41  27     2.790184538668   121.51781133   179.24077341
 N     51  42  41     2.685293602538   109.86034228   187.11004195
 C     52  51  42     2.573827869616   116.05678548   358.81282320
 S     53  52  51     3.330901488659   111.92844235   359.34245700
 C     52  51  42     2.756451552694   119.15949297   178.88148324
 O     51  42  41     2.286966515803   127.17460457     7.15643296
 C     53  52  51     2.623027685726   128.57869470   179.83986832
 C     57  53  52     2.701887514037   118.01703725   180.23860334
 C     57  53  52     2.695118516678   125.35129970     0.47391318
 C     23   7   1     2.658917667786   119.36180534   296.80111233
 C     60  23   7     2.622655678938   121.22231385   174.67992146
 C     61  60  23     2.660172486081   120.20196249   359.91634104
 C     62  61  60     2.644639991214   119.21132051     1.00113843
 C     23   7   1     2.636547458578   122.41903392   112.11662675
 C     24   7   1     2.654167888376   122.75414974   335.91436258
 C     65  24   7     2.630848100016   121.49395046   180.74047799
 C     66  65  24     2.651319284074   120.43467746     0.03786432
 C     67  66  65     2.652453234606   118.83980971     0.58441264
 C     68  67  66     2.640325709957   119.93825911   359.37349822
 C     21  13   4     2.657163074086   120.62438965   276.12900488
 C     70  21  13     2.624105279952   121.27380497   171.45043035
 C     71  70  21     2.655638158495   120.35257529   358.94802518
 C     72  71  70     2.650726925887   119.08872967     1.98957777
 C     21  13   4     2.641179222128   120.97649390    88.07958171
 C     22  13   4     2.653706222770   122.31865510     3.34913732
 C     75  22  13     2.627435861172   121.33375714   174.55398679
 C     76  75  22     2.648113694327   120.46808356   359.12676749
 C     77  76  75     2.653490199846   119.02590099     1.92946990
 C     78  77  76     2.641860925523   119.76549474   358.75041376
 O     47  44  43     2.286337581357   127.18553492     4.14847911
 C     48  47  44     2.758124980457   119.19595809   176.09947039
 C     49  48  47     2.622443492931   128.77488235   182.04005911
 C     82  49  48     2.700725038489   118.01377302   180.36211660
 C     82  49  48     2.695273886109   125.18520672     1.16802888
 N     58  57  53     2.197042379535   178.67484317     3.86860415
 N     59  57  53     2.197300350726   177.48236318   181.72994421
 N     84  82  49     2.196857110094   177.89820521   179.91869385
 N     83  82  49     2.196435491419   178.61066762   357.74858885
 O     72  71  70     2.562613923107   115.90655335   181.88303070
 O     77  76  75     2.562154839463   115.97337105   181.97534743
 O     67  66  65     2.564450431221   116.50738607   180.61347821
 O     62  61  60     2.561258447840   116.32838632   181.16863757
 C     89  72  71     2.663122256928   119.21435934   177.55651044
 C     90  77  76     2.659262676754   119.37056435   175.89372947
 C     91  67  66     2.660434164817   118.80685775   177.12700366
 C     92  62  61     2.662227193956   119.08702864   177.20708541
 H      3   2   1     2.061654980838   121.43924924   182.35893947
 H      6   1   2     2.062613904664   120.90603066   186.52679033
 H     10   8   7     2.057281876723   126.04580977   359.67638569
 H     16  14  13     2.057345630644   125.59844764     5.11978315
 H     25  19  11     2.062764999984   118.97954715   358.28225489
 H     26  25  19     2.061704904176   116.76149279   179.32125368
 H     30  20  17     2.062926467638   118.69786707   356.96728786
 H     31  30  20     2.058498877076   116.70572899   180.73972627
 H     41  27  26     2.068128231754   116.54607389   195.89287273
 H     43  32  31     2.068523204608   116.07044395   184.99599058
 H     45  39  38     2.069822257751   107.72608441     4.06221496
 H     45  39  38     2.075903907953   109.52355909   244.17369862
 H     45  39  38     2.076668140585   109.59769098   124.72110389
 H     46  36  35     2.077596144133   109.77368278   243.73427170
 H     46  36  35     2.076598258821   109.50603505   123.83727735
 H     46  36  35     2.069845976698   107.50755737     3.74449406
 H     55  52  51     2.071099566218   106.49795657   359.02491586
 H     55  52  51     2.074059437264   110.85753083   239.53152727
 H     55  52  51     2.075003476421   110.67460633   118.42311740
 H     60  23   7     2.064971519525   119.25435467   356.02337187
 H     61  60  23     2.062994614916   121.46932125   180.57288595
 H     63  62  61     2.058758864247   121.12743746   179.16277522
 H     64  23   7     2.062062380321   119.73066953     4.60140932
 H     65  24   7     2.060462326938   120.11907170     1.15949437
 H     66  65  24     2.062768124456   121.08158580   180.56563450
 H     68  67  66     2.060362531148   121.18204840   179.50013328
 H     69  68  67     2.061286903491   118.33975184   180.11945422
 H     70  21  13     2.060828811626   119.71873341   352.39370487
 H     71  70  21     2.062722517643   121.50389486   180.30063404
 H     73  72  71     2.058622702284   121.15862252   179.05987124
 H     74  21  13     2.064224525154   119.28752055     8.92801756
 H     75  22  13     2.058697850824   120.08817174   354.87433692
 H     76  75  22     2.062775502992   121.25632485   180.43681002
 H     78  77  76     2.060208736655   121.05915317   178.94256582
 H     79  78  77     2.064716471233   118.90614606   179.36511935
 H     81  48  47     2.070745922423   106.49205134   356.37425125
 H     81  48  47     2.073993669474   110.49655669   236.90747181
 H     81  48  47     2.075079243183   111.01443061   115.86541611
 H     93  89  72     2.073902572412   106.53368780   179.77465840
 H     93  89  72     2.088056799222   111.75093007    61.01909405
 H     93  89  72     2.088482314655   111.73412946   298.73946393
 H     94  90  77     2.075623428999   106.46146240   181.91085083
 H     94  90  77     2.089245148913   112.20135926    62.83747149
 H     94  90  77     2.087502683300   111.75091124   300.77218819
 H     95  91  67     2.073565401704   106.76359708   181.64821089
 H     95  91  67     2.088222723681   111.85115064    62.72293152
 H     95  91  67     2.087673656441   111.77019431   300.63828288
 H     96  92  62     2.074272960706   106.64145110   182.85661029
 H     96  92  62     2.088440302526   111.93785767    63.75926167
 H     96  92  62     2.087105618307   111.73784784   301.71352689

---------------------
BASIS SET INFORMATION
---------------------
There are 5 groups of distinct atoms

 Group   1 Type C   : 11s6p2d1f contracted to 5s3p2d1f pattern {62111/411/11/1}
 Group   2 Type S   : 14s9p3d1f contracted to 5s5p2d1f pattern {73211/51111/21/1}
 Group   3 Type N   : 11s6p2d1f contracted to 5s3p2d1f pattern {62111/411/11/1}
 Group   4 Type O   : 11s6p2d1f contracted to 5s3p2d1f pattern {62111/411/11/1}
 Group   5 Type H   : 5s1p contracted to 3s1p pattern {311/1}

Atom   0C    basis set group =>   1
Atom   1C    basis set group =>   1
Atom   2C    basis set group =>   1
Atom   3C    basis set group =>   1
Atom   4C    basis set group =>   1
Atom   5C    basis set group =>   1
Atom   6C    basis set group =>   1
Atom   7C    basis set group =>   1
Atom   8C    basis set group =>   1
Atom   9C    basis set group =>   1
Atom  10C    basis set group =>   1
Atom  11S    basis set group =>   2
Atom  12C    basis set group =>   1
Atom  13C    basis set group =>   1
Atom  14C    basis set group =>   1
Atom  15C    basis set group =>   1
Atom  16C    basis set group =>   1
Atom  17S    basis set group =>   2
Atom  18C    basis set group =>   1
Atom  19C    basis set group =>   1
Atom  20C    basis set group =>   1
Atom  21C    basis set group =>   1
Atom  22C    basis set group =>   1
Atom  23C    basis set group =>   1
Atom  24C    basis set group =>   1
Atom  25C    basis set group =>   1
Atom  26C    basis set group =>   1
Atom  27C    basis set group =>   1
Atom  28C    basis set group =>   1
Atom  29C    basis set group =>   1
Atom  30C    basis set group =>   1
Atom  31C    basis set group =>   1
Atom  32C    basis set group =>   1
Atom  33C    basis set group =>   1
Atom  34N    basis set group =>   3
Atom  35N    basis set group =>   3
Atom  36N    basis set group =>   3
Atom  37N    basis set group =>   3
Atom  38N    basis set group =>   3
Atom  39N    basis set group =>   3
Atom  40C    basis set group =>   1
Atom  41C    basis set group =>   1
Atom  42C    basis set group =>   1
Atom  43C    basis set group =>   1
Atom  44C    basis set group =>   1
Atom  45C    basis set group =>   1
Atom  46C    basis set group =>   1
Atom  47N    basis set group =>   3
Atom  48C    basis set group =>   1
Atom  49S    basis set group =>   2
Atom  50C    basis set group =>   1
Atom  51N    basis set group =>   3
Atom  52C    basis set group =>   1
Atom  53S    basis set group =>   2
Atom  54C    basis set group =>   1
Atom  55O    basis set group =>   4
Atom  56C    basis set group =>   1
Atom  57C    basis set group =>   1
Atom  58C    basis set group =>   1
Atom  59C    basis set group =>   1
Atom  60C    basis set group =>   1
Atom  61C    basis set group =>   1
Atom  62C    basis set group =>   1
Atom  63C    basis set group =>   1
Atom  64C    basis set group =>   1
Atom  65C    basis set group =>   1
Atom  66C    basis set group =>   1
Atom  67C    basis set group =>   1
Atom  68C    basis set group =>   1
Atom  69C    basis set group =>   1
Atom  70C    basis set group =>   1
Atom  71C    basis set group =>   1
Atom  72C    basis set group =>   1
Atom  73C    basis set group =>   1
Atom  74C    basis set group =>   1
Atom  75C    basis set group =>   1
Atom  76C    basis set group =>   1
Atom  77C    basis set group =>   1
Atom  78C    basis set group =>   1
Atom  79O    basis set group =>   4
Atom  80C    basis set group =>   1
Atom  81C    basis set group =>   1
Atom  82C    basis set group =>   1
Atom  83C    basis set group =>   1
Atom  84N    basis set group =>   3
Atom  85N    basis set group =>   3
Atom  86N    basis set group =>   3
Atom  87N    basis set group =>   3
Atom  88O    basis set group =>   4
Atom  89O    basis set group =>   4
Atom  90O    basis set group =>   4
Atom  91O    basis set group =>   4
Atom  92C    basis set group =>   1
Atom  93C    basis set group =>   1
Atom  94C    basis set group =>   1
Atom  95C    basis set group =>   1
Atom  96H    basis set group =>   5
Atom  97H    basis set group =>   5
Atom  98H    basis set group =>   5
Atom  99H    basis set group =>   5
Atom 100H    basis set group =>   5
Atom 101H    basis set group =>   5
Atom 102H    basis set group =>   5
Atom 103H    basis set group =>   5
Atom 104H    basis set group =>   5
Atom 105H    basis set group =>   5
Atom 106H    basis set group =>   5
Atom 107H    basis set group =>   5
Atom 108H    basis set group =>   5
Atom 109H    basis set group =>   5
Atom 110H    basis set group =>   5
Atom 111H    basis set group =>   5
Atom 112H    basis set group =>   5
Atom 113H    basis set group =>   5
Atom 114H    basis set group =>   5
Atom 115H    basis set group =>   5
Atom 116H    basis set group =>   5
Atom 117H    basis set group =>   5
Atom 118H    basis set group =>   5
Atom 119H    basis set group =>   5
Atom 120H    basis set group =>   5
Atom 121H    basis set group =>   5
Atom 122H    basis set group =>   5
Atom 123H    basis set group =>   5
Atom 124H    basis set group =>   5
Atom 125H    basis set group =>   5
Atom 126H    basis set group =>   5
Atom 127H    basis set group =>   5
Atom 128H    basis set group =>   5
Atom 129H    basis set group =>   5
Atom 130H    basis set group =>   5
Atom 131H    basis set group =>   5
Atom 132H    basis set group =>   5
Atom 133H    basis set group =>   5
Atom 134H    basis set group =>   5
Atom 135H    basis set group =>   5
Atom 136H    basis set group =>   5
Atom 137H    basis set group =>   5
Atom 138H    basis set group =>   5
Atom 139H    basis set group =>   5
Atom 140H    basis set group =>   5
Atom 141H    basis set group =>   5
Atom 142H    basis set group =>   5
Atom 143H    basis set group =>   5
Atom 144H    basis set group =>   5
Atom 145H    basis set group =>   5
---------------------------------
AUXILIARY/J BASIS SET INFORMATION
---------------------------------
There are 5 groups of distinct atoms

 Group   1 Type C   : 12s5p4d2f1g contracted to 6s4p3d1f1g pattern {711111/2111/211/2/1}
 Group   2 Type S   : 14s5p5d2f1g contracted to 8s4p3d1f1g pattern {71111111/2111/311/2/1}
 Group   3 Type N   : 12s5p4d2f1g contracted to 6s4p3d1f1g pattern {711111/2111/211/2/1}
 Group   4 Type O   : 12s5p4d2f1g contracted to 6s4p3d1f1g pattern {711111/2111/211/2/1}
 Group   5 Type H   : 5s2p1d contracted to 3s1p1d pattern {311/2/1}

Atom   0C    basis set group =>   1
Atom   1C    basis set group =>   1
Atom   2C    basis set group =>   1
Atom   3C    basis set group =>   1
Atom   4C    basis set group =>   1
Atom   5C    basis set group =>   1
Atom   6C    basis set group =>   1
Atom   7C    basis set group =>   1
Atom   8C    basis set group =>   1
Atom   9C    basis set group =>   1
Atom  10C    basis set group =>   1
Atom  11S    basis set group =>   2
Atom  12C    basis set group =>   1
Atom  13C    basis set group =>   1
Atom  14C    basis set group =>   1
Atom  15C    basis set group =>   1
Atom  16C    basis set group =>   1
Atom  17S    basis set group =>   2
Atom  18C    basis set group =>   1
Atom  19C    basis set group =>   1
Atom  20C    basis set group =>   1
Atom  21C    basis set group =>   1
Atom  22C    basis set group =>   1
Atom  23C    basis set group =>   1
Atom  24C    basis set group =>   1
Atom  25C    basis set group =>   1
Atom  26C    basis set group =>   1
Atom  27C    basis set group =>   1
Atom  28C    basis set group =>   1
Atom  29C    basis set group =>   1
Atom  30C    basis set group =>   1
Atom  31C    basis set group =>   1
Atom  32C    basis set group =>   1
Atom  33C    basis set group =>   1
Atom  34N    basis set group =>   3
Atom  35N    basis set group =>   3
Atom  36N    basis set group =>   3
Atom  37N    basis set group =>   3
Atom  38N    basis set group =>   3
Atom  39N    basis set group =>   3
Atom  40C    basis set group =>   1
Atom  41C    basis set group =>   1
Atom  42C    basis set group =>   1
Atom  43C    basis set group =>   1
Atom  44C    basis set group =>   1
Atom  45C    basis set group =>   1
Atom  46C    basis set group =>   1
Atom  47N    basis set group =>   3
Atom  48C    basis set group =>   1
Atom  49S    basis set group =>   2
Atom  50C    basis set group =>   1
Atom  51N    basis set group =>   3
Atom  52C    basis set group =>   1
Atom  53S    basis set group =>   2
Atom  54C    basis set group =>   1
Atom  55O    basis set group =>   4
Atom  56C    basis set group =>   1
Atom  57C    basis set group =>   1
Atom  58C    basis set group =>   1
Atom  59C    basis set group =>   1
Atom  60C    basis set group =>   1
Atom  61C    basis set group =>   1
Atom  62C    basis set group =>   1
Atom  63C    basis set group =>   1
Atom  64C    basis set group =>   1
Atom  65C    basis set group =>   1
Atom  66C    basis set group =>   1
Atom  67C    basis set group =>   1
Atom  68C    basis set group =>   1
Atom  69C    basis set group =>   1
Atom  70C    basis set group =>   1
Atom  71C    basis set group =>   1
Atom  72C    basis set group =>   1
Atom  73C    basis set group =>   1
Atom  74C    basis set group =>   1
Atom  75C    basis set group =>   1
Atom  76C    basis set group =>   1
Atom  77C    basis set group =>   1
Atom  78C    basis set group =>   1
Atom  79O    basis set group =>   4
Atom  80C    basis set group =>   1
Atom  81C    basis set group =>   1
Atom  82C    basis set group =>   1
Atom  83C    basis set group =>   1
Atom  84N    basis set group =>   3
Atom  85N    basis set group =>   3
Atom  86N    basis set group =>   3
Atom  87N    basis set group =>   3
Atom  88O    basis set group =>   4
Atom  89O    basis set group =>   4
Atom  90O    basis set group =>   4
Atom  91O    basis set group =>   4
Atom  92C    basis set group =>   1
Atom  93C    basis set group =>   1
Atom  94C    basis set group =>   1
Atom  95C    basis set group =>   1
Atom  96H    basis set group =>   5
Atom  97H    basis set group =>   5
Atom  98H    basis set group =>   5
Atom  99H    basis set group =>   5
Atom 100H    basis set group =>   5
Atom 101H    basis set group =>   5
Atom 102H    basis set group =>   5
Atom 103H    basis set group =>   5
Atom 104H    basis set group =>   5
Atom 105H    basis set group =>   5
Atom 106H    basis set group =>   5
Atom 107H    basis set group =>   5
Atom 108H    basis set group =>   5
Atom 109H    basis set group =>   5
Atom 110H    basis set group =>   5
Atom 111H    basis set group =>   5
Atom 112H    basis set group =>   5
Atom 113H    basis set group =>   5
Atom 114H    basis set group =>   5
Atom 115H    basis set group =>   5
Atom 116H    basis set group =>   5
Atom 117H    basis set group =>   5
Atom 118H    basis set group =>   5
Atom 119H    basis set group =>   5
Atom 120H    basis set group =>   5
Atom 121H    basis set group =>   5
Atom 122H    basis set group =>   5
Atom 123H    basis set group =>   5
Atom 124H    basis set group =>   5
Atom 125H    basis set group =>   5
Atom 126H    basis set group =>   5
Atom 127H    basis set group =>   5
Atom 128H    basis set group =>   5
Atom 129H    basis set group =>   5
Atom 130H    basis set group =>   5
Atom 131H    basis set group =>   5
Atom 132H    basis set group =>   5
Atom 133H    basis set group =>   5
Atom 134H    basis set group =>   5
Atom 135H    basis set group =>   5
Atom 136H    basis set group =>   5
Atom 137H    basis set group =>   5
Atom 138H    basis set group =>   5
Atom 139H    basis set group =>   5
Atom 140H    basis set group =>   5
Atom 141H    basis set group =>   5
Atom 142H    basis set group =>   5
Atom 143H    basis set group =>   5
Atom 144H    basis set group =>   5
Atom 145H    basis set group =>   5


           ************************************************************
           *        Program running with 6 parallel MPI-processes     *
           *              working on a common directory               *
           ************************************************************
------------------------------------------------------------------------------
                           ORCA GTO INTEGRAL CALCULATION
                           -- RI-GTO INTEGRALS CHOSEN --
------------------------------------------------------------------------------

                         BASIS SET STATISTICS AND STARTUP INFO

Gaussian basis set:
 # of primitive gaussian shells          ... 2248
 # of primitive gaussian functions       ... 4884
 # of contracted shells                  ... 1264
 # of contracted basis functions         ... 3300
 Highest angular momentum                ...    3
 Maximum contraction depth               ...    7
Auxiliary gaussian basis set:
 # of primitive gaussian shells          ... 2716
 # of primitive gaussian functions       ... 7548
 # of contracted shells                  ... 1698
 # of contracted aux-basis functions     ... 5262
 Highest angular momentum                ...    4
 Maximum contraction depth               ...    7
Ratio of auxiliary to basis functions    ...  1.59
Integral package used                  ... LIBINT
 One Electron integrals                  ... done
 Ordering auxiliary basis shells         ... done
 Integral threshhold             Thresh  ...  2.500e-11
 Primitive cut-off               TCut    ...  2.500e-12
 Pre-screening matrix                    ... done
 Shell pair data                         ... 
 Ordering of the shell pairs             ... done (   0.048 sec) 212532 of 799480 pairs
 Determination of significant pairs      ... done (   0.001 sec)
 Creation of shell pair data             ... done (   0.021 sec)
 Storage of shell pair data              ... done (   0.188 sec)
 Shell pair data done in (   0.258 sec)
 Computing two index integrals           ... done
 Cholesky decomposition of the V-matrix  ... done


Timings:
 Total evaluation time                   ...  12.511 sec (  0.209 min)
 One electron matrix time                ...   4.511 sec (  0.075 min) = 36.1%
 Schwartz matrix evaluation time         ...   5.888 sec (  0.098 min) = 47.1%
 Two index repulsion integral time       ...   0.655 sec (  0.011 min) =  5.2%
 Cholesky decomposition of V             ...   1.180 sec (  0.020 min) =  9.4%
 Three index repulsion integral time     ...   0.000 sec (  0.000 min) =  0.0%



           ************************************************************
           *        Program running with 6 parallel MPI-processes     *
           *              working on a common directory               *
           ************************************************************
-------------------------------------------------------------------------------
                                 ORCA SCF
-------------------------------------------------------------------------------

------------
SCF SETTINGS
------------
Hamiltonian:
 Density Functional     Method          .... DFT(GTOs)
 Exchange Functional    Exchange        .... B88
   X-Alpha parameter    XAlpha          ....  0.666667
   Becke's b parameter  XBeta           ....  0.004200
 Correlation Functional Correlation     .... LYP
 LDA part of GGA corr.  LDAOpt          .... VWN-5
 Gradients option       PostSCFGGA      .... off
 Hybrid DFT is turned on
   Fraction HF Exchange ScalHFX         ....  0.200000
   Scaling of DF-GGA-X  ScalDFX         ....  0.720000
   Scaling of DF-GGA-C  ScalDFC         ....  0.810000
   Scaling of DF-LDA-C  ScalLDAC        ....  1.000000
   Perturbative correction              ....  0.000000
   Density functional embedding theory  .... OFF
   NL short-range parameter             ....  4.800000
 RI-approximation to the Coulomb term is turned on
   Number of auxiliary basis functions  .... 5262
   RIJ-COSX (HFX calculated with COS-X)).... on


General Settings:
 Integral files         IntName         .... BTA43
 Hartree-Fock type      HFTyp           .... RHF
 Total Charge           Charge          ....    0
 Multiplicity           Mult            ....    1
 Number of Electrons    NEL             ....  690
 Basis Dimension        Dim             .... 3300
 Nuclear Repulsion      ENuc            ....  16610.1039251436 Eh

Convergence Acceleration:
 DIIS                   CNVDIIS         .... on
   Start iteration      DIISMaxIt       ....    12
   Startup error        DIISStart       ....  0.200000
   # of expansion vecs  DIISMaxEq       ....     5
   Bias factor          DIISBfac        ....   1.050
   Max. coefficient     DIISMaxC        ....  10.000
 Newton-Raphson         CNVNR           .... off
 SOSCF                  CNVSOSCF        .... on
   Start iteration      SOSCFMaxIt      ....   150
   Startup grad/error   SOSCFStart      ....  0.003300
 Level Shifting         CNVShift        .... on
   Level shift para.    LevelShift      ....    0.2500
   Turn off err/grad.   ShiftErr        ....    0.0010
 Zerner damping         CNVZerner       .... off
 Static damping         CNVDamp         .... on
   Fraction old density DampFac         ....    0.7000
   Max. Damping (<1)    DampMax         ....    0.9800
   Min. Damping (>=0)   DampMin         ....    0.0000
   Turn off err/grad.   DampErr         ....    0.1000
 Fernandez-Rico         CNVRico         .... off

SCF Procedure:
 Maximum # iterations   MaxIter         ....   125
 SCF integral mode      SCFMode         .... Direct
   Integral package                     .... LIBINT
 Reset frequency        DirectResetFreq ....    20
 Integral Threshold     Thresh          ....  2.500e-11 Eh
 Primitive CutOff       TCut            ....  2.500e-12 Eh

Convergence Tolerance:
 Convergence Check Mode ConvCheckMode   .... Total+1el-Energy
 Convergence forced     ConvForced      .... 1
 Energy Change          TolE            ....  1.000e-08 Eh
 1-El. energy change                    ....  1.000e-05 Eh
 Orbital Gradient       TolG            ....  1.000e-05
 Orbital Rotation angle TolX            ....  1.000e-05
 DIIS Error             TolErr          ....  5.000e-07


Diagonalization of the overlap matrix:
Smallest eigenvalue                        ... 2.134e-06
Time for diagonalization                   ...    2.241 sec
Threshold for overlap eigenvalues          ... 1.000e-08
Number of eigenvalues below threshold      ... 0
Time for construction of square roots      ...    1.434 sec
Total time needed                          ...    3.698 sec

-------------------
DFT GRID GENERATION
-------------------

General Integration Accuracy     IntAcc      ...  4.670
Radial Grid Type                 RadialGrid  ... Gauss-Chebyshev
Angular Grid (max. acc.)         AngularGrid ... Lebedev-302
Angular grid pruning method      GridPruning ... 3 (G Style)
Weight generation scheme         WeightScheme... Becke
Basis function cutoff            BFCut       ...    1.0000e-11
Integration weight cutoff        WCut        ...    1.0000e-14
Grids for H and He will be reduced by one unit

# of grid points (after initial pruning)     ... 768588 (   0.1 sec)
# of grid points (after weights+screening)   ... 651505 (   8.5 sec)
nearest neighbour list constructed           ...    0.0 sec
Grid point re-assignment to atoms done       ...    0.1 sec
Grid point division into batches done        ...    2.2 sec
Reduced shell lists constructed in    5.9 sec

Total number of grid points                  ...   651505
Total number of batches                      ...    10258
Average number of points per batch           ...       63
Average number of grid points per atom       ...     4462
Average number of shells per batch           ...   269.69 (21.34%)
Average number of basis functions per batch  ...   667.17 (20.22%)
Average number of large shells per batch     ...   152.17 (56.42%)
Average number of large basis fcns per batch ...   390.35 (58.51%)
Maximum spatial batch extension              ...  18.68, 18.16, 19.64 au
Average spatial batch extension              ...   0.24,  0.25,  0.24 au

Time for grid setup =   14.696 sec

------------------------------
INITIAL GUESS: MODEL POTENTIAL
------------------------------
Loading Hartree-Fock densities                     ... done
Calculating cut-offs                               ... done
Setting up the integral package                    ... done
Initializing the effective Hamiltonian             ... done
Starting the Coulomb interaction                   ... done (   8.9 sec)
Reading the grid                                   ... done
Mapping shells                                     ... done
Starting the XC term evaluation                    ... done (   7.0 sec)
  promolecular density results
     # of electrons  =    689.976807959
     EX              =   -623.569150115
     EC              =    -24.189889316
     EX+EC           =   -647.759039431
Transforming the Hamiltonian                       ... done (   1.2 sec)
Diagonalizing the Hamiltonian                      ... done (   2.3 sec)
Back transforming the eigenvectors                 ... done (   0.6 sec)
Now organizing SCF variables                       ... done
                      ------------------
                      INITIAL GUESS DONE (  35.2 sec)
                      ------------------
--------------------
COSX GRID GENERATION
--------------------

General Integration Accuracy     IntAcc      ...  3.340
Radial Grid Type                 RadialGrid  ... Gauss-Chebyshev
Angular Grid (max. acc.)         AngularGrid ... Lebedev-50
Angular grid pruning method      GridPruning ... 3 (G Style)
Weight generation scheme         WeightScheme... Becke
Basis function cutoff            BFCut       ...    1.0000e-11
Integration weight cutoff        WCut        ...    1.0000e-14
Grids for H and He will be reduced by one unit

# of grid points (after initial pruning)     ...  72016 (   0.0 sec)
# of grid points (after weights+screening)   ...  63917 (   0.8 sec)
nearest neighbour list constructed           ...    0.0 sec
Grid point re-assignment to atoms done       ...    0.0 sec
Grid point division into batches done        ...    0.0 sec
Reduced shell lists constructed in    0.5 sec

Total number of grid points                  ...    63917
Total number of batches                      ...     1073
Average number of points per batch           ...       59
Average number of grid points per atom       ...      438
Average number of shells per batch           ...   319.28 (25.26%)
Average number of basis functions per batch  ...   795.58 (24.11%)
Average number of large shells per batch     ...   178.93 (56.04%)
Average number of large basis fcns per batch ...   462.90 (58.18%)
Maximum spatial batch extension              ...  13.12, 13.56, 15.42 au
Average spatial batch extension              ...   0.48,  0.52,  0.48 au

Overlap Fitting                  UseSFitting ... on
Constructing numerical overlap ... done (      0.6 sec)
Inverting numerical overlap    ... done (      0.5 sec)
Obtaining analytic overlap     ... done (      0.0 sec)
Final contraction and storage  ... done (      1.2 sec)


General Integration Accuracy     IntAcc      ...  3.670
Radial Grid Type                 RadialGrid  ... Gauss-Chebyshev
Angular Grid (max. acc.)         AngularGrid ... Lebedev-50
Angular grid pruning method      GridPruning ... 3 (G Style)
Weight generation scheme         WeightScheme... Becke
Basis function cutoff            BFCut       ...    1.0000e-11
Integration weight cutoff        WCut        ...    1.0000e-14
Grids for H and He will be reduced by one unit

# of grid points (after initial pruning)     ...  90376 (   0.0 sec)
# of grid points (after weights+screening)   ...  79864 (   1.0 sec)
nearest neighbour list constructed           ...    0.0 sec
Grid point re-assignment to atoms done       ...    0.0 sec
Grid point division into batches done        ...    0.0 sec
Reduced shell lists constructed in    0.6 sec

Total number of grid points                  ...    79864
Total number of batches                      ...     1311
Average number of points per batch           ...       60
Average number of grid points per atom       ...      547
Average number of shells per batch           ...   315.41 (24.95%)
Average number of basis functions per batch  ...   784.79 (23.78%)
Average number of large shells per batch     ...   176.45 (55.94%)
Average number of large basis fcns per batch ...   456.40 (58.16%)
Maximum spatial batch extension              ...  14.31, 15.63, 17.32 au
Average spatial batch extension              ...   0.48,  0.51,  0.47 au

Overlap Fitting                  UseSFitting ... on
Constructing numerical overlap ... done (      0.7 sec)
Inverting numerical overlap    ... done (      0.5 sec)
Obtaining analytic overlap     ... done (      0.0 sec)
Final contraction and storage  ... done (      1.2 sec)


General Integration Accuracy     IntAcc      ...  4.010
Radial Grid Type                 RadialGrid  ... Gauss-Chebyshev
Angular Grid (max. acc.)         AngularGrid ... Lebedev-110
Angular grid pruning method      GridPruning ... 3 (G Style)
Weight generation scheme         WeightScheme... Becke
Basis function cutoff            BFCut       ...    1.0000e-11
Integration weight cutoff        WCut        ...    1.0000e-14
Grids for H and He will be reduced by one unit

# of grid points (after initial pruning)     ... 174708 (   0.0 sec)
# of grid points (after weights+screening)   ... 152851 (   2.0 sec)
nearest neighbour list constructed           ...    0.0 sec
Grid point re-assignment to atoms done       ...    0.0 sec
Grid point division into batches done        ...    0.1 sec
Reduced shell lists constructed in    1.1 sec

Total number of grid points                  ...   152851
Total number of batches                      ...     2465
Average number of points per batch           ...       62
Average number of grid points per atom       ...     1047
Average number of shells per batch           ...   299.02 (23.66%)
Average number of basis functions per batch  ...   742.91 (22.51%)
Average number of large shells per batch     ...   169.32 (56.62%)
Average number of large basis fcns per batch ...   436.26 (58.72%)
Maximum spatial batch extension              ...  13.42, 13.71, 19.74 au
Average spatial batch extension              ...   0.38,  0.42,  0.39 au

Overlap Fitting                  UseSFitting ... on
Constructing numerical overlap ... done (      1.1 sec)
Inverting numerical overlap    ... done (      0.5 sec)
Obtaining analytic overlap     ... done (      0.0 sec)
Final contraction and storage  ... done (      1.2 sec)

Time for X-Grid setup             =   14.027 sec
--------------
SCF ITERATIONS
--------------
ITER       Energy         Delta-E        Max-DP      RMS-DP      [F,P]     Damp
               ***  Starting incremental Fock matrix formation  ***
  0  -5547.6338259322   0.000000000000 0.26859428  0.00064763  0.3144239 0.7000
  1  -5548.7278645107  -1.094038578476 0.17679686  0.00056293  0.1025592 0.7000
                               ***Turning on DIIS***
  2  -5549.1187020141  -0.390837503372 0.24959979  0.00096878  0.0467454 0.0000
  3  -5549.7826880585  -0.663986044459 0.16065009  0.00048342  0.0473056 0.0000
  4  -5549.9149337459  -0.132245687402 0.05288929  0.00017018  0.0409938 0.0000
  5  -5549.9327094541  -0.017775708202 0.01892998  0.00007151  0.0101347 0.0000
                      *** Initiating the SOSCF procedure ***
                           *** Shutting down DIIS ***
                      *** Re-Reading the Fockian *** 
                      *** Removing any level shift *** 
ITER      Energy       Delta-E        Grad      Rot      Max-DP    RMS-DP
  6  -5549.93383438  -0.0011249228  0.000895  0.000895  0.012765  0.000026
               *** Restarting incremental Fock matrix formation ***
  7  -5549.93397399  -0.0001396174  0.000452  0.005572  0.011771  0.000056
  8  -5549.93395985   0.0000141465  0.000451  0.002929  0.008190  0.000018
  9  -5549.93400899  -0.0000491391  0.000218  0.002655  0.006455  0.000019
 10  -5549.93400564   0.0000033479  0.000204  0.000764  0.000872  0.000002
 11  -5549.93401308  -0.0000074360  0.000056  0.000633  0.001294  0.000006
 12  -5549.93401196   0.0000011193  0.000068  0.000298  0.000789  0.000002
 13  -5549.93401364  -0.0000016831  0.000016  0.000075  0.000528  0.000002
[...]
   Time for densities:    16.000
   Time for K (COSX):   536.497
   Time for XC-Integration:     6.559
   Time for Sigma-Completion:    43.536
   Size of expansion space: 9
   Lowest Energy          :     0.048746931132
   Maximum Energy change  :     0.000018275413 (vector 2)
   Maximum residual norm  :     0.000010060273

                       ****Iteration    9****
   Time for densities:    16.169
   Time for K (COSX):   548.567
   Time for XC-Integration:     6.697
   Time for Sigma-Completion:    43.268
   Size of expansion space: 12
   Lowest Energy          :     0.048746931131
   Maximum Energy change  :     0.000039592024 (vector 2)
   Maximum residual norm  :     0.000001394753

                       ****Iteration   10****
   Time for densities:    16.394
   Time for K (COSX):   557.821
   Time for XC-Integration:     6.909
   Time for Sigma-Completion:    43.602
   Size of expansion space: 15
   Lowest Energy          :     0.048746931131
   Maximum Energy change  :     0.000009394915 (vector 2)
   Maximum residual norm  :     0.000001180473
   Rebuilding the expansion space

                       ****Iteration   11****
   Time for densities:    27.769
   Time for K (COSX):   562.296
   Time for XC-Integration:     9.875
   Time for Sigma-Completion:    72.764
   Size of expansion space: 5
   Lowest Energy          :     0.048746931173
   Maximum Energy change  :     0.000004792855 (vector 2)
   Maximum residual norm  :     0.000000567093

                       ****Iteration   12****
   Time for densities:    16.055
   Time for K (COSX):   566.534
   Time for XC-Integration:     7.204
   Time for Sigma-Completion:    43.633
   Size of expansion space: 8
   Lowest Energy          :     0.048746931172
   Maximum Energy change  :     0.000004417137 (vector 2)
   Maximum residual norm  :     0.000000479841

                       ****Iteration   13****
   Time for densities:    10.957
   Time for K (COSX):   546.112
   Time for XC-Integration:     4.800
   Time for Sigma-Completion:    29.132
   Size of expansion space: 10
   Lowest Energy          :     0.048746931172
   Maximum Energy change  :     0.000002341999 (vector 2)
   Maximum residual norm  :     0.000000129948

      *** CONVERGENCE OF RESIDUAL NORM REACHED ***

Storing the converged CI vectors               ... BTA43.cis3

                 *** DAVIDSON DONE ***

------------------------------------
TD-DFT/TDA EXCITED STATES (TRIPLETS)
------------------------------------

the weight of the individual excitations are printed if larger than 1.0e-02

STATE  1:  E=   0.048747 au      1.326 eV    10698.7 cm**-1
   343a -> 346a  :     0.078820 (c=  0.28074837)
   344a -> 345a  :     0.825199 (c=  0.90840441)
   344a -> 346a  :     0.023942 (c=  0.15473295)
   344a -> 347a  :     0.023663 (c=  0.15382795)

STATE  2:  E=   0.055391 au      1.507 eV    12156.9 cm**-1
   338a -> 346a  :     0.014155 (c= -0.11897536)
   339a -> 345a  :     0.012304 (c= -0.11092557)
   343a -> 345a  :     0.233850 (c=  0.48358084)
   344a -> 345a  :     0.021086 (c= -0.14521136)
   344a -> 346a  :     0.657959 (c=  0.81114659)
   344a -> 348a  :     0.012619 (c=  0.11233453)

STATE  3:  E=   0.075374 au      2.051 eV    16542.7 cm**-1
   337a -> 346a  :     0.015861 (c=  0.12594187)
   338a -> 345a  :     0.187218 (c=  0.43268745)
   339a -> 345a  :     0.013560 (c= -0.11644937)
   339a -> 346a  :     0.036063 (c=  0.18990169)
   340a -> 345a  :     0.037220 (c=  0.19292560)
   341a -> 345a  :     0.020414 (c= -0.14287705)
   342a -> 345a  :     0.010996 (c=  0.10486227)
   343a -> 345a  :     0.027595 (c=  0.16611824)
   343a -> 346a  :     0.357998 (c= -0.59832975)
   344a -> 345a  :     0.041647 (c=  0.20407517)
   344a -> 346a  :     0.024337 (c= -0.15600440)
   344a -> 347a  :     0.121542 (c=  0.34862888)
   344a -> 349a  :     0.036162 (c=  0.19016405)

------------------------------
TD-DFT/TDA SPIN-ORBIT COUPLING
------------------------------

Calculating the spin-orbit integrals:             

Loading the effective charges         ... done
Entering the SOC calc. section        ... 
------------------------------------------------------------------------------
                         ORCA SPIN-ORBIT COUPLING CALCULATION
------------------------------------------------------------------------------

GBW file                                    ... BTA43.gbw
Input density                               ... BTA43.cisp0
Output integrals                            ... BTA43.cis
Operator type                               ... Mean-field/Effective potential
   One-Electron Terms                       ... 1
   Coulomb Contribution                     ... 2
   Exchange Contribution                    ... 3
   Correlation Contribution                 ... 0
   Maximum number of centers                ... 4
Setting up the integration grid             ... done
Evaluating density on the grid              ... (NumEl=  690.000561) done
Evaluating Coulomb term semi-analytically   ... done
One-Center Exchange (+SOO)                  ... done
Evaluating the spin-orbit operator          ... done
Transforming the SOC integrals              ... done
Constructing the SOC matrix:                ... done
Diagonalizing the SOC matrix:               ... done

      --------------------------------------------------------------------------------
                      CALCULATED SOCME BETWEEN TRIPLETS AND SINGLETS                  
      --------------------------------------------------------------------------------
           Root                          <T|HSO|S>  (Re, Im) cm-1                     
         T      S             Z                     X                     Y           
      --------------------------------------------------------------------------------
         1      0    (   0.00 ,   -0.08 )    (   0.00 ,   -0.35 )    (  -0.00 ,   -1.03 )
         1      1    (   0.00 ,   -0.01 )    (   0.00 ,    0.17 )    (  -0.00 ,   -0.19 )
         1      2    (   0.00 ,    0.51 )    (   0.00 ,    0.65 )    (  -0.00 ,    0.17 )
         1      3    (   0.00 ,   -0.07 )    (   0.00 ,   -0.31 )    (  -0.00 ,   -0.11 )
         2      0    (   0.00 ,   -1.15 )    (   0.00 ,   -0.13 )    (  -0.00 ,   -0.98 )
         2      1    (   0.00 ,   -0.00 )    (   0.00 ,    0.20 )    (  -0.00 ,    0.03 )
         2      2    (   0.00 ,   -0.04 )    (   0.00 ,   -0.20 )    (  -0.00 ,    0.18 )
         2      3    (   0.00 ,    0.06 )    (   0.00 ,   -0.29 )    (  -0.00 ,   -0.04 )
         3      0    (   0.00 ,    2.47 )    (   0.00 ,    1.32 )    (  -0.00 ,    0.18 )
         3      1    (   0.00 ,    0.18 )    (   0.00 ,    0.20 )    (  -0.00 ,   -0.18 )
         3      2    (   0.00 ,    0.27 )    (   0.00 ,    0.34 )    (  -0.00 ,    0.00 )
         3      3    (   0.00 ,   -0.00 )    (   0.00 ,   -0.72 )    (  -0.00 ,    0.19 )

SOC stabilization of the ground state:  -0.0008 cm-1
Eigenvalues of the SOC matrix:

   State:        cm-1         eV
     0:          0.00         0.0000
     1:      10698.72         1.3265
     2:      10698.72         1.3265
     3:      10698.72         1.3265
     4:      12156.87         1.5073
     5:      12156.87         1.5073
     6:      12156.87         1.5073
     7:      14656.79         1.8172
     8:      16542.67         2.0510
     9:      16542.67         2.0510
    10:      16542.67         2.0510
    11:      16658.52         2.0654
    12:      19663.77         2.4380

The threshold for printing is 0.0100
Eigenvectors of the SOC matrix:

             E(cm-1)  Weight      Real         Imag     : Root  Spin  Ms
 STATE  0:      0.00
                      1.00000      0.13222      0.99122 : 0     0     0
 STATE  1:  10698.72
                      0.97560      0.98166      0.10927 : 1     1     0
                      0.01220     -0.11020      0.00741 : 1     1    -1
                      0.01220      0.10587      0.03146 : 1     1     1
 STATE  2:  10698.72
                      0.01555      0.10202     -0.07173 : 1     1     0
                      0.49222      0.69485     -0.09700 : 1     1    -1
                      0.49222     -0.32637      0.62105 : 1     1     1
 STATE  3:  10698.72
                      0.49558      0.67974     -0.18311 : 1     1    -1
                      0.49558      0.26318     -0.65293 : 1     1     1
 STATE  4:  12156.87
                      0.49835      0.12753     -0.69432 : 2     1    -1
                      0.49835     -0.02106      0.70562 : 2     1     1
 STATE  5:  12156.87
                      0.40574      0.40502      0.49163 : 2     1     0
                      0.29713     -0.46020      0.29214 : 2     1    -1
                      0.29713     -0.37482      0.39578 : 2     1     1
 STATE  6:  12156.87
                      0.59096     -0.21059      0.73933 : 2     1     0
                      0.20452      0.43411      0.12678 : 2     1    -1
                      0.20452      0.43575      0.12099 : 2     1     1
 STATE  7:  14656.79
                      1.00000      0.66227     -0.74926 : 1     0     0
 STATE  8:  16542.67
                      0.21778      0.46665      0.00365 : 3     1     0
                      0.39110      0.62531      0.00977 : 3     1    -1
                      0.39110     -0.62538      0.00000 : 3     1     1
 STATE  9:  16542.67
                      0.02067      0.00990      0.14344 : 3     1     0
                      0.48966      0.69312     -0.09616 : 3     1    -1
                      0.48966      0.69976      0.00000 : 3     1     1
 STATE 10:  16542.67
                      0.76154      0.82513     -0.28408 : 3     1     0
                      0.11923     -0.27211      0.21256 : 3     1    -1
                      0.11923      0.34529      0.00000 : 3     1     1
 STATE 11:  16658.52
                      0.99999     -0.00355     -0.99999 : 2     0     0
 STATE 12:  19663.77
                      1.00000     -0.25403      0.96720 : 3     0     0

-----------------------------
TD-DFT/TDA-EXCITATION SPECTRA
-----------------------------

Center of mass = (  0.8752, -6.2359,  2.0578)
Calculating the Dipole integrals                  ... done
Transforming integrals                            ... done
Calculating the Linear Momentum integrals         ... done
Transforming integrals                            ... done
Calculating angular momentum integrals            ... done
Transforming integrals                            ... done

-----------------------------------------------------------------------------
         ABSORPTION SPECTRUM VIA TRANSITION ELECTRIC DIPOLE MOMENTS
-----------------------------------------------------------------------------
State   Energy    Wavelength  fosc         T2        TX        TY        TZ  
        (cm-1)      (nm)                 (au**2)    (au)      (au)      (au) 
-----------------------------------------------------------------------------
   1   14656.8    682.3   2.090871771  46.96390  -5.54294   0.93161  -3.92070
   2   16658.5    600.3   0.166470029   3.28984  -0.22253  -1.27650   1.26921
   3   19663.8    508.5   0.016770360   0.28077   0.45991  -0.06275   0.25557
   4   10698.7    934.7   spin forbidden (mult=3)
   5   12156.9    822.6   spin forbidden (mult=3)
   6   16542.7    604.5   spin forbidden (mult=3)

-----------------------------------------------------------------------------
         ABSORPTION SPECTRUM VIA TRANSITION VELOCITY DIPOLE MOMENTS
-----------------------------------------------------------------------------
State   Energy    Wavelength   fosc        P2         PX        PY        PZ  
        (cm-1)      (nm)                 (au**2)     (au)      (au)      (au) 
-----------------------------------------------------------------------------
   1   14656.8    682.3   0.466595534   0.04674   0.17621  -0.02712   0.12229
   2   16658.5    600.3   0.022412407   0.00255   0.00165   0.03666  -0.03471
   3   19663.8    508.5   0.012399562   0.00167  -0.03005   0.00212  -0.02755
   4   10698.7    934.7   spin forbidden (mult=3)
   5   12156.9    822.6   spin forbidden (mult=3)
   6   16542.7    604.5   spin forbidden (mult=3)

-------------------------------------------------------------------
                             CD SPECTRUM
-------------------------------------------------------------------
State  Energy     Wavelength     R         MX        MY        MZ   
       (cm-1)       (nm)     (1e40*cgs)   (au)      (au)      (au)  
-------------------------------------------------------------------
   1   14656.8    682.3    -995.23705  -0.20298   0.92952   1.04626
   2   16658.5    600.3    331.36621  -0.19742  -0.45221   0.06436
   3   19663.8    508.5     -3.02204   0.04894  -0.09940  -0.13756
   4   10698.7    934.7 spin forbidden
   5   12156.9    822.6 spin forbidden
   6   16542.7    604.5 spin forbidden

-------------------------------------------
SOC CORRECTED TD-DFT/TDA-EXCITATION SPECTRA
--------------------------------------------

-----------------------------------------------------------------------------
  SOC CORRECTED ABSORPTION SPECTRUM VIA TRANSITION ELECTRIC DIPOLE MOMENTS*  
-----------------------------------------------------------------------------
State   Energy  Wavelength   fosc         T2         TX        TY        TZ  
        (cm-1)    (nm)                  (au**2)     (au)      (au)      (au) 
-----------------------------------------------------------------------------
   1   10698.7    934.7   0.000000018   0.00000   0.00069   0.00000   0.00027
   2   10698.7    934.7   0.000000008   0.00000   0.00047   0.00009   0.00013
   3   10698.7    934.7   0.000000010   0.00000   0.00046   0.00011   0.00028
   4   12156.9    822.6   0.000000008   0.00000   0.00029   0.00017   0.00033
   5   12156.9    822.6   0.000000020   0.00000   0.00066   0.00004   0.00034
   6   12156.9    822.6   0.000000005   0.00000   0.00034   0.00016   0.00000
   7   14656.8    682.3   2.090871750  46.96390   5.54294   0.93161   3.92070
   8   16542.7    604.5   0.000002416   0.00005   0.00069   0.00478   0.00497
   9   16542.7    604.5   0.000000022   0.00000   0.00062   0.00010   0.00021
  10   16542.7    604.5   0.000000077   0.00000   0.00037   0.00085   0.00082
  11   16658.5    600.3   0.166467576   3.28980   0.22253   1.27649   1.26920
  12   19663.8    508.5   0.016770359   0.28077   0.45991   0.06275   0.25557

-----------------------------------------------------------------------------
  SOC CORRECTED ABSORPTION SPECTRUM VIA TRANSITION VELOCITY DIPOLE MOMENTS*  
-----------------------------------------------------------------------------
State   Energy  Wavelength   fosc         P2         PX        PY        PZ  
        (cm-1)    (nm)                  (au**2)     (au)      (au)      (au) 
-----------------------------------------------------------------------------
   1   10698.7    934.7   0.000000003   0.00000   0.00001   0.00000   0.00001
   2   10698.7    934.7   0.000000001   0.00000   0.00001   0.00000   0.00000
   3   10698.7    934.7   0.000000002   0.00000   0.00001   0.00000   0.00001
   4   12156.9    822.6   0.000000007   0.00000   0.00002   0.00000   0.00001
   5   12156.9    822.6   0.000000000   0.00000   0.00000   0.00000   0.00000
   6   12156.9    822.6   0.000000001   0.00000   0.00001   0.00000   0.00000
   7   14656.8    682.3   0.466595466   0.04674   0.17621   0.02712   0.12229
   8   16542.7    604.5   0.000000347   0.00000   0.00001   0.00014   0.00014
   9   16542.7    604.5   0.000000002   0.00000   0.00001   0.00000   0.00000
  10   16542.7    604.5   0.000000014   0.00000   0.00001   0.00003   0.00003
  11   16658.5    600.3   0.022412051   0.00255   0.00165   0.03666   0.03471
  12   19663.8    508.5   0.012399562   0.00167   0.03005   0.00212   0.02755

-------------------------------------------------------------------
                    SOC CORRECTED CD SPECTRUM*                     
-------------------------------------------------------------------
State   Energy Wavelength       R         MX        MY        MZ   
        (cm-1)   (nm)       (1e40*sgs)   (au)      (au)      (au)  
-------------------------------------------------------------------
   1   10698.7    934.7      0.00000   0.00000   0.00005   0.00004
   2   10698.7    934.7      0.00000   0.00003   0.00001   0.00006
   3   10698.7    934.7      0.00000   0.00001   0.00007   0.00003
   4   12156.9    822.6      0.00001   0.00001   0.00011   0.00010
   5   12156.9    822.6      0.00000   0.00001   0.00000   0.00001
   6   12156.9    822.6      0.00000   0.00001   0.00001   0.00004
   7   14656.8    682.3    995.23696   0.20298   0.92952   1.04626
   8   16542.7    604.5      0.00455   0.00072   0.00179   0.00013
   9   16542.7    604.5      0.00000   0.00004   0.00001   0.00009
  10   16542.7    604.5      0.00016   0.00012   0.00035   0.00001
  11   16658.5    600.3    331.36145   0.19742   0.45221   0.06436
  12   19663.8    508.5      3.02204   0.04894   0.09940   0.13756

*The X,Y and Z components are the absolute values of the complex numbers

Total run time:    16722.117 sec

           *** ORCA-CIS/TD-DFT FINISHED WITHOUT ERROR ***

---------------------------
SOC CIS/TD-DFT TOTAL ENERGY
---------------------------

    E(SCF)        =  -5549.934826813 Eh
    E(SOC CIS)    =      0.048746930 Eh (SOC Root  1)
    ----------------------------- ---------
    E(tot)        =  -5549.886079882 Eh


-------------------------   --------------------
FINAL SINGLE POINT ENERGY     -5549.886079882351
-------------------------   --------------------


                            ***************************************
                            *     ORCA property calculations      *
                            ***************************************

                                    ---------------------
                                    Active property flags
                                    ---------------------
   (+) Dipole Moment


------------------------------------------------------------------------------
                       ORCA ELECTRIC PROPERTIES CALCULATION
------------------------------------------------------------------------------

Dipole Moment Calculation                       ... on
Quadrupole Moment Calculation                   ... off
Polarizability Calculation                      ... off
GBWName                                         ... BTA43.gbw
Electron density file                           ... BTA43.scfp
The origin for moment calculation is the CENTER OF MASS  = ( 0.875192, -6.235860  2.057773)

-------------
DIPOLE MOMENT
-------------
                                X             Y             Z
Electronic contribution:    -25.27527     -35.11884      21.92903
Nuclear contribution   :     28.22967      39.36495     -24.80078
                        -----------------------------------------
Total Dipole Moment    :      2.95441       4.24611      -2.87176
                        -----------------------------------------
Magnitude (a.u.)       :      5.91650
Magnitude (Debye)      :     15.03855



--------------------
Rotational spectrum 
--------------------
 
Rotational constants in cm-1:     0.000566     0.000203     0.000193 
Rotational constants in MHz :    16.977999     6.095941     5.785925 

 Dipole components along the rotational axes: 
x,y,z [a.u.] :     0.228440    -5.857227    -0.803541 
x,y,z [Debye]:     0.580648   -14.887887    -2.042438 

 

Timings for individual modules:

Sum of individual times         ...    21348.073 sec (= 355.801 min)
GTO integral calculation        ...       13.295 sec (=   0.222 min)   0.1 %
SCF iterations                  ...     4611.196 sec (=  76.853 min)  21.6 %
CIS module                      ...    16723.582 sec (= 278.726 min)  78.3 %
                             ****ORCA TERMINATED NORMALLY****
TOTAL RUN TIME: 0 days 5 hours 55 minutes 50 seconds 949 msec
