
                                 *****************
                                 * O   R   C   A *
                                 *****************

           --- An Ab Initio, DFT and Semiempirical electronic structure package ---

                  #######################################################
                  #                        -***-                        #
                  #          Department of theory and spectroscopy      #
                  #               Directorship: Frank Neese             #
                  #        Max Planck Institute fuer Kohlenforschung    #
                  #                Kaiser Wilhelm Platz 1               #
                  #                 D-45470 Muelheim/Ruhr               #
                  #                      Germany                        #
                  #                                                     #
                  #                  All rights reserved                #
                  #                        -***-                        #
                  #######################################################


                         Program Version 4.2.0 -  RELEASE  -


 With contributions from (in alphabetic order):
   Daniel Aravena         : Magnetic Suceptibility
   Michael Atanasov       : Ab Initio Ligand Field Theory (pilot matlab implementation)
   Alexander A. Auer      : GIAO ZORA, VPT2
   Ute Becker             : Parallelization
   Giovanni Bistoni       : ED, misc. LED, open-shell LED, HFLED
   Martin Brehm           : Molecular dynamics
   Dmytro Bykov           : SCF Hessian
   Vijay G. Chilkuri      : MRCI spin determinant printing, contributions to CSF-ICE
   Dipayan Datta          : RHF DLPNO-CCSD density
   Achintya Kumar Dutta   : EOM-CC, STEOM-CC
   Dmitry Ganyushin       : Spin-Orbit,Spin-Spin,Magnetic field MRCI
   Miquel Garcia          : C-PCM Hessian, Gaussian charge scheme
   Yang Guo               : DLPNO-NEVPT2, CIM, IAO-localization
   Andreas Hansen         : Spin unrestricted coupled pair/coupled cluster methods
   Benjamin Helmich-Paris : CASSCF linear response (MC-RPA)
   Lee Huntington         : MR-EOM, pCC
   Robert Izsak           : Overlap fitted RIJCOSX, COSX-SCS-MP3, EOM
   Christian Kollmar      : KDIIS, OOCD, Brueckner-CCSD(T), CCSD density
   Simone Kossmann        : Meta GGA functionals, TD-DFT gradient, OOMP2, MP2 Hessian
   Martin Krupicka        : AUTO-CI
   Lucas Lang             : DCDCAS
   Dagmar Lenk            : GEPOL surface, SMD
   Dimitrios Liakos       : Extrapolation schemes; Compound Job, initial MDCI parallelization
   Dimitrios Manganas     : Further ROCIS development; embedding schemes
   Dimitrios Pantazis     : SARC Basis sets
   Taras Petrenko         : DFT Hessian,TD-DFT gradient, ASA, ECA, R-Raman, ABS, FL, XAS/XES, NRVS
   Peter Pinski           : DLPNO-MP2, DLPNO-MP2 Gradient
   Christoph Reimann      : Effective Core Potentials
   Marius Retegan         : Local ZFS, SOC
   Christoph Riplinger    : Optimizer, TS searches, QM/MM, DLPNO-CCSD(T), (RO)-DLPNO pert. Triples
   Tobias Risthaus        : Range-separated hybrids, TD-DFT gradient, RPA, STAB
   Michael Roemelt        : Original ROCIS implementation
   Masaaki Saitow         : Open-shell DLPNO-CCSD energy and density
   Barbara Sandhoefer     : DKH picture change effects
   Avijit Sen             : IP-ROCIS
   Kantharuban Sivalingam : CASSCF convergence, NEVPT2, FIC-MRCI
   Bernardo de Souza      : ESD, SOC TD-DFT
   Georgi Stoychev        : AutoAux, RI-MP2 NMR
   Willem Van den Heuvel  : Paramagnetic NMR
   Boris Wezisla          : Elementary symmetry handling
   Frank Wennmohs         : Technical directorship


 We gratefully acknowledge several colleagues who have allowed us to
 interface, adapt or use parts of their codes:
   Stefan Grimme, W. Hujo, H. Kruse,             : VdW corrections, initial TS optimization,
                  C. Bannwarth                     DFT functionals, gCP, sTDA/sTD-DF
   Ed Valeev, F. Pavosevic, A. Kumar             : LibInt (2-el integral package), F12 methods
   Garnet Chan, S. Sharma, J. Yang, R. Olivares  : DMRG
   Ulf Ekstrom                                   : XCFun DFT Library
   Mihaly Kallay                                 : mrcc  (arbitrary order and MRCC methods)
   Andreas Klamt, Michael Diedenhofen            : otool_cosmo (COSMO solvation model)
   Jiri Pittner, Ondrej Demel                    : Mk-CCSD
   Frank Weinhold                                : gennbo (NPA and NBO analysis)
   Christopher J. Cramer and Donald G. Truhlar   : smd solvation model
   Lars Goerigk                                  : TD-DFT with DH, B97 family of functionals
   V. Asgeirsson, H. Jonsson                     : NEB implementation
   FAccTs GmbH                                   : IRC, NEB, NEB-TS, Multilevel, MM, QM/MM, CI optimization
   S Lehtola, MJT Oliveira, MAL Marques          : LibXC Library


 Your calculation uses the libint2 library for the computation of 2-el integrals
 For citations please refer to: http://libint.valeyev.net

 Your ORCA version has been built with support for libXC version: 4.2.3
 For citations please refer to: https://tddft.org/programs/libxc/

 This ORCA versions uses:
   CBLAS   interface :  Fast vector & matrix operations
   LAPACKE interface :  Fast linear algebra routines
   SCALAPACK package :  Parallel linear algebra routines


----- Orbital basis set information -----
Your calculation utilizes the basis: def2-TZVP
   F. Weigend and R. Ahlrichs, Phys. Chem. Chem. Phys. 7, 3297 (2005).

----- AuxJ basis set information -----
Your calculation utilizes the auxiliary basis: def2/J
   F. Weigend, Phys. Chem. Chem. Phys. 8, 1057 (2006).

================================================================================
                                        WARNINGS
                       Please study these warnings very carefully!
================================================================================

INFO   : Checking CIS options ...

WARNING: (CIS/TDDFT): Spin-orbit needs TRIPLETS set to TRUE
  ===> : ajusting flags

WARNING: CIS/ROCIS methods need fully converged wavefunctions
  ===> : Setting SCFConvForced true
         You can overwrite this default with %scf ConvForced false 


INFO   : the flag for use of LIBINT has been found!

================================================================================
                                       INPUT FILE
================================================================================
NAME = BTCIC-4Cl.inp
|  1> # ORCA input file
|  2> # BTCIC-4Cl.out
|  3> ! B3LYP def2-TZVP def2/J RIJCOSX Grid4 TightSCF
|  4> 
|  5> %maxcore 2000
|  6> %tddft
|  7>   maxdim 5
|  8>   nroots 3
|  9>   dosoc true
| 10>   end
| 11> 
| 12> 
| 13> 
| 14> * xyz 0 1
| 15>    S       -0.10483        -0.00560         2.81861
| 16>    N       -1.02735        -1.04763         2.01536
| 17>    C       -1.20572        -0.60748         0.77095
| 18>    C       -0.52644         0.64254         0.54531
| 19>    N        0.11733         1.05795         1.63482
| 20>    C       -1.97456        -1.21724        -0.25806
| 21>    C       -1.99874        -0.55196        -1.47753
| 22>    C       -1.31080         0.63255        -1.70672
| 23>    C       -0.56601         1.27651        -0.72653
| 24>    C        0.13359         2.49893        -0.97669
| 25>    C       -2.68944        -2.43630        -0.03722
| 26>    C       -2.56554        -3.30339         1.03566
| 27>    C       -3.41843        -4.39472         0.94209
| 28>    C       -4.23041        -4.34097        -0.19547
| 29>    S       -3.90019        -2.97759        -1.18364
| 30>    C       -3.73319        -5.61944         1.76635
| 31>    C       -4.91352        -6.16850         0.99880
| 32>    C       -5.14282        -5.41392        -0.16533
| 33>    C       -5.76686        -7.24343         1.12108
| 34>    C       -6.68822        -7.32006         0.07476
| 35>    S       -6.43207        -6.02126        -1.10258
| 36>    C        0.69167         3.35789        -0.04445
| 37>    C        1.30340         4.45790        -0.63030
| 38>    C        1.24519         4.41834        -2.02736
| 39>    S        0.38321         3.05805        -2.61898
| 40>    C        2.04781         5.68512        -0.16170
| 41>    C        2.50023         6.25226        -1.48709
| 42>    C        1.97556         5.50168        -2.55379
| 43>    C        3.24426         7.33441        -1.90413
| 44>    C        3.33754         7.41865        -3.29467
| 45>    S        2.41996         6.12199        -4.07933
| 46>    C       -7.73197        -8.20735        -0.21320
| 47>    C       -8.25463        -9.27108         0.48586
| 48>    C       -9.33954       -10.09595        -0.01663
| 49>    C       -9.71548       -11.03131         1.04249
| 50>    C       -8.86733       -10.82770         2.14193
| 51>    C       -7.91084        -9.74045         1.84187
| 52>    C      -10.69859       -12.00503         1.10844
| 53>    C      -10.81406       -12.75861         2.27175
| 54>    C       -9.96130       -12.54957         3.36040
| 55>    C       -8.97572       -11.57286         3.29777
| 56>    C       -9.90964       -10.06653        -1.26395
| 57>    O       -7.04533        -9.34619         2.59826
| 58>    C      -10.96207       -10.91448        -1.67110
| 59>    C       -9.54506        -9.22827        -2.33923
| 60>    N      -11.81925       -11.56382        -2.07287
| 61>    N       -9.31770        -8.60543        -3.27769
| 62>   Cl      -12.03217       -13.96661         2.36179
| 63>   Cl      -10.13067       -13.50114         4.78021
| 64>    C       -4.02597        -5.27330         3.23209
| 65>    C       -2.60560        -6.67549         1.63185
| 66>    C       -5.07547        -4.16603         3.42865
| 67>    C       -1.21784        -6.25557         2.14923
| 68>    C       -6.51648        -4.70388         3.34049
| 69>    C       -7.38282        -3.92206         2.35959
| 70>    C       -4.81737        -3.46397         4.76980
| 71>    C       -5.67408        -2.22022         4.97248
| 72>    C       -0.97512        -6.72061         3.59820
| 73>    C       -0.31625        -5.65625         4.47075
| 74>    C       -0.15119        -6.80447         1.18857
| 75>    C        1.26798        -6.35401         1.51216
| 76>    C        3.18816         5.34261         0.80594
| 77>    C        4.15394         4.25986         0.29449
| 78>    C        5.23870         4.83733        -0.63473
| 79>    C        5.35229         4.08456        -1.95548
| 80>    C        4.77170         3.53199         1.49732
| 81>    C        5.59752         2.31285         1.10536
| 82>    C        1.06521         6.72131         0.44164
| 83>    C        0.33357         6.28931         1.72575
| 84>    C        1.04221         6.80656         2.99265
| 85>    C        1.11619         5.77120         4.11105
| 86>    C       -1.12232         6.77474         1.64607
| 87>    C       -1.99751         6.31315         2.80483
| 88>    C        4.00216         8.30165        -4.15386
| 89>    C        4.85282         9.35569        -3.91182
| 90>    C        5.44678        10.15543        -4.96923
| 91>    C        6.39884        11.07633        -4.34994
| 92>    C        6.35633        10.89584        -2.95885
| 93>    C        5.38285         9.83526        -2.62099
| 94>    C        7.25803        12.01869        -4.89098
| 95>    C        8.05593        12.76559        -4.03073
| 96>    C        8.00082        12.58201        -2.64534
| 97>    C        7.14234        11.63598        -2.10018
| 98>    O        5.11706         9.46862        -1.49331
| 99>    C        5.16702        10.11563        -6.31150
|100>    C        5.79632        10.93503        -7.27326
|101>    C        4.21467         9.29371        -6.95130
|102>    N        3.45926         8.68266        -7.56468
|103>    N        6.26642        11.56294        -8.11147
|104>   Cl        8.99753        13.52548        -1.61269
|105>   Cl        9.12700        13.93324        -4.69455
|106>    H       -2.57158        -0.98165        -2.28630
|107>    H       -1.36564         1.08046        -2.68817
|108>    H       -1.88562        -3.09620         1.84056
|109>    H       -5.76439        -7.95749         1.92384
|110>    H        0.64816         3.14027         1.00614
|111>    H        3.72647         8.04861        -1.26246
|112>    H       -8.21302        -7.99368        -1.16024
|113>    H      -11.37634       -12.19614         0.29317
|114>    H       -8.31056       -11.39901         4.12874
|115>    H       -3.08750        -4.93987         3.67351
|116>    H       -4.34342        -6.17648         3.75568
|117>    H       -2.52893        -6.91550         0.56814
|118>    H       -2.93272        -7.58366         2.14066
|119>    H       -4.93257        -3.42007         2.63956
|120>    H       -1.14853        -5.16603         2.11869
|121>    H       -6.97933        -4.67205         4.32846
|122>    H       -6.50520        -5.74966         3.03270
|123>    H       -7.45151        -2.87596         2.64753
|124>    H       -8.38858        -4.33593         2.32903
|125>    H       -6.96511        -3.97074         1.35584
|126>    H       -3.76692        -3.16504         4.81425
|127>    H       -4.99507        -4.16921         5.58501
|128>    H       -5.50747        -1.51062         4.16446
|129>    H       -5.41537        -1.73579         5.91154
|130>    H       -6.73139        -2.46826         5.00118
|131>    H       -0.35107        -7.61630         3.59015
|132>    H       -1.92253        -7.00005         4.06081
|133>    H        0.64398        -5.35064         4.06554
|134>    H       -0.15606        -6.04080         5.47572
|135>    H       -0.94828        -4.77293         4.54501
|136>    H       -0.39278        -6.46763         0.17693
|137>    H       -0.19484        -7.89629         1.19232
|138>    H        1.32424        -5.26789         1.54734
|139>    H        1.95232        -6.70505         0.74280
|140>    H        1.60269        -6.75321         2.46537
|141>    H        2.72858         4.98778         1.72769
|142>    H        3.74557         6.25195         1.03594
|143>    H        3.57017         3.52239        -0.26672
|144>    H        6.20444         4.81467        -0.12658
|145>    H        5.02320         5.88348        -0.85297
|146>    H        5.60162         3.03954        -1.78955
|147>    H        6.12701         4.52708        -2.57822
|148>    H        4.41231         4.12616        -2.50236
|149>    H        3.96704         3.20018         2.15858
|150>    H        5.39443         4.23185         2.05950
|151>    H        4.98819         1.60821         0.54292
|152>    H        5.96802         1.80952         1.99577
|153>    H        6.45242         2.59294         0.49630
|154>    H        0.32607         6.93935        -0.33362
|155>    H        1.61864         7.64414         0.62253
|156>    H        0.30801         5.19802         1.76424
|157>    H        0.52427         7.69546         3.35790
|158>    H        2.06025         7.11194         2.74738
|159>    H        0.12686         5.43625         4.40851
|160>    H        1.60922         6.19598         4.98281
|161>    H        1.68692         4.90041         3.79302
|162>    H       -1.55980         6.39803         0.71759
|163>    H       -1.13236         7.86631         1.59708
|164>    H       -1.97238         5.22893         2.89367
|165>    H       -3.02821         6.61619         2.63353
|166>    H       -1.67230         6.74957         3.74492
|167>    H        3.81642         8.08655        -5.19941
|168>    H        7.33151        12.19007        -5.95199
|169>    H        7.08905        11.48095        -1.03420
|170> *
|171> 
|172>                          ****END OF INPUT****
================================================================================

                       ****************************
                       * Single Point Calculation *
                       ****************************

---------------------------------
CARTESIAN COORDINATES (ANGSTROEM)
---------------------------------
  S     -0.104830   -0.005600    2.818610
  N     -1.027350   -1.047630    2.015360
  C     -1.205720   -0.607480    0.770950
  C     -0.526440    0.642540    0.545310
  N      0.117330    1.057950    1.634820
  C     -1.974560   -1.217240   -0.258060
  C     -1.998740   -0.551960   -1.477530
  C     -1.310800    0.632550   -1.706720
  C     -0.566010    1.276510   -0.726530
  C      0.133590    2.498930   -0.976690
  C     -2.689440   -2.436300   -0.037220
  C     -2.565540   -3.303390    1.035660
  C     -3.418430   -4.394720    0.942090
  C     -4.230410   -4.340970   -0.195470
  S     -3.900190   -2.977590   -1.183640
  C     -3.733190   -5.619440    1.766350
  C     -4.913520   -6.168500    0.998800
  C     -5.142820   -5.413920   -0.165330
  C     -5.766860   -7.243430    1.121080
  C     -6.688220   -7.320060    0.074760
  S     -6.432070   -6.021260   -1.102580
  C      0.691670    3.357890   -0.044450
  C      1.303400    4.457900   -0.630300
  C      1.245190    4.418340   -2.027360
  S      0.383210    3.058050   -2.618980
  C      2.047810    5.685120   -0.161700
  C      2.500230    6.252260   -1.487090
  C      1.975560    5.501680   -2.553790
  C      3.244260    7.334410   -1.904130
  C      3.337540    7.418650   -3.294670
  S      2.419960    6.121990   -4.079330
  C     -7.731970   -8.207350   -0.213200
  C     -8.254630   -9.271080    0.485860
  C     -9.339540  -10.095950   -0.016630
  C     -9.715480  -11.031310    1.042490
  C     -8.867330  -10.827700    2.141930
  C     -7.910840   -9.740450    1.841870
  C    -10.698590  -12.005030    1.108440
  C    -10.814060  -12.758610    2.271750
  C     -9.961300  -12.549570    3.360400
  C     -8.975720  -11.572860    3.297770
  C     -9.909640  -10.066530   -1.263950
  O     -7.045330   -9.346190    2.598260
  C    -10.962070  -10.914480   -1.671100
  C     -9.545060   -9.228270   -2.339230
  N    -11.819250  -11.563820   -2.072870
  N     -9.317700   -8.605430   -3.277690
  Cl   -12.032170  -13.966610    2.361790
  Cl   -10.130670  -13.501140    4.780210
  C     -4.025970   -5.273300    3.232090
  C     -2.605600   -6.675490    1.631850
  C     -5.075470   -4.166030    3.428650
  C     -1.217840   -6.255570    2.149230
  C     -6.516480   -4.703880    3.340490
  C     -7.382820   -3.922060    2.359590
  C     -4.817370   -3.463970    4.769800
  C     -5.674080   -2.220220    4.972480
  C     -0.975120   -6.720610    3.598200
  C     -0.316250   -5.656250    4.470750
  C     -0.151190   -6.804470    1.188570
  C      1.267980   -6.354010    1.512160
  C      3.188160    5.342610    0.805940
  C      4.153940    4.259860    0.294490
  C      5.238700    4.837330   -0.634730
  C      5.352290    4.084560   -1.955480
  C      4.771700    3.531990    1.497320
  C      5.597520    2.312850    1.105360
  C      1.065210    6.721310    0.441640
  C      0.333570    6.289310    1.725750
  C      1.042210    6.806560    2.992650
  C      1.116190    5.771200    4.111050
  C     -1.122320    6.774740    1.646070
  C     -1.997510    6.313150    2.804830
  C      4.002160    8.301650   -4.153860
  C      4.852820    9.355690   -3.911820
  C      5.446780   10.155430   -4.969230
  C      6.398840   11.076330   -4.349940
  C      6.356330   10.895840   -2.958850
  C      5.382850    9.835260   -2.620990
  C      7.258030   12.018690   -4.890980
  C      8.055930   12.765590   -4.030730
  C      8.000820   12.582010   -2.645340
  C      7.142340   11.635980   -2.100180
  O      5.117060    9.468620   -1.493310
  C      5.167020   10.115630   -6.311500
  C      5.796320   10.935030   -7.273260
  C      4.214670    9.293710   -6.951300
  N      3.459260    8.682660   -7.564680
  N      6.266420   11.562940   -8.111470
  Cl     8.997530   13.525480   -1.612690
  Cl     9.127000   13.933240   -4.694550
  H     -2.571580   -0.981650   -2.286300
  H     -1.365640    1.080460   -2.688170
  H     -1.885620   -3.096200    1.840560
  H     -5.764390   -7.957490    1.923840
  H      0.648160    3.140270    1.006140
  H      3.726470    8.048610   -1.262460
  H     -8.213020   -7.993680   -1.160240
  H    -11.376340  -12.196140    0.293170
  H     -8.310560  -11.399010    4.128740
  H     -3.087500   -4.939870    3.673510
  H     -4.343420   -6.176480    3.755680
  H     -2.528930   -6.915500    0.568140
  H     -2.932720   -7.583660    2.140660
  H     -4.932570   -3.420070    2.639560
  H     -1.148530   -5.166030    2.118690
  H     -6.979330   -4.672050    4.328460
  H     -6.505200   -5.749660    3.032700
  H     -7.451510   -2.875960    2.647530
  H     -8.388580   -4.335930    2.329030
  H     -6.965110   -3.970740    1.355840
  H     -3.766920   -3.165040    4.814250
  H     -4.995070   -4.169210    5.585010
  H     -5.507470   -1.510620    4.164460
  H     -5.415370   -1.735790    5.911540
  H     -6.731390   -2.468260    5.001180
  H     -0.351070   -7.616300    3.590150
  H     -1.922530   -7.000050    4.060810
  H      0.643980   -5.350640    4.065540
  H     -0.156060   -6.040800    5.475720
  H     -0.948280   -4.772930    4.545010
  H     -0.392780   -6.467630    0.176930
  H     -0.194840   -7.896290    1.192320
  H      1.324240   -5.267890    1.547340
  H      1.952320   -6.705050    0.742800
  H      1.602690   -6.753210    2.465370
  H      2.728580    4.987780    1.727690
  H      3.745570    6.251950    1.035940
  H      3.570170    3.522390   -0.266720
  H      6.204440    4.814670   -0.126580
  H      5.023200    5.883480   -0.852970
  H      5.601620    3.039540   -1.789550
  H      6.127010    4.527080   -2.578220
  H      4.412310    4.126160   -2.502360
  H      3.967040    3.200180    2.158580
  H      5.394430    4.231850    2.059500
  H      4.988190    1.608210    0.542920
  H      5.968020    1.809520    1.995770
  H      6.452420    2.592940    0.496300
  H      0.326070    6.939350   -0.333620
  H      1.618640    7.644140    0.622530
  H      0.308010    5.198020    1.764240
  H      0.524270    7.695460    3.357900
  H      2.060250    7.111940    2.747380
  H      0.126860    5.436250    4.408510
  H      1.609220    6.195980    4.982810
  H      1.686920    4.900410    3.793020
  H     -1.559800    6.398030    0.717590
  H     -1.132360    7.866310    1.597080
  H     -1.972380    5.228930    2.893670
  H     -3.028210    6.616190    2.633530
  H     -1.672300    6.749570    3.744920
  H      3.816420    8.086550   -5.199410
  H      7.331510   12.190070   -5.951990
  H      7.089050   11.480950   -1.034200

----------------------------
CARTESIAN COORDINATES (A.U.)
----------------------------
  NO LB      ZA    FRAG     MASS         X           Y           Z
   0 S    16.0000    0    32.060   -0.198100   -0.010582    5.326401
   1 N     7.0000    0    14.007   -1.941410   -1.979734    3.808478
   2 C     6.0000    0    12.011   -2.278481   -1.147971    1.456884
   3 C     6.0000    0    12.011   -0.994827    1.214225    1.030487
   4 N     7.0000    0    14.007    0.221722    1.999236    3.089362
   5 C     6.0000    0    12.011   -3.731378   -2.300250   -0.487663
   6 C     6.0000    0    12.011   -3.777071   -1.043053   -2.792127
   7 C     6.0000    0    12.011   -2.477053    1.195346   -3.225233
   8 C     6.0000    0    12.011   -1.069604    2.412254   -1.372943
   9 C     6.0000    0    12.011    0.252449    4.722293   -1.845677
  10 C     6.0000    0    12.011   -5.082305   -4.603940   -0.070336
  11 C     6.0000    0    12.011   -4.848168   -6.242502    1.957114
  12 C     6.0000    0    12.011   -6.459897   -8.304817    1.780292
  13 C     6.0000    0    12.011   -7.994316   -8.203244   -0.369385
  14 S    16.0000    0    32.060   -7.370291   -5.626830   -2.236755
  15 C     6.0000    0    12.011   -7.054707  -10.619203    3.337918
  16 C     6.0000    0    12.011   -9.285207  -11.656776    1.887458
  17 C     6.0000    0    12.011   -9.718521  -10.230826   -0.312428
  18 C     6.0000    0    12.011  -10.897786  -13.688099    2.118534
  19 C     6.0000    0    12.011  -12.638904  -13.832909    0.141276
  20 S    16.0000    0    32.060  -12.154851  -11.378532   -2.083574
  21 C     6.0000    0    12.011    1.307067    6.345492   -0.083998
  22 C     6.0000    0    12.011    2.463069    8.424210   -1.191094
  23 C     6.0000    0    12.011    2.353068    8.349453   -3.831155
  24 S    16.0000    0    32.060    0.724162    5.778877   -4.949155
  25 C     6.0000    0    12.011    3.869800   10.743320   -0.305569
  26 C     6.0000    0    12.011    4.724750   11.815059   -2.810193
  27 C     6.0000    0    12.011    3.733267   10.396668   -4.825964
  28 C     6.0000    0    12.011    6.130763   13.860026   -3.598284
  29 C     6.0000    0    12.011    6.307037   14.019217   -6.226024
  30 S    16.0000    0    32.060    4.573062   11.568884   -7.708817
  31 C     6.0000    0    12.011  -14.611306  -15.509644   -0.402890
  32 C     6.0000    0    12.011  -15.598990  -17.519802    0.918142
  33 C     6.0000    0    12.011  -17.649173  -19.078581   -0.031426
  34 C     6.0000    0    12.011  -18.359596  -20.846155    1.970021
  35 C     6.0000    0    12.011  -16.756825  -20.461388    4.047661
  36 C     6.0000    0    12.011  -14.949321  -18.406783    3.480630
  37 C     6.0000    0    12.011  -20.217405  -22.686219    2.094648
  38 C     6.0000    0    12.011  -20.435612  -24.110279    4.292985
  39 C     6.0000    0    12.011  -18.824129  -23.715250    6.350236
  40 C     6.0000    0    12.011  -16.961653  -21.869536    6.231882
  41 C     6.0000    0    12.011  -18.726506  -19.022985   -2.388519
  42 O     8.0000    0    15.999  -13.313744  -17.661739    4.910000
  43 C     6.0000    0    12.011  -20.715310  -20.625378   -3.157921
  44 C     6.0000    0    12.011  -18.037549  -17.438903   -4.420504
  45 N     7.0000    0    14.007  -22.335146  -21.852453   -3.917157
  46 N     7.0000    0    14.007  -17.607901  -16.261906   -6.193936
  47 Cl   17.0000    0    35.453  -22.737506  -26.393068    4.463136
  48 Cl   17.0000    0    35.453  -19.144192  -25.513457    9.033288
  49 C     6.0000    0    12.011   -7.607981   -9.965093    6.107765
  50 C     6.0000    0    12.011   -4.923870  -12.614848    3.083750
  51 C     6.0000    0    12.011   -9.591248   -7.872656    6.479210
  52 C     6.0000    0    12.011   -2.301384  -11.821314    4.061456
  53 C     6.0000    0    12.011  -12.314363   -8.889045    6.312611
  54 C     6.0000    0    12.011  -13.951508   -7.411619    4.458979
  55 C     6.0000    0    12.011   -9.103510   -6.545955    9.013616
  56 C     6.0000    0    12.011  -10.722457   -4.195608    9.396625
  57 C     6.0000    0    12.011   -1.842710  -12.700112    6.799613
  58 C     6.0000    0    12.011   -0.597626  -10.688763    8.448493
  59 C     6.0000    0    12.011   -0.285708  -12.858585    2.246072
  60 C     6.0000    0    12.011    2.396135  -12.007339    2.857568
  61 C     6.0000    0    12.011    6.024749   10.096070    1.523006
  62 C     6.0000    0    12.011    7.849809    8.049969    0.556505
  63 C     6.0000    0    12.011    9.899708    9.141229   -1.199466
  64 C     6.0000    0    12.011   10.114362    7.718700   -3.695322
  65 C     6.0000    0    12.011    9.017206    6.674494    2.829525
  66 C     6.0000    0    12.011   10.577780    4.370653    2.088828
  67 C     6.0000    0    12.011    2.012955   12.701435    0.834579
  68 C     6.0000    0    12.011    0.630356   11.885073    3.261195
  69 C     6.0000    0    12.011    1.969491   12.862534    5.655289
  70 C     6.0000    0    12.011    2.109293   10.905987    7.768759
  71 C     6.0000    0    12.011   -2.120877   12.802403    3.110621
  72 C     6.0000    0    12.011   -3.774747   11.930125    5.300361
  73 C     6.0000    0    12.011    7.562986   15.687845   -7.849658
  74 C     6.0000    0    12.011    9.170501   17.679692   -7.392268
  75 C     6.0000    0    12.011   10.292923   19.190981   -9.390484
  76 C     6.0000    0    12.011   12.092055   20.931230   -8.220195
  77 C     6.0000    0    12.011   12.011723   20.590154   -5.591416
  78 C     6.0000    0    12.011   10.172112   18.585948   -4.952953
  79 C     6.0000    0    12.011   13.715689   22.712033   -9.242613
  80 C     6.0000    0    12.011   15.223501   24.123469   -7.616976
  81 C     6.0000    0    12.011   15.119359   23.776553   -4.998968
  82 C     6.0000    0    12.011   13.497067   21.988815   -3.968765
  83 O     8.0000    0    15.999    9.669842   17.893099   -2.821947
  84 C     6.0000    0    12.011    9.764253   19.115770  -11.927006
  85 C     6.0000    0    12.011   10.953457   20.664212  -13.744470
  86 C     6.0000    0    12.011    7.964572   17.562567  -13.136053
  87 N     7.0000    0    14.007    6.537054   16.407850  -14.295173
  88 N     7.0000    0    14.007   11.841818   21.850790  -15.328457
  89 Cl   17.0000    0    35.453   17.002868   25.559453   -3.047542
  90 Cl   17.0000    0    35.453   17.247530   26.330008   -8.871414
  91 H     1.0000    0     1.008   -4.859582   -1.855050   -4.320481
  92 H     1.0000    0     1.008   -2.580686    2.041773   -5.079905
  93 H     1.0000    0     1.008   -3.563305   -5.850970    3.478154
  94 H     1.0000    0     1.008  -10.893118  -15.037477    3.635531
  95 H     1.0000    0     1.008    1.224845    5.934250    1.901329
  96 H     1.0000    0     1.008    7.042008   15.209669   -2.385704
  97 H     1.0000    0     1.008  -15.520359  -15.105866   -2.192536
  98 H     1.0000    0     1.008  -21.498167  -23.047364    0.554011
  99 H     1.0000    0     1.008  -15.704682  -21.541007    7.802188
 100 H     1.0000    0     1.008   -5.834529   -9.335001    6.941928
 101 H     1.0000    0     1.008   -8.207874  -11.671856    7.097207
 102 H     1.0000    0     1.008   -4.778985  -13.068401    1.073629
 103 H     1.0000    0     1.008   -5.542038  -14.331040    4.045261
 104 H     1.0000    0     1.008   -9.321206   -6.462996    4.988046
 105 H     1.0000    0     1.008   -2.170407   -9.762382    4.003744
 106 H     1.0000    0     1.008  -13.189022   -8.828895    8.179604
 107 H     1.0000    0     1.008  -12.293046  -10.865283    5.730972
 108 H     1.0000    0     1.008  -14.081313   -5.434777    5.003107
 109 H     1.0000    0     1.008  -15.852119   -8.193720    4.401229
 110 H     1.0000    0     1.008  -13.162150   -7.503611    2.562166
 111 H     1.0000    0     1.008   -7.118447   -5.981059    9.097614
 112 H     1.0000    0     1.008   -9.439314   -7.878665   10.554139
 113 H     1.0000    0     1.008  -10.407610   -2.854658    7.869689
 114 H     1.0000    0     1.008  -10.233566   -3.280168   11.171192
 115 H     1.0000    0     1.008  -12.720484   -4.664335    9.450861
 116 H     1.0000    0     1.008   -0.663426  -14.392721    6.784400
 117 H     1.0000    0     1.008   -3.633055  -13.228177    7.673819
 118 H     1.0000    0     1.008    1.216946  -10.111244    7.682757
 119 H     1.0000    0     1.008   -0.294911  -11.415458   10.347611
 120 H     1.0000    0     1.008   -1.791989   -9.019531    8.588824
 121 H     1.0000    0     1.008   -0.742247  -12.222049    0.334349
 122 H     1.0000    0     1.008   -0.368194  -14.921826    2.253158
 123 H     1.0000    0     1.008    2.502451   -9.954869    2.924049
 124 H     1.0000    0     1.008    3.689350  -12.670708    1.403689
 125 H     1.0000    0     1.008    3.028645  -12.761717    4.658874
 126 H     1.0000    0     1.008    5.156269    9.425538    3.264861
 127 H     1.0000    0     1.008    7.078102   11.814473    1.957643
 128 H     1.0000    0     1.008    6.746644    6.656352   -0.504028
 129 H     1.0000    0     1.008   11.724692    9.098408   -0.239202
 130 H     1.0000    0     1.008    9.492472   11.118166   -1.611880
 131 H     1.0000    0     1.008   10.585528    5.743898   -3.381759
 132 H     1.0000    0     1.008   11.578371    8.554941   -4.872130
 133 H     1.0000    0     1.008    8.338058    7.797312   -4.728775
 134 H     1.0000    0     1.008    7.496619    6.047464    4.079125
 135 H     1.0000    0     1.008   10.193995    7.997038    3.891891
 136 H     1.0000    0     1.008    9.426313    3.039076    1.025970
 137 H     1.0000    0     1.008   11.277923    3.419497    3.771459
 138 H     1.0000    0     1.008   12.193307    4.899946    0.937871
 139 H     1.0000    0     1.008    0.616183   13.113471   -0.630450
 140 H     1.0000    0     1.008    3.058786   14.445331    1.176411
 141 H     1.0000    0     1.008    0.582055    9.822834    3.333930
 142 H     1.0000    0     1.008    0.990727   14.542312    6.345511
 143 H     1.0000    0     1.008    3.893308   13.439619    5.191796
 144 H     1.0000    0     1.008    0.239731   10.273024    8.330877
 145 H     1.0000    0     1.008    3.040985   11.708705    9.416146
 146 H     1.0000    0     1.008    3.187817    9.260433    7.167769
 147 H     1.0000    0     1.008   -2.947595   12.090524    1.356049
 148 H     1.0000    0     1.008   -2.139850   14.865172    3.018044
 149 H     1.0000    0     1.008   -3.727258    9.881246    5.468244
 150 H     1.0000    0     1.008   -5.722488   12.502787    4.976650
 151 H     1.0000    0     1.008   -3.160189   12.754839    7.076873
 152 H     1.0000    0     1.008    7.211989   15.281365   -9.825461
 153 H     1.0000    0     1.008   13.854546   23.035894  -11.247631
 154 H     1.0000    0     1.008   13.396363   21.695851   -1.954355

--------------------------------
INTERNAL COORDINATES (ANGSTROEM)
--------------------------------
 S      0   0   0     0.000000000000     0.00000000     0.00000000
 N      1   0   0     1.606885258443     0.00000000     0.00000000
 C      2   1   0     1.331955002055   109.24535571     0.00000000
 C      3   2   1     1.440446017177   111.71357192   359.97104263
 N      4   3   2     1.331929923494   111.74332223     0.02428193
 C      3   2   1     1.421894434654   127.36016625   181.18091344
 C      6   3   2     1.389348491812   116.05716285   180.04906598
 C      7   6   3     1.388831681594   122.99883005     0.60984716
 C      8   7   6     1.389305244286   122.98623009   358.23111178
 C      9   8   7     1.430500206921   122.33642384   180.22159105
 C      6   3   2     1.430360445342   121.60072652     0.69964186
 C     11   6   3     1.385015441250   127.47798904   347.27829624
 C     12  11   6     1.388228319082   112.64285488   179.62574281
 C     13  12  11     1.398657690967   112.41290971   358.24971131
 S     14  13  12     1.715905073627   112.78003256     2.28828162
 C     13  12  11     1.509442772549   136.81538583   180.26942297
 C     16  13  12     1.511217653086   100.38782076   173.08149845
 C     17  16  13     1.406118104321   110.66401474     4.77818193
 C     17  16  13     1.377902775561   136.22539250   181.03140658
 C     19  17  16     1.396267148113   112.64218730   182.36224631
 S     18  17  16     1.705715392614   112.77376281   177.99086351
 C     10   9   8     1.385040427424   127.53989125   166.86008498
 C     22  10   9     1.388328424941   112.63705835   179.85220860
 C     23  22  10     1.398831670109   112.37732414   358.25093551
 S     24  23  22     1.715637674132   112.81355665     2.26345439
 C     23  22  10     1.509901035333   136.90834505   179.85706258
 C     26  23  22     1.510956745939   100.39689167   173.55576975
 C     27  26  23     1.405879737140   110.69650566     4.56872454
 C     27  26  23     1.377879394214   136.21753616   181.48246686
 C     29  27  26     1.396208805158   112.63755777   181.52725585
 S     28  27  26     1.705739765527   112.78057187   178.46209341
 C     20  19  17     1.399863767729   132.91740402   180.79149299
 C     32  20  19     1.376001407012   131.96690546     4.29999839
 C     33  32  20     1.452562021086   123.15813801   181.50100442
 C     34  33  32     1.462177960304   107.74183416   185.62343738
 C     35  34  33     1.403418600490   108.61817781   358.03100093
 C     33  32  20     1.475555109476   128.62983736     5.03951629
 C     35  34  33     1.385274454034   131.80549124   178.22693812
 C     38  35  34     1.390865303831   118.65779401   179.68552460
 C     39  38  35     1.398590777068   121.29467776   359.94419509
 C     36  35  34     1.379484658595   122.04199098   180.35378855
 C     34  33  32     1.371745868884   127.79126193     7.54649226
 O     37  33  32     1.215184899429   129.40225692   355.06580328
 C     42  34  33     1.411523726297   124.00541497   179.66908425
 C     42  34  33     1.411320474733   126.73864332     0.84474102
 N     44  42  34     1.147963031156   175.93990535   176.24782286
 N     45  42  34     1.149055876274   174.45589439   171.97908236
 Cl    39  38  35     1.717894983315   118.92707601   179.92111597
 Cl    40  39  38     1.717565747766   120.03421786   180.12360316
 C     16  13  12     1.534251210070   112.23617681    50.79109415
 C     16  13  12     1.550738875698   110.70485546   284.78151837
 C     50  16  13     1.538223955248   114.49903262    51.10028180
 C     51  16  13     1.539445578252   116.14071107    62.97598552
 C     52  50  16     1.540637734252   112.30557874    82.33226974
 C     54  52  50     1.524451481025   112.91249137   231.80633388
 C     52  50  16     1.535639012301   109.02738637   206.44623271
 C     56  52  50     1.523793053206   113.25520977   171.67861557
 C     53  51  16     1.541002680368   112.06644602    95.03175130
 C     58  53  51     1.525881839790   113.27794907   222.93801516
 C     53  51  16     1.536847769982   108.55171576   218.94341824
 C     60  53  51     1.523702132505   114.08535253   174.69935753
 C     26  23  22     1.534287584581   112.37840701    51.46594673
 C     62  26  23     1.538395161654   114.45900930    51.55390954
 C     63  62  26     1.540657543681   112.25478409    83.35035833
 C     64  63  62     1.524449383712   112.94940963   231.14331738
 C     63  62  26     1.535650404031   109.01025500   207.42044442
 C     66  63  62     1.523782679256   113.31325757   172.05851099
 C     26  23  22     1.550229541616   110.58294056   285.47559214
 C     68  26  23     1.539759585682   115.99056778    64.85608243
 C     69  68  26     1.541023628015   111.89713670    96.15438380
 C     70  69  68     1.525864322278   113.39828559   222.23363808
 C     69  68  26     1.536752055278   108.55997140   220.08327205
 C     72  69  68     1.523728191575   114.14389367   175.12712504
 C     30  29  27     1.399862922039   132.92594340   182.03629856
 C     74  30  29     1.375938268528   131.97180470     3.90282022
 C     75  74  30     1.452752028840   123.12322964   179.82955308
 C     76  75  74     1.462188482276   107.73671134   186.18224863
 C     77  76  75     1.403394145741   108.60853716   357.60101515
 C     75  74  30     1.475520679184   128.67867789     3.48672818
 C     77  76  75     1.385270409451   131.82580584   177.72587414
 C     80  77  76     1.390875293655   118.65599327   179.68599706
 C     81  80  77     1.398586493786   121.30324517   359.86812984
 C     78  77  76     1.379468415224   122.05569136   180.47590577
 O     79  75  74     1.215208375588   129.43407547   354.39893298
 C     76  75  74     1.371691820527   127.79915309     7.97120965
 C     85  76  75     1.411530073218   123.98486728   179.96252416
 C     85  76  75     1.411335200758   126.73594521     1.15678566
 N     87  85  76     1.149026281249   174.46107107   171.77008183
 N     86  85  76     1.147981263871   176.01899950   176.92943867
 Cl    82  81  80     1.717536749971   120.03939911   180.17735238
 Cl    81  80  77     1.717921552283   118.92496572   179.83907549
 H      7   6   3     1.080225936830   118.41893092   180.01113477
 H      8   7   6     1.080219836978   118.58309808   178.94753460
 H     12  11   6     1.073816982777   121.09707683     1.03089478
 H     19  17  16     1.074388850510   125.68769918     3.16644260
 H     22  10   9     1.073774153442   121.09973328     1.11022984
 H     29  27  26     1.074406121073   125.70822493     2.34468774
 H     32  20  19     1.083489147615   112.69591642   183.43887952
 H     38  35  34     1.077280496203   122.35424050   359.51455868
 H     41  36  35     1.078504885942   120.66639627   179.86865444
 H     50  16  13     1.089381990947   106.96377306   290.98883158
 H     50  16  13     1.091171436118   109.09845829   174.36809249
 H     51  16  13     1.093143198808   106.55383019   301.50639420
 H     51  16  13     1.091177281380   107.96025403   186.88546437
 H     52  50  16     1.095235024869   108.01058300   322.63116207
 H     53  51  16     1.092169391303   108.65850755   335.14333114
 H     54  52  50     1.091479726014   109.55173525   110.05476753
 H     54  52  50     1.090191602839   109.96004444   353.05188795
 H     55  54  52     1.087176604651   111.03666641   300.14453508
 H     55  54  52     1.088014461347   110.38467535   179.94493035
 H     55  54  52     1.088285554898   110.63400756    60.24529695
 H     56  52  50     1.093059993733   108.78789953    51.37876099
 H     56  52  50     1.092477959366   109.22206197   294.18368538
 H     57  56  52     1.088203736669   110.32841811   302.41302923
 H     57  56  52     1.087858893699   110.15610399   182.88257365
 H     57  56  52     1.086394020464   111.36631411    62.97811696
 H     58  53  51     1.091679339870   109.31150734   100.86083679
 H     58  53  51     1.090724728701   109.83440208   343.95954916
 H     59  58  53     1.086109694782   111.38806689   301.00413117
 H     59  58  53     1.087889810367   110.19776807   180.78416401
 H     59  58  53     1.088683007537   110.74968952    61.32685653
 H     60  53  51     1.093271422521   108.36075028    54.19676589
 H     60  53  51     1.092698630639   109.08691144   297.33878130
 H     61  60  53     1.088144969386   110.49384233   304.44557182
 H     61  60  53     1.087871833811   109.89623141   185.10639008
 H     61  60  53     1.086278384301   111.38902544    65.52060113
 H     62  26  23     1.089376504153   107.02502036   291.32992226
 H     62  26  23     1.091102719133   109.06224559   174.75938722
 H     63  62  26     1.095265300236   108.03771283   323.66057948
 H     64  63  62     1.091505220189   109.53564114   109.32490326
 H     64  63  62     1.090182906718   109.95248439   352.32854008
 H     65  64  63     1.087090159186   111.07173952   300.11107549
 H     65  64  63     1.088034988592   110.37081380   179.89950423
 H     65  64  63     1.088287965017   110.61788976    60.22256414
 H     66  63  62     1.093087544207   108.75875064    51.74006879
 H     66  63  62     1.092539713191   109.19054627   294.56207660
 H     67  66  63     1.088181663189   110.33831036   302.34706410
 H     67  66  63     1.087860885867   110.13382032   182.82604141
 H     67  66  63     1.086397027656   111.37110751    62.94570561
 H     68  26  23     1.093113648620   106.61211988   303.24952616
 H     68  26  23     1.091155885243   107.95904106   188.61406801
 H     69  68  26     1.092267667653   108.71247968   336.35097140
 H     70  69  68     1.091701706557   109.28011051   100.05222713
 H     70  69  68     1.090788594962   109.77297794   343.16045621
 H     71  70  69     1.086023850106   111.46076682   301.20625267
 H     71  70  69     1.087879647250   110.14375548   180.98502676
 H     71  70  69     1.088646424649   110.73512410    61.60503822
 H     72  69  68     1.093331735980   108.31702317    54.59002027
 H     72  69  68     1.092714915520   109.06125169   297.75328960
 H     73  72  69     1.088143864983   110.52802479   304.52024249
 H     73  72  69     1.087896788119   109.87975742   185.18038135
 H     73  72  69     1.086274904709   111.37514697    65.62695058
 H     74  30  29     1.083486114401   112.68485951   182.42943587
 H     80  77  76     1.077270919918   122.35741496   359.48083781
 H     83  78  77     1.078511699241   120.66071949   179.78755692

---------------------------
INTERNAL COORDINATES (A.U.)
---------------------------
 S      0   0   0     0.000000000000     0.00000000     0.00000000
 N      1   0   0     3.036573067092     0.00000000     0.00000000
 C      2   1   0     2.517030176591   109.24535571     0.00000000
 C      3   2   1     2.722048483161   111.71357192   359.97104263
 N      4   3   2     2.516982784979   111.74332223     0.02428193
 C      3   2   1     2.686991072843   127.36016625   181.18091344
 C      6   3   2     2.625488154101   116.05716285   180.04906598
 C      7   6   3     2.624511524327   122.99883005     0.60984716
 C      8   7   6     2.625406428121   122.98623009   358.23111178
 C      9   8   7     2.703253625598   122.33642384   180.22159105
 C      6   3   2     2.702989514491   121.60072652     0.69964186
 C     11   6   3     2.617299875214   127.47798904   347.27829624
 C     12  11   6     2.623371334418   112.64285488   179.62574281
 C     13  12  11     2.643079991030   112.41290971   358.24971131
 S     14  13  12     3.242590660962   112.78003256     2.28828162
 C     13  12  11     2.852433454944   136.81538583   180.26942297
 C     16  13  12     2.855787493081   100.38782076   173.08149845
 C     17  16  13     2.657178129116   110.66401474     4.77818193
 C     17  16  13     2.603858884981   136.22539250   181.03140658
 C     19  17  16     2.638562519725   112.64218730   182.36224631
 S     18  17  16     3.223334954454   112.77376281   177.99086351
 C     10   9   8     2.617347092241   127.53989125   166.86008498
 C     22  10   9     2.623560507077   112.63705835   179.85220860
 C     23  22  10     2.643408763962   112.37732414   358.25093551
 S     24  23  22     3.242085349147   112.81355665     2.26345439
 C     23  22  10     2.853299446104   136.90834505   179.85706258
 C     26  23  22     2.855294450026   100.39689167   173.55576975
 C     27  26  23     2.656727680423   110.69650566     4.56872454
 C     27  26  23     2.603814700638   136.21753616   181.48246686
 C     29  27  26     2.638452267518   112.63755777   181.52725585
 S     28  27  26     3.223381012585   112.78057187   178.46209341
 C     20  19  17     2.645359145807   132.91740402   180.79149299
 C     32  20  19     2.600265819144   131.96690546     4.29999839
 C     33  32  20     2.744944412387   123.15813801   181.50100442
 C     34  33  32     2.763115904031   107.74183416   185.62343738
 C     35  34  33     2.652076806176   108.61817781   358.03100093
 C     33  32  20     2.788395052417   128.62983736     5.03951629
 C     35  34  33     2.617789338442   131.80549124   178.22693812
 C     38  35  34     2.628354513413   118.65779401   179.68552460
 C     39  38  35     2.642953542087   121.29467776   359.94419509
 C     36  35  34     2.606848210691   122.04199098   180.35378855
 C     34  33  32     2.592224017528   127.79126193     7.54649226
 O     37  33  32     2.296366661997   129.40225692   355.06580328
 C     42  34  33     2.667393274234   124.00541497   179.66908425
 C     42  34  33     2.667009184441   126.73864332     0.84474102
 N     44  42  34     2.169335740750   175.93990535   176.24782286
 N     45  42  34     2.171400918731   174.45589439   171.97908236
 Cl    39  38  35     3.246351045303   118.92707601   179.92111597
 Cl    40  39  38     3.245728880282   120.03421786   180.12360316
 C     16  13  12     2.899314607669   112.23617681    50.79109415
 C     16  13  12     2.930471780294   110.70485546   284.78151837
 C     50  16  13     2.906822008057   114.49903262    51.10028180
 C     51  16  13     2.909130540973   116.14071107    62.97598552
 C     52  50  16     2.911383389321   112.30557874    82.33226974
 C     54  52  50     2.880795803588   112.91249137   231.80633388
 C     52  50  16     2.901937173814   109.02738637   206.44623271
 C     56  52  50     2.879551555332   113.25520977   171.67861557
 C     53  51  16     2.912073037533   112.06644602    95.03175130
 C     58  53  51     2.883498789926   113.27794907   222.93801516
 C     53  51  16     2.904221394794   108.55171576   218.94341824
 C     60  53  51     2.879379740106   114.08535253   174.69935753
 C     26  23  22     2.899383345534   112.37840701    51.46594673
 C     62  26  23     2.907145541275   114.45900930    51.55390954
 C     63  62  26     2.911420823716   112.25478409    83.35035833
 C     64  63  62     2.880791840241   112.94940963   231.14331738
 C     63  62  26     2.901958701064   109.01025500   207.42044442
 C     66  63  62     2.879531951406   113.31325757   172.05851099
 C     26  23  22     2.929509278369   110.58294056   285.47559214
 C     68  26  23     2.909723929019   115.99056778    64.85608243
 C     69  68  26     2.912112622850   111.89713670    96.15438380
 C     70  69  68     2.883465686626   113.39828559   222.23363808
 C     69  68  26     2.904040520215   108.55997140   220.08327205
 C     72  69  68     2.879428984612   114.14389367   175.12712504
 C     30  29  27     2.645357547685   132.92594340   182.03629856
 C     74  30  29     2.600146504700   131.97180470     3.90282022
 C     75  74  30     2.745303475007   123.12322964   179.82955308
 C     76  75  74     2.763135787675   107.73671134   186.18224863
 C     77  76  75     2.652030593399   108.60853716   357.60101515
 C     75  74  30     2.788329988595   128.67867789     3.48672818
 C     77  76  75     2.617781695287   131.82580584   177.72587414
 C     80  77  76     2.628373391445   118.65599327   179.68599706
 C     81  80  77     2.642945447856   121.30324517   359.86812984
 C     78  77  76     2.606817515167   122.05569136   180.47590577
 O     79  75  74     2.296411025509   129.43407547   354.39893298
 C     76  75  74     2.592121880935   127.79915309     7.97120965
 C     85  76  75     2.667405268177   123.98486728   179.96252416
 C     85  76  75     2.667037012596   126.73594521     1.15678566
 N     87  85  76     2.171344992238   174.46107107   171.77008183
 N     86  85  76     2.169370195590   176.01899950   176.92943867
 Cl    82  81  80     3.245674082390   120.03939911   180.17735238
 Cl    81  80  77     3.246401253377   118.92496572   179.83907549
 H      7   6   3     2.041331183367   118.41893092   180.01113477
 H      8   7   6     2.041319656317   118.58309808   178.94753460
 H     12  11   6     2.029220015402   121.09707683     1.03089478
 H     19  17  16     2.030300688802   125.68769918     3.16644260
 H     22  10   9     2.029139079688   121.09973328     1.11022984
 H     29  27  26     2.030333325437   125.70822493     2.34468774
 H     32  20  19     2.047497758069   112.69591642   183.43887952
 H     38  35  34     2.035765107239   122.35424050   359.51455868
 H     41  36  35     2.038078868526   120.66639627   179.86865444
 H     50  16  13     2.058633618116   106.96377306   290.98883158
 H     50  16  13     2.062015179421   109.09845829   174.36809249
 H     51  16  13     2.065741270906   106.55383019   301.50639420
 H     51  16  13     2.062026225365   107.96025403   186.88546437
 H     52  50  16     2.069694249281   108.01058300   322.63116207
 H     53  51  16     2.063901041415   108.65850755   335.14333114
 H     54  52  50     2.062597762894   109.55173525   110.05476753
 H     54  52  50     2.060163562866   109.96004444   353.05188795
 H     55  54  52     2.054466041996   111.03666641   300.14453508
 H     55  54  52     2.056049361692   110.38467535   179.94493035
 H     55  54  52     2.056561654260   110.63400756    60.24529695
 H     56  52  50     2.065584036101   108.78789953    51.37876099
 H     56  52  50     2.064484150546   109.22206197   294.18368538
 H     57  56  52     2.056407040214   110.32841811   302.41302923
 H     57  56  52     2.055755381442   110.15610399   182.88257365
 H     57  56  52     2.052987172207   111.36631411    62.97811696
 H     58  53  51     2.062974978415   109.31150734   100.86083679
 H     58  53  51     2.061171024741   109.83440208   343.95954916
 H     59  58  53     2.052449874535   111.38806689   301.00413117
 H     59  58  53     2.055813805477   110.19776807   180.78416401
 H     59  58  53     2.057312730899   110.74968952    61.32685653
 H     60  53  51     2.065983578606   108.36075028    54.19676589
 H     60  53  51     2.064901158818   109.08691144   297.33878130
 H     61  60  53     2.056295986144   110.49384233   304.44557182
 H     61  60  53     2.055779834710   109.89623141   185.10639008
 H     61  60  53     2.052768651528   111.38902544    65.52060113
 H     62  26  23     2.058623249577   107.02502036   291.32992226
 H     62  26  23     2.061885323139   109.06224559   174.75938722
 H     63  62  26     2.069751461432   108.03771283   323.66057948
 H     64  63  62     2.062645939903   109.53564114   109.32490326
 H     64  63  62     2.060147129579   109.95248439   352.32854008
 H     65  64  63     2.054302683743   111.07173952   300.11107549
 H     65  64  63     2.056088152563   110.37081380   179.89950423
 H     65  64  63     2.056566208724   110.61788976    60.22256414
 H     66  63  62     2.065636098951   108.75875064    51.74006879
 H     66  63  62     2.064600848364   109.19054627   294.56207660
 H     67  66  63     2.056365327381   110.33831036   302.34706410
 H     67  66  63     2.055759146094   110.13382032   182.82604141
 H     67  66  63     2.052992854976   111.37110751    62.94570561
 H     68  26  23     2.065685429144   106.61211988   303.24952616
 H     68  26  23     2.061985792525   107.95904106   188.61406801
 H     69  68  26     2.064086756801   108.71247968   336.35097140
 H     70  69  68     2.063017245328   109.28011051   100.05222713
 H     70  69  68     2.061291714484   109.77297794   343.16045621
 H     71  70  69     2.052287651608   111.46076682   301.20625267
 H     71  70  69     2.055794599969   110.14375548   180.98502676
 H     71  70  69     2.057243599258   110.73512410    61.60503822
 H     72  69  68     2.066097554526   108.31702317    54.59002027
 H     72  69  68     2.064931932784   109.06125169   297.75328960
 H     73  72  69     2.056293899124   110.52802479   304.52024249
 H     73  72  69     2.055826991518   109.87975742   185.18038135
 H     73  72  69     2.052762076051   111.37514697    65.62695058
 H     74  30  29     2.047492026125   112.68485951   182.42943587
 H     80  77  76     2.035747010682   122.35741496   359.48083781
 H     83  78  77     2.038091743796   120.66071949   179.78755692

---------------------
BASIS SET INFORMATION
---------------------
There are 6 groups of distinct atoms

 Group   1 Type S   : 14s9p3d1f contracted to 5s5p2d1f pattern {73211/51111/21/1}
 Group   2 Type N   : 11s6p2d1f contracted to 5s3p2d1f pattern {62111/411/11/1}
 Group   3 Type C   : 11s6p2d1f contracted to 5s3p2d1f pattern {62111/411/11/1}
 Group   4 Type O   : 11s6p2d1f contracted to 5s3p2d1f pattern {62111/411/11/1}
 Group   5 Type Cl  : 14s9p3d1f contracted to 5s5p2d1f pattern {73211/51111/21/1}
 Group   6 Type H   : 5s1p contracted to 3s1p pattern {311/1}

Atom   0S    basis set group =>   1
Atom   1N    basis set group =>   2
Atom   2C    basis set group =>   3
Atom   3C    basis set group =>   3
Atom   4N    basis set group =>   2
Atom   5C    basis set group =>   3
Atom   6C    basis set group =>   3
Atom   7C    basis set group =>   3
Atom   8C    basis set group =>   3
Atom   9C    basis set group =>   3
Atom  10C    basis set group =>   3
Atom  11C    basis set group =>   3
Atom  12C    basis set group =>   3
Atom  13C    basis set group =>   3
Atom  14S    basis set group =>   1
Atom  15C    basis set group =>   3
Atom  16C    basis set group =>   3
Atom  17C    basis set group =>   3
Atom  18C    basis set group =>   3
Atom  19C    basis set group =>   3
Atom  20S    basis set group =>   1
Atom  21C    basis set group =>   3
Atom  22C    basis set group =>   3
Atom  23C    basis set group =>   3
Atom  24S    basis set group =>   1
Atom  25C    basis set group =>   3
Atom  26C    basis set group =>   3
Atom  27C    basis set group =>   3
Atom  28C    basis set group =>   3
Atom  29C    basis set group =>   3
Atom  30S    basis set group =>   1
Atom  31C    basis set group =>   3
Atom  32C    basis set group =>   3
Atom  33C    basis set group =>   3
Atom  34C    basis set group =>   3
Atom  35C    basis set group =>   3
Atom  36C    basis set group =>   3
Atom  37C    basis set group =>   3
Atom  38C    basis set group =>   3
Atom  39C    basis set group =>   3
Atom  40C    basis set group =>   3
Atom  41C    basis set group =>   3
Atom  42O    basis set group =>   4
Atom  43C    basis set group =>   3
Atom  44C    basis set group =>   3
Atom  45N    basis set group =>   2
Atom  46N    basis set group =>   2
Atom  47Cl   basis set group =>   5
Atom  48Cl   basis set group =>   5
Atom  49C    basis set group =>   3
Atom  50C    basis set group =>   3
Atom  51C    basis set group =>   3
Atom  52C    basis set group =>   3
Atom  53C    basis set group =>   3
Atom  54C    basis set group =>   3
Atom  55C    basis set group =>   3
Atom  56C    basis set group =>   3
Atom  57C    basis set group =>   3
Atom  58C    basis set group =>   3
Atom  59C    basis set group =>   3
Atom  60C    basis set group =>   3
Atom  61C    basis set group =>   3
Atom  62C    basis set group =>   3
Atom  63C    basis set group =>   3
Atom  64C    basis set group =>   3
Atom  65C    basis set group =>   3
Atom  66C    basis set group =>   3
Atom  67C    basis set group =>   3
Atom  68C    basis set group =>   3
Atom  69C    basis set group =>   3
Atom  70C    basis set group =>   3
Atom  71C    basis set group =>   3
Atom  72C    basis set group =>   3
Atom  73C    basis set group =>   3
Atom  74C    basis set group =>   3
Atom  75C    basis set group =>   3
Atom  76C    basis set group =>   3
Atom  77C    basis set group =>   3
Atom  78C    basis set group =>   3
Atom  79C    basis set group =>   3
Atom  80C    basis set group =>   3
Atom  81C    basis set group =>   3
Atom  82C    basis set group =>   3
Atom  83O    basis set group =>   4
Atom  84C    basis set group =>   3
Atom  85C    basis set group =>   3
Atom  86C    basis set group =>   3
Atom  87N    basis set group =>   2
Atom  88N    basis set group =>   2
Atom  89Cl   basis set group =>   5
Atom  90Cl   basis set group =>   5
Atom  91H    basis set group =>   6
Atom  92H    basis set group =>   6
Atom  93H    basis set group =>   6
Atom  94H    basis set group =>   6
Atom  95H    basis set group =>   6
Atom  96H    basis set group =>   6
Atom  97H    basis set group =>   6
Atom  98H    basis set group =>   6
Atom  99H    basis set group =>   6
Atom 100H    basis set group =>   6
Atom 101H    basis set group =>   6
Atom 102H    basis set group =>   6
Atom 103H    basis set group =>   6
Atom 104H    basis set group =>   6
Atom 105H    basis set group =>   6
Atom 106H    basis set group =>   6
Atom 107H    basis set group =>   6
Atom 108H    basis set group =>   6
Atom 109H    basis set group =>   6
Atom 110H    basis set group =>   6
Atom 111H    basis set group =>   6
Atom 112H    basis set group =>   6
Atom 113H    basis set group =>   6
Atom 114H    basis set group =>   6
Atom 115H    basis set group =>   6
Atom 116H    basis set group =>   6
Atom 117H    basis set group =>   6
Atom 118H    basis set group =>   6
Atom 119H    basis set group =>   6
Atom 120H    basis set group =>   6
Atom 121H    basis set group =>   6
Atom 122H    basis set group =>   6
Atom 123H    basis set group =>   6
Atom 124H    basis set group =>   6
Atom 125H    basis set group =>   6
Atom 126H    basis set group =>   6
Atom 127H    basis set group =>   6
Atom 128H    basis set group =>   6
Atom 129H    basis set group =>   6
Atom 130H    basis set group =>   6
Atom 131H    basis set group =>   6
Atom 132H    basis set group =>   6
Atom 133H    basis set group =>   6
Atom 134H    basis set group =>   6
Atom 135H    basis set group =>   6
Atom 136H    basis set group =>   6
Atom 137H    basis set group =>   6
Atom 138H    basis set group =>   6
Atom 139H    basis set group =>   6
Atom 140H    basis set group =>   6
Atom 141H    basis set group =>   6
Atom 142H    basis set group =>   6
Atom 143H    basis set group =>   6
Atom 144H    basis set group =>   6
Atom 145H    basis set group =>   6
Atom 146H    basis set group =>   6
Atom 147H    basis set group =>   6
Atom 148H    basis set group =>   6
Atom 149H    basis set group =>   6
Atom 150H    basis set group =>   6
Atom 151H    basis set group =>   6
Atom 152H    basis set group =>   6
Atom 153H    basis set group =>   6
Atom 154H    basis set group =>   6
---------------------------------
AUXILIARY/J BASIS SET INFORMATION
---------------------------------
There are 6 groups of distinct atoms

 Group   1 Type S   : 14s5p5d2f1g contracted to 8s4p3d1f1g pattern {71111111/2111/311/2/1}
 Group   2 Type N   : 12s5p4d2f1g contracted to 6s4p3d1f1g pattern {711111/2111/211/2/1}
 Group   3 Type C   : 12s5p4d2f1g contracted to 6s4p3d1f1g pattern {711111/2111/211/2/1}
 Group   4 Type O   : 12s5p4d2f1g contracted to 6s4p3d1f1g pattern {711111/2111/211/2/1}
 Group   5 Type Cl  : 14s5p5d2f1g contracted to 8s4p3d1f1g pattern {71111111/2111/311/2/1}
 Group   6 Type H   : 5s2p1d contracted to 3s1p1d pattern {311/2/1}

Atom   0S    basis set group =>   1
Atom   1N    basis set group =>   2
Atom   2C    basis set group =>   3
Atom   3C    basis set group =>   3
Atom   4N    basis set group =>   2
Atom   5C    basis set group =>   3
Atom   6C    basis set group =>   3
Atom   7C    basis set group =>   3
Atom   8C    basis set group =>   3
Atom   9C    basis set group =>   3
Atom  10C    basis set group =>   3
Atom  11C    basis set group =>   3
Atom  12C    basis set group =>   3
Atom  13C    basis set group =>   3
Atom  14S    basis set group =>   1
Atom  15C    basis set group =>   3
Atom  16C    basis set group =>   3
Atom  17C    basis set group =>   3
Atom  18C    basis set group =>   3
Atom  19C    basis set group =>   3
Atom  20S    basis set group =>   1
Atom  21C    basis set group =>   3
Atom  22C    basis set group =>   3
Atom  23C    basis set group =>   3
Atom  24S    basis set group =>   1
Atom  25C    basis set group =>   3
Atom  26C    basis set group =>   3
Atom  27C    basis set group =>   3
Atom  28C    basis set group =>   3
Atom  29C    basis set group =>   3
Atom  30S    basis set group =>   1
Atom  31C    basis set group =>   3
Atom  32C    basis set group =>   3
Atom  33C    basis set group =>   3
Atom  34C    basis set group =>   3
Atom  35C    basis set group =>   3
Atom  36C    basis set group =>   3
Atom  37C    basis set group =>   3
Atom  38C    basis set group =>   3
Atom  39C    basis set group =>   3
Atom  40C    basis set group =>   3
Atom  41C    basis set group =>   3
Atom  42O    basis set group =>   4
Atom  43C    basis set group =>   3
Atom  44C    basis set group =>   3
Atom  45N    basis set group =>   2
Atom  46N    basis set group =>   2
Atom  47Cl   basis set group =>   5
Atom  48Cl   basis set group =>   5
Atom  49C    basis set group =>   3
Atom  50C    basis set group =>   3
Atom  51C    basis set group =>   3
Atom  52C    basis set group =>   3
Atom  53C    basis set group =>   3
Atom  54C    basis set group =>   3
Atom  55C    basis set group =>   3
Atom  56C    basis set group =>   3
Atom  57C    basis set group =>   3
Atom  58C    basis set group =>   3
Atom  59C    basis set group =>   3
Atom  60C    basis set group =>   3
Atom  61C    basis set group =>   3
Atom  62C    basis set group =>   3
Atom  63C    basis set group =>   3
Atom  64C    basis set group =>   3
Atom  65C    basis set group =>   3
Atom  66C    basis set group =>   3
Atom  67C    basis set group =>   3
Atom  68C    basis set group =>   3
Atom  69C    basis set group =>   3
Atom  70C    basis set group =>   3
Atom  71C    basis set group =>   3
Atom  72C    basis set group =>   3
Atom  73C    basis set group =>   3
Atom  74C    basis set group =>   3
Atom  75C    basis set group =>   3
Atom  76C    basis set group =>   3
Atom  77C    basis set group =>   3
Atom  78C    basis set group =>   3
Atom  79C    basis set group =>   3
Atom  80C    basis set group =>   3
Atom  81C    basis set group =>   3
Atom  82C    basis set group =>   3
Atom  83O    basis set group =>   4
Atom  84C    basis set group =>   3
Atom  85C    basis set group =>   3
Atom  86C    basis set group =>   3
Atom  87N    basis set group =>   2
Atom  88N    basis set group =>   2
Atom  89Cl   basis set group =>   5
Atom  90Cl   basis set group =>   5
Atom  91H    basis set group =>   6
Atom  92H    basis set group =>   6
Atom  93H    basis set group =>   6
Atom  94H    basis set group =>   6
Atom  95H    basis set group =>   6
Atom  96H    basis set group =>   6
Atom  97H    basis set group =>   6
Atom  98H    basis set group =>   6
Atom  99H    basis set group =>   6
Atom 100H    basis set group =>   6
Atom 101H    basis set group =>   6
Atom 102H    basis set group =>   6
Atom 103H    basis set group =>   6
Atom 104H    basis set group =>   6
Atom 105H    basis set group =>   6
Atom 106H    basis set group =>   6
Atom 107H    basis set group =>   6
Atom 108H    basis set group =>   6
Atom 109H    basis set group =>   6
Atom 110H    basis set group =>   6
Atom 111H    basis set group =>   6
Atom 112H    basis set group =>   6
Atom 113H    basis set group =>   6
Atom 114H    basis set group =>   6
Atom 115H    basis set group =>   6
Atom 116H    basis set group =>   6
Atom 117H    basis set group =>   6
Atom 118H    basis set group =>   6
Atom 119H    basis set group =>   6
Atom 120H    basis set group =>   6
Atom 121H    basis set group =>   6
Atom 122H    basis set group =>   6
Atom 123H    basis set group =>   6
Atom 124H    basis set group =>   6
Atom 125H    basis set group =>   6
Atom 126H    basis set group =>   6
Atom 127H    basis set group =>   6
Atom 128H    basis set group =>   6
Atom 129H    basis set group =>   6
Atom 130H    basis set group =>   6
Atom 131H    basis set group =>   6
Atom 132H    basis set group =>   6
Atom 133H    basis set group =>   6
Atom 134H    basis set group =>   6
Atom 135H    basis set group =>   6
Atom 136H    basis set group =>   6
Atom 137H    basis set group =>   6
Atom 138H    basis set group =>   6
Atom 139H    basis set group =>   6
Atom 140H    basis set group =>   6
Atom 141H    basis set group =>   6
Atom 142H    basis set group =>   6
Atom 143H    basis set group =>   6
Atom 144H    basis set group =>   6
Atom 145H    basis set group =>   6
Atom 146H    basis set group =>   6
Atom 147H    basis set group =>   6
Atom 148H    basis set group =>   6
Atom 149H    basis set group =>   6
Atom 150H    basis set group =>   6
Atom 151H    basis set group =>   6
Atom 152H    basis set group =>   6
Atom 153H    basis set group =>   6
Atom 154H    basis set group =>   6
------------------------------------------------------------------------------
                           ORCA GTO INTEGRAL CALCULATION
                           -- RI-GTO INTEGRALS CHOSEN --
------------------------------------------------------------------------------

                         BASIS SET STATISTICS AND STARTUP INFO

Gaussian basis set:
 # of primitive gaussian shells          ... 2267
 # of primitive gaussian functions       ... 4851
 # of contracted shells                  ... 1275
 # of contracted basis functions         ... 3259
 Highest angular momentum                ...    3
 Maximum contraction depth               ...    7
Auxiliary gaussian basis set:
 # of primitive gaussian shells          ... 2723
 # of primitive gaussian functions       ... 7457
 # of contracted shells                  ... 1703
 # of contracted aux-basis functions     ... 5181
 Highest angular momentum                ...    4
 Maximum contraction depth               ...    7
Ratio of auxiliary to basis functions    ...  1.59
Integral package used                  ... LIBINT
 One Electron integrals                  ... done
 Ordering auxiliary basis shells         ... done
 Integral threshhold             Thresh  ...  2.500e-11
 Primitive cut-off               TCut    ...  2.500e-12
 Pre-screening matrix                    ... done
 Shell pair data                         ... 
 Ordering of the shell pairs             ... done (   0.056 sec) 225811 of 813450 pairs
 Determination of significant pairs      ... done (   0.002 sec)
 Creation of shell pair data             ... done (   0.027 sec)
 Storage of shell pair data              ... done (   0.040 sec)
 Shell pair data done in (   0.125 sec)
 Computing two index integrals           ... done
 Cholesky decomposition of the V-matrix  ... done


Timings:
 Total evaluation time                   ...  12.699 sec (  0.212 min)
 One electron matrix time                ...   4.641 sec (  0.077 min) = 36.5%
 Schwartz matrix evaluation time         ...   6.169 sec (  0.103 min) = 48.6%
 Two index repulsion integral time       ...   0.694 sec (  0.012 min) =  5.5%
 Cholesky decomposition of V             ...   1.050 sec (  0.017 min) =  8.3%
 Three index repulsion integral time     ...   0.000 sec (  0.000 min) =  0.0%

-------------------------------------------------------------------------------
                                 ORCA SCF
-------------------------------------------------------------------------------

------------
SCF SETTINGS
------------
Hamiltonian:
 Density Functional     Method          .... DFT(GTOs)
 Exchange Functional    Exchange        .... B88
   X-Alpha parameter    XAlpha          ....  0.666667
   Becke's b parameter  XBeta           ....  0.004200
 Correlation Functional Correlation     .... LYP
 LDA part of GGA corr.  LDAOpt          .... VWN-5
 Gradients option       PostSCFGGA      .... off
 Hybrid DFT is turned on
   Fraction HF Exchange ScalHFX         ....  0.200000
   Scaling of DF-GGA-X  ScalDFX         ....  0.720000
   Scaling of DF-GGA-C  ScalDFC         ....  0.810000
   Scaling of DF-LDA-C  ScalLDAC        ....  1.000000
   Perturbative correction              ....  0.000000
   Density functional embedding theory  .... OFF
   NL short-range parameter             ....  4.800000
 RI-approximation to the Coulomb term is turned on
   Number of auxiliary basis functions  .... 5181
   RIJ-COSX (HFX calculated with COS-X)).... on


General Settings:
 Integral files         IntName         .... BTCIC-4Cl
 Hartree-Fock type      HFTyp           .... RHF
 Total Charge           Charge          ....    0
 Multiplicity           Mult            ....    1
 Number of Electrons    NEL             ....  714
 Basis Dimension        Dim             .... 3259
 Nuclear Repulsion      ENuc            ....  16991.8824760728 Eh

Convergence Acceleration:
 DIIS                   CNVDIIS         .... on
   Start iteration      DIISMaxIt       ....    12
   Startup error        DIISStart       ....  0.200000
   # of expansion vecs  DIISMaxEq       ....     5
   Bias factor          DIISBfac        ....   1.050
   Max. coefficient     DIISMaxC        ....  10.000
 Newton-Raphson         CNVNR           .... off
 SOSCF                  CNVSOSCF        .... on
   Start iteration      SOSCFMaxIt      ....   150
   Startup grad/error   SOSCFStart      ....  0.003300
 Level Shifting         CNVShift        .... on
   Level shift para.    LevelShift      ....    0.2500
   Turn off err/grad.   ShiftErr        ....    0.0010
 Zerner damping         CNVZerner       .... off
 Static damping         CNVDamp         .... on
   Fraction old density DampFac         ....    0.7000
   Max. Damping (<1)    DampMax         ....    0.9800
   Min. Damping (>=0)   DampMin         ....    0.0000
   Turn off err/grad.   DampErr         ....    0.1000
 Fernandez-Rico         CNVRico         .... off

SCF Procedure:
 Maximum # iterations   MaxIter         ....   125
 SCF integral mode      SCFMode         .... Direct
   Integral package                     .... LIBINT
 Reset frequency        DirectResetFreq ....    20
 Integral Threshold     Thresh          ....  2.500e-11 Eh
 Primitive CutOff       TCut            ....  2.500e-12 Eh

Convergence Tolerance:
 Convergence Check Mode ConvCheckMode   .... Total+1el-Energy
 Convergence forced     ConvForced      .... 1
 Energy Change          TolE            ....  1.000e-08 Eh
 1-El. energy change                    ....  1.000e-05 Eh
 Orbital Gradient       TolG            ....  1.000e-05
 Orbital Rotation angle TolX            ....  1.000e-05
 DIIS Error             TolErr          ....  5.000e-07


Diagonalization of the overlap matrix:
Smallest eigenvalue                        ... 2.890e-06
Time for diagonalization                   ...    8.554 sec
Threshold for overlap eigenvalues          ... 1.000e-08
Number of eigenvalues below threshold      ... 0
Time for construction of square roots      ...    2.287 sec
Total time needed                          ...   10.869 sec

-------------------
DFT GRID GENERATION
-------------------

General Integration Accuracy     IntAcc      ...  4.670
Radial Grid Type                 RadialGrid  ... Gauss-Chebyshev
Angular Grid (max. acc.)         AngularGrid ... Lebedev-302
Angular grid pruning method      GridPruning ... 3 (G Style)
Weight generation scheme         WeightScheme... Becke
Basis function cutoff            BFCut       ...    1.0000e-11
Integration weight cutoff        WCut        ...    1.0000e-14
Grids for H and He will be reduced by one unit

# of grid points (after initial pruning)     ... 787782 (   3.0 sec)
# of grid points (after weights+screening)   ... 658887 (  44.3 sec)
nearest neighbour list constructed           ...    0.0 sec
Grid point re-assignment to atoms done       ...    0.1 sec
Grid point division into batches done        ...    2.2 sec
Reduced shell lists constructed in   27.9 sec

Total number of grid points                  ...   658887
Total number of batches                      ...    10379
Average number of points per batch           ...       63
Average number of grid points per atom       ...     4251
Average number of shells per batch           ...   188.52 (14.79%)
Average number of basis functions per batch  ...   447.87 (13.74%)
Average number of large shells per batch     ...   109.06 (57.85%)
Average number of large basis fcns per batch ...   264.73 (59.11%)
Maximum spatial batch extension              ...  24.46, 21.01, 21.24 au
Average spatial batch extension              ...   2.10,  2.07,  2.02 au

Time for grid setup =   75.286 sec

------------------------------
INITIAL GUESS: MODEL POTENTIAL
------------------------------
Loading Hartree-Fock densities                     ... done
Calculating cut-offs                               ... done
Setting up the integral package                    ... done
Initializing the effective Hamiltonian             ... done
Starting the Coulomb interaction                   ... done (  59.2 sec)
Reading the grid                                   ... done
Mapping shells                                     ... done
Starting the XC term evaluation                    ... done (  43.3 sec)
  promolecular density results
     # of electrons  =    713.964994723
     EX              =   -691.052463199
     EC              =    -25.388455856
     EX+EC           =   -716.440919055
Transforming the Hamiltonian                       ... done (   2.2 sec)
Diagonalizing the Hamiltonian                      ... done (   8.4 sec)
Back transforming the eigenvectors                 ... done (   1.0 sec)
Now organizing SCF variables                       ... done
                      ------------------
                      INITIAL GUESS DONE ( 191.4 sec)
                      ------------------
--------------------
COSX GRID GENERATION
--------------------

General Integration Accuracy     IntAcc      ...  3.340
Radial Grid Type                 RadialGrid  ... Gauss-Chebyshev
Angular Grid (max. acc.)         AngularGrid ... Lebedev-50
Angular grid pruning method      GridPruning ... 3 (G Style)
Weight generation scheme         WeightScheme... Becke
Basis function cutoff            BFCut       ...    1.0000e-11
Integration weight cutoff        WCut        ...    1.0000e-14
Grids for H and He will be reduced by one unit

# of grid points (after initial pruning)     ...  74310 (   0.1 sec)
# of grid points (after weights+screening)   ...  64972 (   4.1 sec)
nearest neighbour list constructed           ...    0.0 sec
Grid point re-assignment to atoms done       ...    0.0 sec
Grid point division into batches done        ...    0.0 sec
Reduced shell lists constructed in    3.8 sec

Total number of grid points                  ...    64972
Total number of batches                      ...     1090
Average number of points per batch           ...       59
Average number of grid points per atom       ...      419
Average number of shells per batch           ...   228.71 (17.94%)
Average number of basis functions per batch  ...   550.35 (16.89%)
Average number of large shells per batch     ...   134.18 (58.67%)
Average number of large basis fcns per batch ...   331.30 (60.20%)
Maximum spatial batch extension              ...  25.32, 25.62, 20.57 au
Average spatial batch extension              ...   4.73,  4.70,  4.14 au

Overlap Fitting                  UseSFitting ... on
Constructing numerical overlap ... done (      3.6 sec)
Inverting numerical overlap    ... done (      0.7 sec)
Obtaining analytic overlap     ... done (      0.0 sec)
Final contraction and storage  ... done (      1.1 sec)


General Integration Accuracy     IntAcc      ...  3.670
Radial Grid Type                 RadialGrid  ... Gauss-Chebyshev
Angular Grid (max. acc.)         AngularGrid ... Lebedev-50
Angular grid pruning method      GridPruning ... 3 (G Style)
Weight generation scheme         WeightScheme... Becke
Basis function cutoff            BFCut       ...    1.0000e-11
Integration weight cutoff        WCut        ...    1.0000e-14
Grids for H and He will be reduced by one unit

# of grid points (after initial pruning)     ...  93578 (   0.2 sec)
# of grid points (after weights+screening)   ...  81467 (   5.2 sec)
nearest neighbour list constructed           ...    0.0 sec
Grid point re-assignment to atoms done       ...    0.0 sec
Grid point division into batches done        ...    0.0 sec
Reduced shell lists constructed in    4.8 sec

Total number of grid points                  ...    81467
Total number of batches                      ...     1350
Average number of points per batch           ...       60
Average number of grid points per atom       ...      526
Average number of shells per batch           ...   223.39 (17.52%)
Average number of basis functions per batch  ...   536.52 (16.46%)
Average number of large shells per batch     ...   130.13 (58.25%)
Average number of large basis fcns per batch ...   320.07 (59.66%)
Maximum spatial batch extension              ...  23.85, 23.85, 21.25 au
Average spatial batch extension              ...   4.34,  4.29,  3.85 au

Overlap Fitting                  UseSFitting ... on
Constructing numerical overlap ... done (      4.4 sec)
Inverting numerical overlap    ... done (      0.7 sec)
Obtaining analytic overlap     ... done (      0.0 sec)
Final contraction and storage  ... done (      1.1 sec)


General Integration Accuracy     IntAcc      ...  4.010
Radial Grid Type                 RadialGrid  ... Gauss-Chebyshev
Angular Grid (max. acc.)         AngularGrid ... Lebedev-110
Angular grid pruning method      GridPruning ... 3 (G Style)
Weight generation scheme         WeightScheme... Becke
Basis function cutoff            BFCut       ...    1.0000e-11
Integration weight cutoff        WCut        ...    1.0000e-14
Grids for H and He will be reduced by one unit

# of grid points (after initial pruning)     ... 177820 (   0.4 sec)
# of grid points (after weights+screening)   ... 153936 (  10.0 sec)
[...]
DAVIDSON-DIAGONALIZATION
------------------------

Dimension of the eigenvalue problem            ... 667460
Number of roots to be determined               ...      3
Maximum size of the expansion space            ...     15
Maximum number of iterations                   ...    100
Convergence tolerance for the residual         ...    2.500e-07
Convergence tolerance for the energies         ...    2.500e-07
Orthogonality tolerance                        ...    1.000e-14
Level Shift                                    ...    0.000e+00
Constructing the preconditioner                ... o.k.
Building the initial guess                     ... o.k.
Number of trial vectors determined             ...     15


                       ****Iteration    0****
                <<< Triplet sigma vectors requested >>>

   Memory handling for direct AO based CIS:
   Memory per vector needed      ...   316 MB
   Memory needed                 ...  2844 MB
   Memory available              ...  2000 MB
   Number of vectors per batch   ...     6
   Number of batches             ...     2
   Time for densities:    26.141
   Time for K (COSX):  5530.689
   Time for XC-Integration:    70.295
   Time for Sigma-Completion:   956.199
   Time for densities:    15.947
   Time for K (COSX):  5589.598
   Time for XC-Integration:    40.723
   Time for Sigma-Completion:   546.310
   Size of expansion space: 9
   Lowest Energy          :     0.041226527873
   Maximum Energy change  :     0.064755916478 (vector 2)
   Maximum residual norm  :     0.000579956068

                       ****Iteration    1****
   Time for densities:    20.605
   Time for K (COSX):  6348.611
   Time for XC-Integration:    40.785
   Time for Sigma-Completion:   552.877
   Size of expansion space: 12
   Lowest Energy          :     0.038013181733
   Maximum Energy change  :     0.003214137506 (vector 1)
   Maximum residual norm  :     0.000036837270

                       ****Iteration    2****
   Time for densities:    20.493
   Time for K (COSX):  6484.894
   Time for XC-Integration:    42.876
   Time for Sigma-Completion:   533.634
   Size of expansion space: 15
   Lowest Energy          :     0.037918529533
   Maximum Energy change  :     0.000156859152 (vector 2)
   Maximum residual norm  :     0.000001740945
   Rebuilding the expansion space

                       ****Iteration    3****
   Time for densities:    39.879
   Time for K (COSX):  4932.926
   Time for XC-Integration:    82.513
   Time for Sigma-Completion:  1023.946
   Size of expansion space: 6
   Lowest Energy          :     0.037916082270
   Maximum Energy change  :     0.000008160100 (vector 2)
   Maximum residual norm  :     0.000000165305

      *** CONVERGENCE OF RESIDUAL NORM REACHED ***

Storing the converged CI vectors               ... BTCIC-4Cl.cis3

                 *** DAVIDSON DONE ***

------------------------------------
TD-DFT/TDA EXCITED STATES (TRIPLETS)
------------------------------------

the weight of the individual excitations are printed if larger than 1.0e-02

STATE  1:  E=   0.037916 au      1.032 eV     8321.6 cm**-1
   355a -> 358a  :     0.036039 (c= -0.18983984)
   356a -> 357a  :     0.918633 (c= -0.95845319)

STATE  2:  E=   0.051250 au      1.395 eV    11248.0 cm**-1
   354a -> 358a  :     0.012065 (c= -0.10983881)
   355a -> 357a  :     0.395883 (c=  0.62919201)
   355a -> 359a  :     0.022395 (c= -0.14964868)
   356a -> 358a  :     0.518195 (c=  0.71985748)
   356a -> 360a  :     0.018794 (c= -0.13709281)

STATE  3:  E=   0.061709 au      1.679 eV    13543.5 cm**-1
   352a -> 357a  :     0.010696 (c=  0.10342077)
   354a -> 357a  :     0.087626 (c=  0.29601758)
   355a -> 358a  :     0.209385 (c= -0.45758558)
   356a -> 359a  :     0.613551 (c=  0.78329516)
   356a -> 361a  :     0.046542 (c= -0.21573552)

------------------------------
TD-DFT/TDA SPIN-ORBIT COUPLING
------------------------------

Calculating the spin-orbit integrals:             

Loading the effective charges         ... done
Entering the SOC calc. section        ... 
------------------------------------------------------------------------------
                         ORCA SPIN-ORBIT COUPLING CALCULATION
------------------------------------------------------------------------------

GBW file                                    ... BTCIC-4Cl.gbw
Input density                               ... BTCIC-4Cl.cisp0
Output integrals                            ... BTCIC-4Cl.cis
Operator type                               ... Mean-field/Effective potential
   One-Electron Terms                       ... 1
   Coulomb Contribution                     ... 2
   Exchange Contribution                    ... 3
   Correlation Contribution                 ... 0
   Maximum number of centers                ... 4
Setting up the integration grid             ... done
Evaluating density on the grid              ... (NumEl=  713.998202) done
Evaluating Coulomb term semi-analytically   ... done
One-Center Exchange (+SOO)                  ... done
Evaluating the spin-orbit operator          ... done
Transforming the SOC integrals              ... done
Constructing the SOC matrix:                ... done
Diagonalizing the SOC matrix:               ... done

      --------------------------------------------------------------------------------
                      CALCULATED SOCME BETWEEN TRIPLETS AND SINGLETS                  
      --------------------------------------------------------------------------------
           Root                          <T|HSO|S>  (Re, Im) cm-1                     
         T      S             Z                     X                     Y           
      --------------------------------------------------------------------------------
         1      0    (   0.00 ,    0.13 )    (   0.00 ,   -0.15 )    (  -0.00 ,   -0.23 )
         1      1    (   0.00 ,   -0.07 )    (   0.00 ,   -0.03 )    (  -0.00 ,    0.00 )
         1      2    (   0.00 ,   -0.00 )    (   0.00 ,   -0.12 )    (  -0.00 ,    0.73 )
         1      3    (   0.00 ,   -0.86 )    (   0.00 ,   -0.32 )    (  -0.00 ,    0.04 )
         2      0    (   0.00 ,   -0.95 )    (   0.00 ,   -0.33 )    (  -0.00 ,    0.02 )
         2      1    (   0.00 ,   -0.05 )    (   0.00 ,    0.23 )    (  -0.00 ,   -0.59 )
         2      2    (   0.00 ,    0.22 )    (   0.00 ,    0.08 )    (  -0.00 ,   -0.01 )
         2      3    (   0.00 ,   -0.00 )    (   0.00 ,    0.09 )    (  -0.00 ,   -0.38 )
         3      0    (   0.00 ,    0.04 )    (   0.00 ,   -0.01 )    (  -0.00 ,   -0.32 )
         3      1    (   0.00 ,   -0.66 )    (   0.00 ,   -0.24 )    (  -0.00 ,    0.03 )
         3      2    (   0.00 ,   -0.01 )    (   0.00 ,    0.02 )    (  -0.00 ,   -0.12 )
         3      3    (   0.00 ,    0.09 )    (   0.00 ,    0.03 )    (  -0.00 ,   -0.00 )

SOC stabilization of the ground state:  -0.0001 cm-1
Eigenvalues of the SOC matrix:

   State:        cm-1         eV
     0:          0.00         0.0000
     1:       8321.62         1.0317
     2:       8321.62         1.0317
     3:       8321.62         1.0317
     4:      11248.05         1.3946
     5:      11248.05         1.3946
     6:      11248.05         1.3946
     7:      13109.62         1.6254
     8:      13543.55         1.6792
     9:      13543.55         1.6792
    10:      13543.55         1.6792
    11:      15733.07         1.9507
    12:      17354.11         2.1516

The threshold for printing is 0.0100
Eigenvectors of the SOC matrix:

             E(cm-1)  Weight      Real         Imag     : Root  Spin  Ms
 STATE  0:      0.00
                      1.00000     -0.99970     -0.02437 : 0     0     0
 STATE  1:   8321.62
                      0.09755      0.01883      0.31176 : 1     1     0
                      0.45123     -0.09478     -0.66501 : 1     1    -1
                      0.45123     -0.01405      0.67159 : 1     1     1
 STATE  2:   8321.62
                      0.02329      0.15206     -0.01309 : 1     1     0
                      0.48835     -0.08110     -0.69410 : 1     1    -1
                      0.48835     -0.03871     -0.69775 : 1     1     1
 STATE  3:   8321.62
                      0.87916     -0.91654     -0.19778 : 1     1     0
                      0.06042     -0.20123     -0.14116 : 1     1    -1
                      0.06042      0.24154     -0.04562 : 1     1     1
 STATE  4:  11248.05
                      0.01008     -0.09839      0.02006 : 2     1     0
                      0.49496      0.38111      0.59137 : 2     1    -1
                      0.49496     -0.11918      0.69336 : 2     1     1
 STATE  5:  11248.05
                      0.08421      0.28386     -0.06030 : 2     1     0
                      0.45789     -0.55414      0.38835 : 2     1    -1
                      0.45789      0.66416      0.12956 : 2     1     1
 STATE  6:  11248.05
                      0.90570     -0.93461      0.17947 : 2     1     0
                      0.04715     -0.21076      0.05223 : 2     1    -1
                      0.04715      0.21512     -0.02954 : 2     1     1
 STATE  7:  13109.62
                      1.00000      0.10566     -0.99440 : 1     0     0
 STATE  8:  13543.55
                      0.49634     -0.66236      0.24003 : 3     1    -1
                      0.49634     -0.70451      0.00000 : 3     1     1
 STATE  9:  13543.55
                      0.10658     -0.31973      0.06598 : 3     1     0
                      0.44671      0.61376     -0.26459 : 3     1    -1
                      0.44671     -0.66836      0.00000 : 3     1     1
 STATE 10:  13543.55
                      0.88609     -0.93914     -0.06410 : 3     1     0
                      0.05695     -0.23643     -0.03242 : 3     1    -1
                      0.05695      0.23865      0.00000 : 3     1     1
 STATE 11:  15733.07
                      1.00000      0.98302     -0.18348 : 2     0     0
 STATE 12:  17354.11
                      1.00000      0.15963     -0.98718 : 3     0     0

-----------------------------
TD-DFT/TDA-EXCITATION SPECTRA
-----------------------------

Center of mass = ( -2.2457,  0.0543, -0.4946)
Calculating the Dipole integrals                  ... done
Transforming integrals                            ... done
Calculating the Linear Momentum integrals         ... done
Transforming integrals                            ... done
Calculating angular momentum integrals            ... done
Transforming integrals                            ... done

-----------------------------------------------------------------------------
         ABSORPTION SPECTRUM VIA TRANSITION ELECTRIC DIPOLE MOMENTS
-----------------------------------------------------------------------------
State   Energy    Wavelength  fosc         T2        TX        TY        TZ  
        (cm-1)      (nm)                 (au**2)    (au)      (au)      (au) 
-----------------------------------------------------------------------------
   1   13109.6    762.8   3.853544455  96.77112  -5.59368  -7.87258   1.87197
   2   15733.1    635.6   0.002350534   0.04918  -0.07391  -0.00941  -0.20889
   3   17354.1    576.2   0.176380338   3.34598   1.16352   1.35624  -0.39091
   4    8321.6   1201.7   spin forbidden (mult=3)
   5   11248.0    889.0   spin forbidden (mult=3)
   6   13543.5    738.4   spin forbidden (mult=3)

-----------------------------------------------------------------------------
         ABSORPTION SPECTRUM VIA TRANSITION VELOCITY DIPOLE MOMENTS
-----------------------------------------------------------------------------
State   Energy    Wavelength   fosc        P2         PX        PY        PZ  
        (cm-1)      (nm)                 (au**2)     (au)      (au)      (au) 
-----------------------------------------------------------------------------
   1   13109.6    762.8   1.013316224   0.09079   0.17489   0.23842  -0.05797
   2   15733.1    635.6   0.000810828   0.00009  -0.00227   0.00035  -0.00905
   3   17354.1    576.2   0.074970047   0.00889  -0.04061  -0.08409   0.01311
   4    8321.6   1201.7   spin forbidden (mult=3)
   5   11248.0    889.0   spin forbidden (mult=3)
   6   13543.5    738.4   spin forbidden (mult=3)

-------------------------------------------------------------------
                             CD SPECTRUM
-------------------------------------------------------------------
State  Energy     Wavelength     R         MX        MY        MZ   
       (cm-1)       (nm)     (1e40*cgs)   (au)      (au)      (au)  
-------------------------------------------------------------------
   1   13109.6    762.8    -18.26572  -0.79115   0.63780   0.29752
   2   15733.1    635.6     -7.36587   0.02163  -0.00019   0.06715
   3   17354.1    576.2      1.32711   0.28480  -0.26937  -0.09406
   4    8321.6   1201.7 spin forbidden
   5   11248.0    889.0 spin forbidden
   6   13543.5    738.4 spin forbidden

-------------------------------------------
SOC CORRECTED TD-DFT/TDA-EXCITATION SPECTRA
--------------------------------------------

-----------------------------------------------------------------------------
  SOC CORRECTED ABSORPTION SPECTRUM VIA TRANSITION ELECTRIC DIPOLE MOMENTS*  
-----------------------------------------------------------------------------
State   Energy  Wavelength   fosc         T2         TX        TY        TZ  
        (cm-1)    (nm)                  (au**2)     (au)      (au)      (au) 
-----------------------------------------------------------------------------
   1    8321.6   1201.7   0.000000000   0.00000   0.00000   0.00000   0.00000
   2    8321.6   1201.7   0.000000000   0.00000   0.00000   0.00000   0.00000
   3    8321.6   1201.7   0.000000000   0.00000   0.00003   0.00005   0.00001
   4   11248.0    889.0   0.000000379   0.00001   0.00189   0.00267   0.00063
   5   11248.0    889.0   0.000000000   0.00000   0.00006   0.00007   0.00002
   6   11248.0    889.0   0.000000000   0.00000   0.00004   0.00007   0.00005
   7   13109.6    762.8   3.853534003  96.77087   5.59368   7.87257   1.87197
   8   13543.5    738.4   0.000000002   0.00000   0.00013   0.00017   0.00002
   9   13543.5    738.4   0.000000000   0.00000   0.00001   0.00001   0.00003
  10   13543.5    738.4   0.000010065   0.00024   0.00889   0.01252   0.00296
  11   15733.1    635.6   0.002350528   0.04918   0.07391   0.00941   0.20889
  12   17354.1    576.2   0.176380325   3.34598   1.16352   1.35624   0.39091

-----------------------------------------------------------------------------
  SOC CORRECTED ABSORPTION SPECTRUM VIA TRANSITION VELOCITY DIPOLE MOMENTS*  
-----------------------------------------------------------------------------
State   Energy  Wavelength   fosc         P2         PX        PY        PZ  
        (cm-1)    (nm)                  (au**2)     (au)      (au)      (au) 
-----------------------------------------------------------------------------
   1    8321.6   1201.7   0.000000000   0.00000   0.00000   0.00000   0.00000
   2    8321.6   1201.7   0.000000000   0.00000   0.00000   0.00000   0.00000
   3    8321.6   1201.7   0.000000001   0.00000   0.00000   0.00001   0.00000
   4   11248.0    889.0   0.000000120   0.00000   0.00006   0.00008   0.00002
   5   11248.0    889.0   0.000000000   0.00000   0.00000   0.00000   0.00000
   6   11248.0    889.0   0.000000000   0.00000   0.00000   0.00000   0.00000
   7   13109.6    762.8   1.013313557   0.09079   0.17489   0.23842   0.05797
   8   13543.5    738.4   0.000000000   0.00000   0.00000   0.00001   0.00000
   9   13543.5    738.4   0.000000000   0.00000   0.00000   0.00000   0.00000
  10   13543.5    738.4   0.000002540   0.00000   0.00028   0.00038   0.00009
  11   15733.1    635.6   0.000810828   0.00009   0.00227   0.00035   0.00905
  12   17354.1    576.2   0.074970041   0.00889   0.04061   0.08409   0.01311

-------------------------------------------------------------------
                    SOC CORRECTED CD SPECTRUM*                     
-------------------------------------------------------------------
State   Energy Wavelength       R         MX        MY        MZ   
        (cm-1)   (nm)       (1e40*sgs)   (au)      (au)      (au)  
-------------------------------------------------------------------
   1    8321.6   1201.7      0.00000   0.00000   0.00000   0.00000
   2    8321.6   1201.7      0.00000   0.00000   0.00000   0.00001
   3    8321.6   1201.7      0.00000   0.00001   0.00002   0.00000
   4   11248.0    889.0      0.00000   0.00025   0.00020   0.00010
   5   11248.0    889.0      0.00000   0.00000   0.00000   0.00000
   6   11248.0    889.0      0.00000   0.00000   0.00000   0.00001
   7   13109.6    762.8     18.26567   0.79115   0.63780   0.29752
   8   13543.5    738.4      0.00000   0.00002   0.00001   0.00001
   9   13543.5    738.4      0.00000   0.00000   0.00000   0.00000
  10   13543.5    738.4      0.00004   0.00129   0.00103   0.00048
  11   15733.1    635.6      7.36586   0.02163   0.00019   0.06715
  12   17354.1    576.2      1.32711   0.28480   0.26937   0.09406

*The X,Y and Z components are the absolute values of the complex numbers

Total run time:   129193.958 sec

           *** ORCA-CIS/TD-DFT FINISHED WITHOUT ERROR ***

---------------------------
SOC CIS/TD-DFT TOTAL ENERGY
---------------------------

    E(SCF)        =  -7167.794042147 Eh
    E(SOC CIS)    =      0.037916081 Eh (SOC Root  1)
    ----------------------------- ---------
    E(tot)        =  -7167.756126066 Eh


-------------------------   --------------------
FINAL SINGLE POINT ENERGY     -7167.756126065767
-------------------------   --------------------


                            ***************************************
                            *     ORCA property calculations      *
                            ***************************************

                                    ---------------------
                                    Active property flags
                                    ---------------------
   (+) Dipole Moment


------------------------------------------------------------------------------
                       ORCA ELECTRIC PROPERTIES CALCULATION
------------------------------------------------------------------------------

Dipole Moment Calculation                       ... on
Quadrupole Moment Calculation                   ... off
Polarizability Calculation                      ... off
GBWName                                         ... BTCIC-4Cl.gbw
Electron density file                           ... BTCIC-4Cl.scfp
The origin for moment calculation is the CENTER OF MASS  = (-2.245687,  0.054315 -0.494582)

-------------
DIPOLE MOMENT
-------------
                                X             Y             Z
Electronic contribution:    -36.96211      -0.54467    -108.17865
Nuclear contribution   :     38.59830       0.55432     113.05847
                        -----------------------------------------
Total Dipole Moment    :      1.63618       0.00964       4.87982
                        -----------------------------------------
Magnitude (a.u.)       :      5.14682
Magnitude (Debye)      :     13.08219



--------------------
Rotational spectrum 
--------------------
 
Rotational constants in cm-1:     0.001506     0.000117     0.000113 
Rotational constants in MHz :    45.134481     3.502773     3.400426 

 Dipole components along the rotational axes: 
x,y,z [a.u.] :     0.011420     5.146791    -0.014129 
x,y,z [Debye]:     0.029027    13.082104    -0.035912 

 

Timings for individual modules:

Sum of individual times         ...   157791.186 sec (=2629.853 min)
GTO integral calculation        ...       12.736 sec (=   0.212 min)   0.0 %
SCF iterations                  ...    28584.263 sec (= 476.404 min)  18.1 %
CIS module                      ...   129194.187 sec (=2153.236 min)  81.9 %
                             ****ORCA TERMINATED NORMALLY****
TOTAL RUN TIME: 1 days 19 hours 49 minutes 53 seconds 480 msec
