
                                 *****************
                                 * O   R   C   A *
                                 *****************

           --- An Ab Initio, DFT and Semiempirical electronic structure package ---

                  #######################################################
                  #                        -***-                        #
                  #          Department of theory and spectroscopy      #
                  #               Directorship: Frank Neese             #
                  #        Max Planck Institute fuer Kohlenforschung    #
                  #                Kaiser Wilhelm Platz 1               #
                  #                 D-45470 Muelheim/Ruhr               #
                  #                      Germany                        #
                  #                                                     #
                  #                  All rights reserved                #
                  #                        -***-                        #
                  #######################################################


                         Program Version 4.2.0 -  RELEASE  -


 With contributions from (in alphabetic order):
   Daniel Aravena         : Magnetic Suceptibility
   Michael Atanasov       : Ab Initio Ligand Field Theory (pilot matlab implementation)
   Alexander A. Auer      : GIAO ZORA, VPT2
   Ute Becker             : Parallelization
   Giovanni Bistoni       : ED, misc. LED, open-shell LED, HFLED
   Martin Brehm           : Molecular dynamics
   Dmytro Bykov           : SCF Hessian
   Vijay G. Chilkuri      : MRCI spin determinant printing, contributions to CSF-ICE
   Dipayan Datta          : RHF DLPNO-CCSD density
   Achintya Kumar Dutta   : EOM-CC, STEOM-CC
   Dmitry Ganyushin       : Spin-Orbit,Spin-Spin,Magnetic field MRCI
   Miquel Garcia          : C-PCM Hessian, Gaussian charge scheme
   Yang Guo               : DLPNO-NEVPT2, CIM, IAO-localization
   Andreas Hansen         : Spin unrestricted coupled pair/coupled cluster methods
   Benjamin Helmich-Paris : CASSCF linear response (MC-RPA)
   Lee Huntington         : MR-EOM, pCC
   Robert Izsak           : Overlap fitted RIJCOSX, COSX-SCS-MP3, EOM
   Christian Kollmar      : KDIIS, OOCD, Brueckner-CCSD(T), CCSD density
   Simone Kossmann        : Meta GGA functionals, TD-DFT gradient, OOMP2, MP2 Hessian
   Martin Krupicka        : AUTO-CI
   Lucas Lang             : DCDCAS
   Dagmar Lenk            : GEPOL surface, SMD
   Dimitrios Liakos       : Extrapolation schemes; Compound Job, initial MDCI parallelization
   Dimitrios Manganas     : Further ROCIS development; embedding schemes
   Dimitrios Pantazis     : SARC Basis sets
   Taras Petrenko         : DFT Hessian,TD-DFT gradient, ASA, ECA, R-Raman, ABS, FL, XAS/XES, NRVS
   Peter Pinski           : DLPNO-MP2, DLPNO-MP2 Gradient
   Christoph Reimann      : Effective Core Potentials
   Marius Retegan         : Local ZFS, SOC
   Christoph Riplinger    : Optimizer, TS searches, QM/MM, DLPNO-CCSD(T), (RO)-DLPNO pert. Triples
   Tobias Risthaus        : Range-separated hybrids, TD-DFT gradient, RPA, STAB
   Michael Roemelt        : Original ROCIS implementation
   Masaaki Saitow         : Open-shell DLPNO-CCSD energy and density
   Barbara Sandhoefer     : DKH picture change effects
   Avijit Sen             : IP-ROCIS
   Kantharuban Sivalingam : CASSCF convergence, NEVPT2, FIC-MRCI
   Bernardo de Souza      : ESD, SOC TD-DFT
   Georgi Stoychev        : AutoAux, RI-MP2 NMR
   Willem Van den Heuvel  : Paramagnetic NMR
   Boris Wezisla          : Elementary symmetry handling
   Frank Wennmohs         : Technical directorship


 We gratefully acknowledge several colleagues who have allowed us to
 interface, adapt or use parts of their codes:
   Stefan Grimme, W. Hujo, H. Kruse,             : VdW corrections, initial TS optimization,
                  C. Bannwarth                     DFT functionals, gCP, sTDA/sTD-DF
   Ed Valeev, F. Pavosevic, A. Kumar             : LibInt (2-el integral package), F12 methods
   Garnet Chan, S. Sharma, J. Yang, R. Olivares  : DMRG
   Ulf Ekstrom                                   : XCFun DFT Library
   Mihaly Kallay                                 : mrcc  (arbitrary order and MRCC methods)
   Andreas Klamt, Michael Diedenhofen            : otool_cosmo (COSMO solvation model)
   Jiri Pittner, Ondrej Demel                    : Mk-CCSD
   Frank Weinhold                                : gennbo (NPA and NBO analysis)
   Christopher J. Cramer and Donald G. Truhlar   : smd solvation model
   Lars Goerigk                                  : TD-DFT with DH, B97 family of functionals
   V. Asgeirsson, H. Jonsson                     : NEB implementation
   FAccTs GmbH                                   : IRC, NEB, NEB-TS, Multilevel, MM, QM/MM, CI optimization
   S Lehtola, MJT Oliveira, MAL Marques          : LibXC Library


 Your calculation uses the libint2 library for the computation of 2-el integrals
 For citations please refer to: http://libint.valeyev.net

 Your ORCA version has been built with support for libXC version: 4.2.3
 For citations please refer to: https://tddft.org/programs/libxc/

 This ORCA versions uses:
   CBLAS   interface :  Fast vector & matrix operations
   LAPACKE interface :  Fast linear algebra routines
   SCALAPACK package :  Parallel linear algebra routines


----- Orbital basis set information -----
Your calculation utilizes the basis: def2-TZVP
   F. Weigend and R. Ahlrichs, Phys. Chem. Chem. Phys. 7, 3297 (2005).

----- AuxJ basis set information -----
Your calculation utilizes the auxiliary basis: def2/J
   F. Weigend, Phys. Chem. Chem. Phys. 8, 1057 (2006).

================================================================================
                                        WARNINGS
                       Please study these warnings very carefully!
================================================================================

INFO   : Checking CIS options ...

WARNING: (CIS/TDDFT): Spin-orbit needs TRIPLETS set to TRUE
  ===> : ajusting flags

WARNING: CIS/ROCIS methods need fully converged wavefunctions
  ===> : Setting SCFConvForced true
         You can overwrite this default with %scf ConvForced false 


INFO   : the flag for use of LIBINT has been found!

================================================================================
                                       INPUT FILE
================================================================================
NAME = BTP-4Cl.inp
|  1> # ORCA input file
|  2> # BTP-4Cl.out: Geometry 28
|  3> ! B3LYP def2-TZVP def2/J RIJCOSX Grid4 TightSCF
|  4> 
|  5> %maxcore 6000
|  6> %tddft
|  7>   maxdim 5
|  8>   nroots 3
|  9>   dosoc true
| 10>   end
| 11> %pal
| 12>   nprocs 6
| 13>   end
| 14> 
| 15> 
| 16> * xyz 0 1
| 17>    C        4.42603         2.78642         0.99198
| 18>    O        5.18529         2.05917         0.37293
| 19>    C        3.45818         3.72635         0.38338
| 20>    C        3.22616         3.94479        -0.96465
| 21>    C        2.25667         4.88525        -1.32620
| 22>   Cl        1.94216         5.18104        -3.00280
| 23>    C        1.54814         5.57953        -0.32166
| 24>   Cl        0.34360         6.74647        -0.74891
| 25>    C        1.79405         5.34855         1.03826
| 26>    C        2.76199         4.40799         1.39834
| 27>    C        3.24913         3.92702         2.71721
| 28>    C        2.77329         4.38443         3.93611
| 29>    C        3.23669         3.89941         5.19747
| 30>    N        3.59898         3.50901         6.23116
| 31>    C        1.76032         5.38727         4.04273
| 32>    N        0.93697         6.20175         4.14259
| 33>    C        4.27593         2.91561         2.45920
| 34>    C        4.96445         2.17895         3.40823
| 35>    C        5.94140         1.16226         3.33789
| 36>    S        6.72448         0.54772         1.86136
| 37>    C        7.67607        -0.53503         2.80469
| 38>    C        7.38802        -0.45874         4.18549
| 39>    C        6.41588         0.50015         4.50740
| 40>    C        5.89450         0.74507         5.89920
| 41>    C        4.48801         0.17168         6.13735
| 42>    S        8.33194        -1.61096         5.14726
| 43>    C        9.10010        -2.17777         3.68212
| 44>    C        8.64180        -1.52065         2.53168
| 45>    N        9.28213        -2.01019         1.40108
| 46>    C        9.58383        -1.05407         0.32093
| 47>    C       10.96884        -0.43549         0.48252
| 48>    C       10.14277        -3.02605         1.83760
| 49>    C       10.07341        -3.11768         3.26022
| 50>    C       10.95079        -3.99538         3.97754
| 51>    N       11.04168        -4.12821         5.29302
| 52>    S       12.25938        -5.21150         5.58471
| 53>    N       12.69678        -5.53392         4.01937
| 54>    C       11.90926        -4.80535         3.24000
| 55>    C       11.89303        -4.77987         1.80556
| 56>    C       10.98535        -3.92173         1.10422
| 57>    N       11.09193        -4.18208        -0.25845
| 58>    C       10.18617        -3.81451        -1.34666
| 59>    C       10.80885        -2.85931        -2.36090
| 60>    C       12.06173        -5.15253        -0.42712
| 61>    C       12.57793        -5.53156         0.82527
| 62>    S       13.79186        -6.78470         0.71602
| 63>    C       13.59056        -6.79616        -1.04281
| 64>    C       12.62331        -5.87498        -1.50012
| 65>    S       12.45188        -5.90148        -3.22032
| 66>    C       13.71141        -7.15657        -3.34363
| 67>    C       14.21928        -7.52284        -2.06444
| 68>    C       15.24822        -8.58549        -1.78789
| 69>    C       14.61215        -9.94144        -1.43686
| 70>    C       14.20819        -7.73151        -4.53593
| 71>    C       13.94059        -7.54998        -5.88391
| 72>    C       14.60522        -8.23152        -6.99728
| 73>    C       15.59810        -9.19643        -6.94485
| 74>    C       16.17513        -9.78015        -8.11448
| 75>    N       16.65567       -10.26454        -9.05500
| 76>    C       16.14588        -9.70145        -5.72649
| 77>    N       16.60248       -10.12214        -4.74355
| 78>    C       14.02443        -7.69640        -8.25655
| 79>    C       14.28193        -7.97492        -9.60244
| 80>    C       13.55871        -7.28491       -10.58551
| 81>   Cl       13.88540        -7.63270       -12.25090
| 82>    C       12.58335        -6.32423       -10.23967
| 83>   Cl       11.70254        -5.48206       -11.46848
| 84>    C       12.32435        -6.04797        -8.89293
| 85>    C       13.04718        -6.73679        -7.93127
| 86>    C       12.94886        -6.60978        -6.45691
| 87>    O       12.18979        -5.86237        -5.86269
| 88>    H        3.78644         3.39507        -1.72196
| 89>    H        1.21636         5.91331         1.76452
| 90>    H        4.70513         2.40099         4.44026
| 91>    H        5.88278         1.82537         6.11633
| 92>    H        6.59883         0.29694         6.61665
| 93>    H        3.74771         0.64031         5.47433
| 94>    H        4.16871         0.36654         7.17179
| 95>    H        4.46549        -0.91443         5.95672
| 96>    H        8.81144        -0.27483         0.36734
| 97>    H        9.47001        -1.53072        -0.65549
| 98>    H       11.75558        -1.20461         0.43962
| 99>    H       11.05063         0.08203         1.45038
|100>    H       11.16068         0.29525        -0.31734
|101>    H        9.27496        -3.40524        -0.89516
|102>    H        9.88186        -4.74651        -1.85041
|103>    H       10.06367        -2.57625        -3.11935
|104>    H       11.65130        -3.33259        -2.88473
|105>    H       11.18434        -1.94586        -1.87996
|106>    H       15.87247        -8.24236        -0.94584
|107>    H       15.92971        -8.71903        -2.63946
|108>    H       13.92521        -9.85043        -0.58132
|109>    H       15.39201       -10.67261        -1.17905
|110>    H       14.04353       -10.33890        -2.29088
|111>    H       14.98104        -8.46318        -4.31368
|112>    H       15.02146        -8.70332        -9.92506
|113>    H       11.57406        -5.31020        -8.60624
|114> *
|115> 
|116>                          ****END OF INPUT****
================================================================================

                       ****************************
                       * Single Point Calculation *
                       ****************************

---------------------------------
CARTESIAN COORDINATES (ANGSTROEM)
---------------------------------
  C      4.426030    2.786420    0.991980
  O      5.185290    2.059170    0.372930
  C      3.458180    3.726350    0.383380
  C      3.226160    3.944790   -0.964650
  C      2.256670    4.885250   -1.326200
  Cl     1.942160    5.181040   -3.002800
  C      1.548140    5.579530   -0.321660
  Cl     0.343600    6.746470   -0.748910
  C      1.794050    5.348550    1.038260
  C      2.761990    4.407990    1.398340
  C      3.249130    3.927020    2.717210
  C      2.773290    4.384430    3.936110
  C      3.236690    3.899410    5.197470
  N      3.598980    3.509010    6.231160
  C      1.760320    5.387270    4.042730
  N      0.936970    6.201750    4.142590
  C      4.275930    2.915610    2.459200
  C      4.964450    2.178950    3.408230
  C      5.941400    1.162260    3.337890
  S      6.724480    0.547720    1.861360
  C      7.676070   -0.535030    2.804690
  C      7.388020   -0.458740    4.185490
  C      6.415880    0.500150    4.507400
  C      5.894500    0.745070    5.899200
  C      4.488010    0.171680    6.137350
  S      8.331940   -1.610960    5.147260
  C      9.100100   -2.177770    3.682120
  C      8.641800   -1.520650    2.531680
  N      9.282130   -2.010190    1.401080
  C      9.583830   -1.054070    0.320930
  C     10.968840   -0.435490    0.482520
  C     10.142770   -3.026050    1.837600
  C     10.073410   -3.117680    3.260220
  C     10.950790   -3.995380    3.977540
  N     11.041680   -4.128210    5.293020
  S     12.259380   -5.211500    5.584710
  N     12.696780   -5.533920    4.019370
  C     11.909260   -4.805350    3.240000
  C     11.893030   -4.779870    1.805560
  C     10.985350   -3.921730    1.104220
  N     11.091930   -4.182080   -0.258450
  C     10.186170   -3.814510   -1.346660
  C     10.808850   -2.859310   -2.360900
  C     12.061730   -5.152530   -0.427120
  C     12.577930   -5.531560    0.825270
  S     13.791860   -6.784700    0.716020
  C     13.590560   -6.796160   -1.042810
  C     12.623310   -5.874980   -1.500120
  S     12.451880   -5.901480   -3.220320
  C     13.711410   -7.156570   -3.343630
  C     14.219280   -7.522840   -2.064440
  C     15.248220   -8.585490   -1.787890
  C     14.612150   -9.941440   -1.436860
  C     14.208190   -7.731510   -4.535930
  C     13.940590   -7.549980   -5.883910
  C     14.605220   -8.231520   -6.997280
  C     15.598100   -9.196430   -6.944850
  C     16.175130   -9.780150   -8.114480
  N     16.655670  -10.264540   -9.055000
  C     16.145880   -9.701450   -5.726490
  N     16.602480  -10.122140   -4.743550
  C     14.024430   -7.696400   -8.256550
  C     14.281930   -7.974920   -9.602440
  C     13.558710   -7.284910  -10.585510
  Cl    13.885400   -7.632700  -12.250900
  C     12.583350   -6.324230  -10.239670
  Cl    11.702540   -5.482060  -11.468480
  C     12.324350   -6.047970   -8.892930
  C     13.047180   -6.736790   -7.931270
  C     12.948860   -6.609780   -6.456910
  O     12.189790   -5.862370   -5.862690
  H      3.786440    3.395070   -1.721960
  H      1.216360    5.913310    1.764520
  H      4.705130    2.400990    4.440260
  H      5.882780    1.825370    6.116330
  H      6.598830    0.296940    6.616650
  H      3.747710    0.640310    5.474330
  H      4.168710    0.366540    7.171790
  H      4.465490   -0.914430    5.956720
  H      8.811440   -0.274830    0.367340
  H      9.470010   -1.530720   -0.655490
  H     11.755580   -1.204610    0.439620
  H     11.050630    0.082030    1.450380
  H     11.160680    0.295250   -0.317340
  H      9.274960   -3.405240   -0.895160
  H      9.881860   -4.746510   -1.850410
  H     10.063670   -2.576250   -3.119350
  H     11.651300   -3.332590   -2.884730
  H     11.184340   -1.945860   -1.879960
  H     15.872470   -8.242360   -0.945840
  H     15.929710   -8.719030   -2.639460
  H     13.925210   -9.850430   -0.581320
  H     15.392010  -10.672610   -1.179050
  H     14.043530  -10.338900   -2.290880
  H     14.981040   -8.463180   -4.313680
  H     15.021460   -8.703320   -9.925060
  H     11.574060   -5.310200   -8.606240

----------------------------
CARTESIAN COORDINATES (A.U.)
----------------------------
  NO LB      ZA    FRAG     MASS         X           Y           Z
   0 C     6.0000    0    12.011    8.363985    5.265571    1.874571
   1 O     8.0000    0    15.999    9.798778    3.891267    0.704736
   2 C     6.0000    0    12.011    6.535013    7.041781    0.724483
   3 C     6.0000    0    12.011    6.096559    7.454573   -1.822924
   4 C     6.0000    0    12.011    4.264488    9.231785   -2.506155
   5 Cl   17.0000    0    35.453    3.670151    9.790747   -5.674470
   6 C     6.0000    0    12.011    2.925561   10.543784   -0.607849
   7 Cl   17.0000    0    35.453    0.649310   12.748981   -1.415235
   8 C     6.0000    0    12.011    3.390263   10.107295    1.962027
   9 C     6.0000    0    12.011    5.219405    8.329894    2.642480
  10 C     6.0000    0    12.011    6.139966    7.420992    5.134783
  11 C     6.0000    0    12.011    5.240759    8.285372    7.438170
  12 C     6.0000    0    12.011    6.116458    7.368817    9.821795
  13 N     7.0000    0    14.007    6.801087    6.631068   11.775186
  14 C     6.0000    0    12.011    3.326523   10.180465    7.639653
  15 N     7.0000    0    14.007    1.770617   11.719609    7.828361
  16 C     6.0000    0    12.011    8.080337    5.509704    4.647215
  17 C     6.0000    0    12.011    9.381451    4.117619    6.440621
  18 C     6.0000    0    12.011   11.227619    2.196353    6.307698
  19 S    16.0000    0    32.060   12.707426    1.035041    3.517461
  20 C     6.0000    0    12.011   14.505670   -1.011060    5.300096
  21 C     6.0000    0    12.011   13.961334   -0.866893    7.909430
  22 C     6.0000    0    12.011   12.124256    0.945147    8.517752
  23 C     6.0000    0    12.011   11.138991    1.407978   11.147872
  24 C     6.0000    0    12.011    8.481110    0.324428   11.597911
  25 S    16.0000    0    32.060   15.745085   -3.044273    9.726912
  26 C     6.0000    0    12.011   17.196697   -4.115389    6.958198
  27 C     6.0000    0    12.011   16.330635   -2.873612    4.784182
  28 N     7.0000    0    14.007   17.540684   -3.798709    2.647657
  29 C     6.0000    0    12.011   18.110814   -1.991904    0.606470
  30 C     6.0000    0    12.011   20.728104   -0.822957    0.911831
  31 C     6.0000    0    12.011   19.167058   -5.718406    3.472561
  32 C     6.0000    0    12.011   19.035986   -5.891561    6.160923
  33 C     6.0000    0    12.011   20.693994   -7.550174    7.516461
  34 N     7.0000    0    14.007   20.865751   -7.801186   10.002358
  35 S    16.0000    0    32.060   23.166871   -9.848308   10.553572
  36 N     7.0000    0    14.007   23.993437  -10.457593    7.595509
  37 C     6.0000    0    12.011   22.505240   -9.080795    6.122713
  38 C     6.0000    0    12.011   22.474570   -9.032645    3.412014
  39 C     6.0000    0    12.011   20.759303   -7.410996    2.086673
  40 N     7.0000    0    14.007   20.960710   -7.902986   -0.488400
  41 C     6.0000    0    12.011   19.249072   -7.208379   -2.544819
  42 C     6.0000    0    12.011   20.425766   -5.403313   -4.461454
  43 C     6.0000    0    12.011   22.793366   -9.736871   -0.807140
  44 C     6.0000    0    12.011   23.768843  -10.453133    1.559534
  45 S    16.0000    0    32.060   26.062838  -12.821225    1.353082
  46 C     6.0000    0    12.011   25.682436  -12.842881   -1.970625
  47 C     6.0000    0    12.011   23.854599  -11.102103   -2.834816
  48 S    16.0000    0    32.060   23.530643  -11.152181   -6.085523
  49 C     6.0000    0    12.011   25.910810  -13.523957   -6.318545
  50 C     6.0000    0    12.011   26.870545  -14.216107   -3.901226
  51 C     6.0000    0    12.011   28.814960  -16.224225   -3.378622
  52 C     6.0000    0    12.011   27.612962  -18.786599   -2.715272
  53 C     6.0000    0    12.011   26.849588  -14.610437   -8.571665
  54 C     6.0000    0    12.011   26.343897  -14.267395  -11.118978
  55 C     6.0000    0    12.011   27.599866  -15.555318  -13.222943
  56 C     6.0000    0    12.011   29.476137  -17.378734  -13.123865
  57 C     6.0000    0    12.011   30.566566  -18.481805  -15.334145
  58 N     7.0000    0    14.007   31.474655  -19.397169  -17.111470
  59 C     6.0000    0    12.011   30.511291  -18.333084  -10.821498
  60 N     7.0000    0    14.007   31.374140  -19.128072   -8.964010
  61 C     6.0000    0    12.011   26.502332  -14.544088  -15.602618
  62 C     6.0000    0    12.011   26.988936  -15.070415  -18.145982
  63 C     6.0000    0    12.011   25.622249  -13.766485  -20.003715
  64 Cl   17.0000    0    35.453   26.239603  -14.423713  -23.150846
  65 C     6.0000    0    12.011   23.779085  -11.951063  -19.350172
  66 Cl   17.0000    0    35.453   22.114596  -10.359592  -21.672286
  67 C     6.0000    0    12.011   23.289646  -11.429007  -16.805202
  68 C     6.0000    0    12.011   24.655597  -12.730688  -14.987928
  69 C     6.0000    0    12.011   24.469799  -12.490674  -12.201792
  70 O     8.0000    0    15.999   23.035365  -11.078274  -11.078879
  71 H     1.0000    0     1.008    7.155335    6.415753   -3.254033
  72 H     1.0000    0     1.008    2.298587   11.174536    3.334460
  73 H     1.0000    0     1.008    8.891407    4.537214    8.390875
  74 H     1.0000    0     1.008   11.116843    3.449449   11.558189
  75 H     1.0000    0     1.008   12.469982    0.561135   12.503656
  76 H     1.0000    0     1.008    7.082146    1.210011   10.344984
  77 H     1.0000    0     1.008    7.877720    0.692660   13.552719
  78 H     1.0000    0     1.008    8.438553   -1.728022   11.256569
  79 H     1.0000    0     1.008   16.651208   -0.519353    0.694172
  80 H     1.0000    0     1.008   17.895725   -2.892642   -1.238697
  81 H     1.0000    0     1.008   22.214827   -2.276383    0.830761
  82 H     1.0000    0     1.008   20.882664    0.155014    2.740821
  83 H     1.0000    0     1.008   21.090629    0.557942   -0.599686
  84 H     1.0000    0     1.008   17.527134   -6.434971   -1.691607
  85 H     1.0000    0     1.008   18.674009   -8.969604   -3.496768
  86 H     1.0000    0     1.008   19.017580   -4.868407   -5.894717
  87 H     1.0000    0     1.008   22.017766   -6.297682   -5.451350
  88 H     1.0000    0     1.008   21.135340   -3.677142   -3.552610
  89 H     1.0000    0     1.008   29.994621  -15.575803   -1.787379
  90 H     1.0000    0     1.008   30.102789  -16.476579   -4.987857
  91 H     1.0000    0     1.008   26.314833  -18.614615   -1.098536
  92 H     1.0000    0     1.008   29.086684  -20.168310   -2.228082
  93 H     1.0000    0     1.008   26.538426  -19.537690   -4.329136
  94 H     1.0000    0     1.008   28.310063  -15.993092   -8.151674
  95 H     1.0000    0     1.008   28.386446  -16.446891  -18.755645
  96 H     1.0000    0     1.008   21.871804  -10.034824  -16.263437

--------------------------------
INTERNAL COORDINATES (ANGSTROEM)
--------------------------------
 C      0   0   0     0.000000000000     0.00000000     0.00000000
 O      1   0   0     1.220078363303     0.00000000     0.00000000
 C      1   2   0     1.480066210478   125.22875572     0.00000000
 C      3   1   2     1.385183812676   127.57857164     0.67470107
 C      4   3   1     1.398246857390   118.28413111   179.91723363
 Cl     5   4   3     1.731298883555   119.42434789   180.03008398
 C      5   4   3     1.411786134972   119.65375912     0.00000000
 Cl     7   5   4     1.730666963254   120.34666708   180.04545026
 C      7   5   4     1.401144494654   121.42976351     0.00000000
 C      9   7   5     1.396860251994   118.86907096   359.92573178
 C     10   9   7     1.485952757459   132.36913255   180.55186138
 C     11  10   9     1.386133046897   124.13378458   359.84339853
 C     12  11  10     1.428640266127   123.57364558   179.05319999
 N     13  12  11     1.162833272744   179.16072510   205.64292334
 C     12  11  10     1.429392916906   122.70983295   359.42683542
 N     15  12  11     1.162434906780   179.34922773   178.51469645
 C     11  10   9     1.464184956964   107.28262909   179.47218775
 C     17  11  10     1.384696965729   126.54232015   182.11293215
 C     18  17  11     1.411749827059   133.87381468   178.19750526
 S     19  18  17     1.780734269592   126.45267426     4.76217262
 C     20  19  18     1.722713725347    90.33075976   178.85143570
 C     21  20  19     1.412586849224   112.87227481     1.44488204
 C     22  21  20     1.402908500152   113.73536767   358.52432357
 C     23  22  21     1.506296833562   124.26386147   177.70934475
 C     24  23  22     1.537434757868   113.52433555   255.49138156
 S     22  21  20     1.773019297047   112.74202432   178.15930787
 C     26  22  21     1.748707688923    89.42793141     0.02748466
 C     27  26  22     1.401912186266   113.08012488   359.54149941
 N     28  27  26     1.388498570579   110.62073192   180.08392532
 C     29  28  27     1.473740942941   117.54659871   215.47817320
 C     30  29  28     1.525452472088   111.79650507    91.23660961
 C     29  28  27     1.401150405774   106.57120133     1.51935141
 C     27  26  22     1.417308284813   139.99790924   179.35628889
 C     33  27  26     1.433422804618   132.64376303   354.75995941
 N     34  33  27     1.325289565114   126.87479516     0.28976344
 S     35  34  33     1.655715425488   106.91075274   182.88044678
 N     36  35  34     1.656973968414    98.91813497     0.00000000
 C     37  36  35     1.326054143766   106.95098616     0.14861424
 C     38  37  36     1.434758083058   127.16275540   181.79779313
 C     32  29  28     1.431792562908   130.95276175   175.95682328
 N     40  32  29     1.391406104558   131.58732215   350.69503937
 C     41  40  32     1.462774721753   129.35493857   346.11568928
 C     42  41  40     1.526047246975   113.51952091   116.10533718
 C     41  40  32     1.382293315979   107.73449962   180.55462423
 C     44  41  40     1.406629621827   109.75510588     0.49145472
 S     45  44  41     1.748119408679   113.10113469   178.76215306
 C     46  45  44     1.770349115429    89.29922242   359.80167890
 C     44  41  40     1.410189738617   137.04656925   177.92195574
 S     48  44  41     1.728924097495   136.50357169     3.08467373
 C     49  48  44     1.782378210454    90.54769009   178.02149368
 C     47  46  45     1.402526476648   132.53679986   178.39878193
 C     51  47  46     1.504799803495   122.58397038     3.28741639
 C     52  51  47     1.538313202277   112.43688755    82.59204396
 C     50  49  48     1.413833675508   126.36966162   181.78734665
 C     54  50  49     1.386222558358   134.34386761     0.44685853
 C     55  54  50     1.464862643868   126.19743131   178.06342072
 C     56  55  54     1.385500237243   128.34552702     1.36308660
 C     57  56  55     1.428890127407   122.88268612   180.48879337
 N     58  57  56     1.161951046344   179.09776859   177.57465227
 C     57  56  55     1.428113867449   123.60305654     0.33042094
 N     60  57  56     1.162598245182   179.16885986   182.47688556
 C     56  55  54     1.486415611934   107.40516944   181.61804950
 C     62  56  55     1.398320253912   132.20307543   179.59331001
 C     63  62  56     1.401994148847   118.80819505   180.36788488
 Cl    64  63  62     1.732399518673   118.55417639   179.87224745
 C     64  63  62     1.412033461926   121.29394235   359.92316646
 Cl    66  64  63     1.730621443615   120.57954259   179.93474667
 C     66  64  63     1.398967195898   119.86873197   359.95125766
 C     68  66  64     1.386270592958   118.23888215     0.08700721
 C     55  54  50     1.481834482289   126.03633064   359.41399705
 O     70  55  54     1.219797680519   128.08805206   358.52545364
 H      4   3   1     1.090698946960   120.67627001   359.96701341
 H      9   7   5     1.086339349053   118.02371401   180.03296570
 H     18  17  11     1.087030149030   115.04975187   359.30115244
 H     24  23  22     1.101966825862   110.19052769   132.93166493
 H     24  23  22     1.100743270840   108.33470314    17.25228049
 H     25  24  23     1.098750966917   111.33617440   297.94462382
 H     25  24  23     1.099995010534   110.19116369   179.08783562
 H     25  24  23     1.101258043966   111.16917591    58.32462350
 H     30  29  28     1.098159905387   106.58256964   330.68479172
 H     30  29  28     1.092495414773   110.52860120   216.04738849
 H     31  30  29     1.101065761887   111.18372580    61.54379951
 H     31  30  29     1.100576909671   110.56736814   301.53778599
 H     31  30  29     1.100254312784   110.52511454   181.62722867
 H     42  41  40     1.096201554004   107.58490262   351.23021918
 H     42  41  40     1.102267045049   107.36568572   237.60581158
 H     43  42  41     1.100301139916   110.04832471   183.21972708
 H     43  42  41     1.099142315535   111.09820176    64.23125089
 H     43  42  41     1.098493025103   111.65303801   303.92745332
 H     52  51  47     1.102939010961   107.91585807   321.70757972
 H     52  51  47     1.098832569867   111.55955109   205.45091858
 H     53  52  51     1.100962340546   111.25083613   303.90524743
 H     53  52  51     1.099662304801   110.26383385   183.62911756
 H     53  52  51     1.100296921926   110.79192052    64.17688364
 H     54  50  49     1.087213490488   110.55160842   179.29520065
 H     63  62  56     1.086993489079   122.98569452     0.23833262
 H     68  66  64     1.090610293872   120.93125586   180.06895710

---------------------------
INTERNAL COORDINATES (A.U.)
---------------------------
 C      0   0   0     0.000000000000     0.00000000     0.00000000
 O      1   0   0     2.305613968565     0.00000000     0.00000000
 C      1   2   0     2.796919797875   125.22875572     0.00000000
 C      3   1   2     2.617618051099   127.57857164     0.67470107
 C      4   3   1     2.642303628082   118.28413111   179.91723363
 Cl     5   4   3     3.271680745883   119.42434789   180.03008398
 C      5   4   3     2.667889154765   119.65375912     0.00000000
 Cl     7   5   4     3.270486589576   120.34666708   180.04545026
 C      7   5   4     2.647779368948   121.42976351     0.00000000
 C      9   7   5     2.639683323628   118.86907096   359.92573178
 C     10   9   7     2.808043759543   132.36913255   180.55186138
 C     11  10   9     2.619411843813   124.13378458   359.84339853
 C     12  11  10     2.699738846873   123.57364558   179.05319999
 N     13  12  11     2.197436424897   179.16072510   205.64292334
 C     12  11  10     2.701161150719   122.70983295   359.42683542
 N     15  12  11     2.196683622324   179.34922773   178.51469645
 C     11  10   9     2.766908578069   107.28262909   179.47218775
 C     17  11  10     2.616698043700   126.54232015   182.11293215
 C     18  17  11     2.667820542751   133.87381468   178.19750526
 S     19  18  17     3.365100086818   126.45267426     4.76217262
 C     20  19  18     3.255457148054    90.33075976   178.85143570
 C     21  20  19     2.669402285412   112.87227481     1.44488204
 C     22  21  20     2.651112856238   113.73536767   358.52432357
 C     23  22  21     2.846488491826   124.26386147   177.70934475
 C     24  23  22     2.905330641142   113.52433555   255.49138156
 S     22  21  20     3.350520901576   112.74202432   178.15930787
 C     26  22  21     3.304578620348    89.42793141     0.02748466
 C     27  26  22     2.649230095849   113.08012488   359.54149941
 N     28  27  26     2.623882035735   110.62073192   180.08392532
 C     29  28  27     2.784966774505   117.54659871   215.47817320
 C     30  29  28     2.882687402560   111.79650507    91.23660961
 C     29  28  27     2.647790539345   106.57120133     1.51935141
 C     27  26  22     2.678324505635   139.99790924   179.35628889
 C     33  27  26     2.708776534846   132.64376303   354.75995941
 N     34  33  27     2.504434326209   126.87479516     0.28976344
 S     35  34  33     3.128848709882   106.91075274   182.88044678
 N     36  35  34     3.131227011338    98.91813497     0.00000000
 C     37  36  35     2.505879170470   106.95098616     0.14861424
 C     38  37  36     2.711299845409   127.16275540   181.79779313
 C     32  29  28     2.705695824482   130.95276175   175.95682328
 N     40  32  29     2.629376478680   131.58732215   350.69503937
 C     41  40  32     2.764243619736   129.35493857   346.11568928
 C     42  41  40     2.883811364207   113.51952091   116.10533718
 C     41  40  32     2.612155803950   107.73449962   180.55462423
 C     44  41  40     2.658144757113   109.75510588     0.49145472
 S     45  44  41     3.303466931796   113.10113469   178.76215306
 C     46  45  44     3.345474989590    89.29922242   359.80167890
 C     44  41  40     2.664872402852   137.04656925   177.92195574
 S     48  44  41     3.267193050603   136.50357169     3.08467373
 C     49  48  44     3.368206684826    90.54769009   178.02149368
 C     47  46  45     2.650390936439   132.53679986   178.39878193
 C     51  47  46     2.843659514985   122.58397038     3.28741639
 C     52  51  47     2.906990660499   112.43688755    82.59204396
 C     50  49  48     2.671758445625   126.36966162   181.78734665
 C     54  50  49     2.619580995960   134.34386761     0.44685853
 C     55  54  50     2.768189220722   126.19743131   178.06342072
 C     56  55  54     2.618216006872   128.34552702     1.36308660
 C     57  56  55     2.700211016262   122.88268612   180.48879337
 N     58  57  56     2.195769258613   179.09776859   177.57465227
 C     57  56  55     2.698744097534   123.60305654     0.33042094
 N     60  57  56     2.196992287171   179.16885986   182.47688556
 C     56  55  54     2.808918427740   107.40516944   181.61804950
 C     62  56  55     2.642442327409   132.20307543   179.59331001
 C     63  62  56     2.649384982680   118.80819505   180.36788488
 Cl    64  63  62     3.273760644830   118.55417639   179.87224745
 C     64  63  62     2.668356534974   121.29394235   359.92316646
 Cl    66  64  63     3.270400569924   120.57954259   179.93474667
 C     66  64  63     2.643664870588   119.86873197   359.95125766
 C     68  66  64     2.619671768199   118.23888215     0.08700721
 C     55  54  50     2.800261347327   126.03633064   359.41399705
 O     70  55  54     2.305083554974   128.08805206   358.52545364
 H      4   3   1     2.061122304311   120.67627001   359.96701341
 H      9   7   5     2.052883858212   118.02371401   180.03296570
 H     18  17  11     2.054189280982   115.04975187   359.30115244
 H     24  23  22     2.082415509545   110.19052769   132.93166493
 H     24  23  22     2.080103325645   108.33470314    17.25228049
 H     25  24  23     2.076338416853   111.33617440   297.94462382
 H     25  24  23     2.078689318589   110.19116369   179.08783562
 H     25  24  23     2.081076105874   111.16917591    58.32462350
 H     30  29  28     2.075221472435   106.58256964   330.68479172
 H     30  29  28     2.064517136486   110.52860120   216.04738849
 H     31  30  29     2.080712745404   111.18372580    61.54379951
 H     31  30  29     2.079788948595   110.56736814   301.53778599
 H     31  30  29     2.079179328828   110.52511454   181.62722867
 H     42  41  40     2.071520724646   107.58490262   351.23021918
 H     42  41  40     2.082982841588   107.36568572   237.60581158
 H     43  42  41     2.079267819282   110.04832471   183.21972708
 H     43  42  41     2.077077958566   111.09820176    64.23125089
 H     43  42  41     2.075850977467   111.65303801   303.92745332
 H     52  51  47     2.084252673135   107.91585807   321.70757972
 H     52  51  47     2.076492624081   111.55955109   205.45091858
 H     53  52  51     2.080517307392   111.25083613   303.90524743
 H     53  52  51     2.078060595870   110.26383385   183.62911756
 H     53  52  51     2.079259848437   110.79192052    64.17688364
 H     54  50  49     2.054535746128   110.55160842   179.29520065
 H     63  62  56     2.054120003715   122.98569452     0.23833262
 H     68  66  64     2.060954774254   120.93125586   180.06895710

---------------------
BASIS SET INFORMATION
---------------------
There are 6 groups of distinct atoms

 Group   1 Type C   : 11s6p2d1f contracted to 5s3p2d1f pattern {62111/411/11/1}
 Group   2 Type O   : 11s6p2d1f contracted to 5s3p2d1f pattern {62111/411/11/1}
 Group   3 Type Cl  : 14s9p3d1f contracted to 5s5p2d1f pattern {73211/51111/21/1}
 Group   4 Type N   : 11s6p2d1f contracted to 5s3p2d1f pattern {62111/411/11/1}
 Group   5 Type S   : 14s9p3d1f contracted to 5s5p2d1f pattern {73211/51111/21/1}
 Group   6 Type H   : 5s1p contracted to 3s1p pattern {311/1}

Atom   0C    basis set group =>   1
Atom   1O    basis set group =>   2
Atom   2C    basis set group =>   1
Atom   3C    basis set group =>   1
Atom   4C    basis set group =>   1
Atom   5Cl   basis set group =>   3
Atom   6C    basis set group =>   1
Atom   7Cl   basis set group =>   3
Atom   8C    basis set group =>   1
Atom   9C    basis set group =>   1
Atom  10C    basis set group =>   1
Atom  11C    basis set group =>   1
Atom  12C    basis set group =>   1
Atom  13N    basis set group =>   4
Atom  14C    basis set group =>   1
Atom  15N    basis set group =>   4
Atom  16C    basis set group =>   1
Atom  17C    basis set group =>   1
Atom  18C    basis set group =>   1
Atom  19S    basis set group =>   5
Atom  20C    basis set group =>   1
Atom  21C    basis set group =>   1
Atom  22C    basis set group =>   1
Atom  23C    basis set group =>   1
Atom  24C    basis set group =>   1
Atom  25S    basis set group =>   5
Atom  26C    basis set group =>   1
Atom  27C    basis set group =>   1
Atom  28N    basis set group =>   4
Atom  29C    basis set group =>   1
Atom  30C    basis set group =>   1
Atom  31C    basis set group =>   1
Atom  32C    basis set group =>   1
Atom  33C    basis set group =>   1
Atom  34N    basis set group =>   4
Atom  35S    basis set group =>   5
Atom  36N    basis set group =>   4
Atom  37C    basis set group =>   1
Atom  38C    basis set group =>   1
Atom  39C    basis set group =>   1
Atom  40N    basis set group =>   4
Atom  41C    basis set group =>   1
Atom  42C    basis set group =>   1
Atom  43C    basis set group =>   1
Atom  44C    basis set group =>   1
Atom  45S    basis set group =>   5
Atom  46C    basis set group =>   1
Atom  47C    basis set group =>   1
Atom  48S    basis set group =>   5
Atom  49C    basis set group =>   1
Atom  50C    basis set group =>   1
Atom  51C    basis set group =>   1
Atom  52C    basis set group =>   1
Atom  53C    basis set group =>   1
Atom  54C    basis set group =>   1
Atom  55C    basis set group =>   1
Atom  56C    basis set group =>   1
Atom  57C    basis set group =>   1
Atom  58N    basis set group =>   4
Atom  59C    basis set group =>   1
Atom  60N    basis set group =>   4
Atom  61C    basis set group =>   1
Atom  62C    basis set group =>   1
Atom  63C    basis set group =>   1
Atom  64Cl   basis set group =>   3
Atom  65C    basis set group =>   1
Atom  66Cl   basis set group =>   3
Atom  67C    basis set group =>   1
Atom  68C    basis set group =>   1
Atom  69C    basis set group =>   1
Atom  70O    basis set group =>   2
Atom  71H    basis set group =>   6
Atom  72H    basis set group =>   6
Atom  73H    basis set group =>   6
Atom  74H    basis set group =>   6
Atom  75H    basis set group =>   6
Atom  76H    basis set group =>   6
Atom  77H    basis set group =>   6
Atom  78H    basis set group =>   6
Atom  79H    basis set group =>   6
Atom  80H    basis set group =>   6
Atom  81H    basis set group =>   6
Atom  82H    basis set group =>   6
Atom  83H    basis set group =>   6
Atom  84H    basis set group =>   6
Atom  85H    basis set group =>   6
Atom  86H    basis set group =>   6
Atom  87H    basis set group =>   6
Atom  88H    basis set group =>   6
Atom  89H    basis set group =>   6
Atom  90H    basis set group =>   6
Atom  91H    basis set group =>   6
Atom  92H    basis set group =>   6
Atom  93H    basis set group =>   6
Atom  94H    basis set group =>   6
Atom  95H    basis set group =>   6
Atom  96H    basis set group =>   6
---------------------------------
AUXILIARY/J BASIS SET INFORMATION
---------------------------------
There are 6 groups of distinct atoms

 Group   1 Type C   : 12s5p4d2f1g contracted to 6s4p3d1f1g pattern {711111/2111/211/2/1}
 Group   2 Type O   : 12s5p4d2f1g contracted to 6s4p3d1f1g pattern {711111/2111/211/2/1}
 Group   3 Type Cl  : 14s5p5d2f1g contracted to 8s4p3d1f1g pattern {71111111/2111/311/2/1}
 Group   4 Type N   : 12s5p4d2f1g contracted to 6s4p3d1f1g pattern {711111/2111/211/2/1}
 Group   5 Type S   : 14s5p5d2f1g contracted to 8s4p3d1f1g pattern {71111111/2111/311/2/1}
 Group   6 Type H   : 5s2p1d contracted to 3s1p1d pattern {311/2/1}

Atom   0C    basis set group =>   1
Atom   1O    basis set group =>   2
Atom   2C    basis set group =>   1
Atom   3C    basis set group =>   1
Atom   4C    basis set group =>   1
Atom   5Cl   basis set group =>   3
Atom   6C    basis set group =>   1
Atom   7Cl   basis set group =>   3
Atom   8C    basis set group =>   1
Atom   9C    basis set group =>   1
Atom  10C    basis set group =>   1
Atom  11C    basis set group =>   1
Atom  12C    basis set group =>   1
Atom  13N    basis set group =>   4
Atom  14C    basis set group =>   1
Atom  15N    basis set group =>   4
Atom  16C    basis set group =>   1
Atom  17C    basis set group =>   1
Atom  18C    basis set group =>   1
Atom  19S    basis set group =>   5
Atom  20C    basis set group =>   1
Atom  21C    basis set group =>   1
Atom  22C    basis set group =>   1
Atom  23C    basis set group =>   1
Atom  24C    basis set group =>   1
Atom  25S    basis set group =>   5
Atom  26C    basis set group =>   1
Atom  27C    basis set group =>   1
Atom  28N    basis set group =>   4
Atom  29C    basis set group =>   1
Atom  30C    basis set group =>   1
Atom  31C    basis set group =>   1
Atom  32C    basis set group =>   1
Atom  33C    basis set group =>   1
Atom  34N    basis set group =>   4
Atom  35S    basis set group =>   5
Atom  36N    basis set group =>   4
Atom  37C    basis set group =>   1
Atom  38C    basis set group =>   1
Atom  39C    basis set group =>   1
Atom  40N    basis set group =>   4
Atom  41C    basis set group =>   1
Atom  42C    basis set group =>   1
Atom  43C    basis set group =>   1
Atom  44C    basis set group =>   1
Atom  45S    basis set group =>   5
Atom  46C    basis set group =>   1
Atom  47C    basis set group =>   1
Atom  48S    basis set group =>   5
Atom  49C    basis set group =>   1
Atom  50C    basis set group =>   1
Atom  51C    basis set group =>   1
Atom  52C    basis set group =>   1
Atom  53C    basis set group =>   1
Atom  54C    basis set group =>   1
Atom  55C    basis set group =>   1
Atom  56C    basis set group =>   1
Atom  57C    basis set group =>   1
Atom  58N    basis set group =>   4
Atom  59C    basis set group =>   1
Atom  60N    basis set group =>   4
Atom  61C    basis set group =>   1
Atom  62C    basis set group =>   1
Atom  63C    basis set group =>   1
Atom  64Cl   basis set group =>   3
Atom  65C    basis set group =>   1
Atom  66Cl   basis set group =>   3
Atom  67C    basis set group =>   1
Atom  68C    basis set group =>   1
Atom  69C    basis set group =>   1
Atom  70O    basis set group =>   2
Atom  71H    basis set group =>   6
Atom  72H    basis set group =>   6
Atom  73H    basis set group =>   6
Atom  74H    basis set group =>   6
Atom  75H    basis set group =>   6
Atom  76H    basis set group =>   6
Atom  77H    basis set group =>   6
Atom  78H    basis set group =>   6
Atom  79H    basis set group =>   6
Atom  80H    basis set group =>   6
Atom  81H    basis set group =>   6
Atom  82H    basis set group =>   6
Atom  83H    basis set group =>   6
Atom  84H    basis set group =>   6
Atom  85H    basis set group =>   6
Atom  86H    basis set group =>   6
Atom  87H    basis set group =>   6
Atom  88H    basis set group =>   6
Atom  89H    basis set group =>   6
Atom  90H    basis set group =>   6
Atom  91H    basis set group =>   6
Atom  92H    basis set group =>   6
Atom  93H    basis set group =>   6
Atom  94H    basis set group =>   6
Atom  95H    basis set group =>   6
Atom  96H    basis set group =>   6


           ************************************************************
           *        Program running with 6 parallel MPI-processes     *
           *              working on a common directory               *
           ************************************************************
------------------------------------------------------------------------------
                           ORCA GTO INTEGRAL CALCULATION
                           -- RI-GTO INTEGRALS CHOSEN --
------------------------------------------------------------------------------

                         BASIS SET STATISTICS AND STARTUP INFO

Gaussian basis set:
 # of primitive gaussian shells          ... 1639
 # of primitive gaussian functions       ... 3627
 # of contracted shells                  ...  903
 # of contracted basis functions         ... 2411
 Highest angular momentum                ...    3
 Maximum contraction depth               ...    7
Auxiliary gaussian basis set:
 # of primitive gaussian shells          ... 1939
 # of primitive gaussian functions       ... 5449
 # of contracted shells                  ... 1213
 # of contracted aux-basis functions     ... 3783
 Highest angular momentum                ...    4
 Maximum contraction depth               ...    7
Ratio of auxiliary to basis functions    ...  1.57
Integral package used                  ... LIBINT
 One Electron integrals                  ... done
 Ordering auxiliary basis shells         ... done
 Integral threshhold             Thresh  ...  2.500e-11
 Primitive cut-off               TCut    ...  2.500e-12
 Pre-screening matrix                    ... done
 Shell pair data                         ... 
 Ordering of the shell pairs             ... done (   0.030 sec) 132203 of 408156 pairs
 Determination of significant pairs      ... done (   0.001 sec)
 Creation of shell pair data             ... done (   0.011 sec)
 Storage of shell pair data              ... done (   0.263 sec)
 Shell pair data done in (   0.304 sec)
 Computing two index integrals           ... done
 Cholesky decomposition of the V-matrix  ... done


Timings:
 Total evaluation time                   ...   6.746 sec (  0.112 min)
 One electron matrix time                ...   1.775 sec (  0.030 min) = 26.3%
 Schwartz matrix evaluation time         ...   3.321 sec (  0.055 min) = 49.2%
 Two index repulsion integral time       ...   0.255 sec (  0.004 min) =  3.8%
 Cholesky decomposition of V             ...   1.074 sec (  0.018 min) = 15.9%
 Three index repulsion integral time     ...   0.000 sec (  0.000 min) =  0.0%



           ************************************************************
           *        Program running with 6 parallel MPI-processes     *
           *              working on a common directory               *
           ************************************************************
-------------------------------------------------------------------------------
                                 ORCA SCF
-------------------------------------------------------------------------------

------------
SCF SETTINGS
------------
Hamiltonian:
 Density Functional     Method          .... DFT(GTOs)
 Exchange Functional    Exchange        .... B88
   X-Alpha parameter    XAlpha          ....  0.666667
   Becke's b parameter  XBeta           ....  0.004200
 Correlation Functional Correlation     .... LYP
 LDA part of GGA corr.  LDAOpt          .... VWN-5
 Gradients option       PostSCFGGA      .... off
 Hybrid DFT is turned on
   Fraction HF Exchange ScalHFX         ....  0.200000
   Scaling of DF-GGA-X  ScalDFX         ....  0.720000
   Scaling of DF-GGA-C  ScalDFC         ....  0.810000
   Scaling of DF-LDA-C  ScalLDAC        ....  1.000000
   Perturbative correction              ....  0.000000
   Density functional embedding theory  .... OFF
   NL short-range parameter             ....  4.800000
 RI-approximation to the Coulomb term is turned on
   Number of auxiliary basis functions  .... 3783
   RIJ-COSX (HFX calculated with COS-X)).... on


General Settings:
 Integral files         IntName         .... BTP-4Cl
 Hartree-Fock type      HFTyp           .... RHF
 Total Charge           Charge          ....    0
 Multiplicity           Mult            ....    1
 Number of Electrons    NEL             ....  558
 Basis Dimension        Dim             .... 2411
 Nuclear Repulsion      ENuc            ....  11704.1345456655 Eh

Convergence Acceleration:
 DIIS                   CNVDIIS         .... on
   Start iteration      DIISMaxIt       ....    12
   Startup error        DIISStart       ....  0.200000
   # of expansion vecs  DIISMaxEq       ....     5
   Bias factor          DIISBfac        ....   1.050
   Max. coefficient     DIISMaxC        ....  10.000
 Newton-Raphson         CNVNR           .... off
 SOSCF                  CNVSOSCF        .... on
   Start iteration      SOSCFMaxIt      ....   150
   Startup grad/error   SOSCFStart      ....  0.003300
 Level Shifting         CNVShift        .... on
   Level shift para.    LevelShift      ....    0.2500
   Turn off err/grad.   ShiftErr        ....    0.0010
 Zerner damping         CNVZerner       .... off
 Static damping         CNVDamp         .... on
   Fraction old density DampFac         ....    0.7000
   Max. Damping (<1)    DampMax         ....    0.9800
   Min. Damping (>=0)   DampMin         ....    0.0000
   Turn off err/grad.   DampErr         ....    0.1000
 Fernandez-Rico         CNVRico         .... off

SCF Procedure:
 Maximum # iterations   MaxIter         ....   125
 SCF integral mode      SCFMode         .... Direct
   Integral package                     .... LIBINT
 Reset frequency        DirectResetFreq ....    20
 Integral Threshold     Thresh          ....  2.500e-11 Eh
 Primitive CutOff       TCut            ....  2.500e-12 Eh

Convergence Tolerance:
 Convergence Check Mode ConvCheckMode   .... Total+1el-Energy
 Convergence forced     ConvForced      .... 1
 Energy Change          TolE            ....  1.000e-08 Eh
 1-El. energy change                    ....  1.000e-05 Eh
 Orbital Gradient       TolG            ....  1.000e-05
 Orbital Rotation angle TolX            ....  1.000e-05
 DIIS Error             TolErr          ....  5.000e-07


Diagonalization of the overlap matrix:
Smallest eigenvalue                        ... 2.302e-06
Time for diagonalization                   ...    3.037 sec
Threshold for overlap eigenvalues          ... 1.000e-08
Number of eigenvalues below threshold      ... 0
Time for construction of square roots      ...    1.900 sec
Total time needed                          ...    4.941 sec

-------------------
DFT GRID GENERATION
-------------------

General Integration Accuracy     IntAcc      ...  4.670
Radial Grid Type                 RadialGrid  ... Gauss-Chebyshev
Angular Grid (max. acc.)         AngularGrid ... Lebedev-302
Angular grid pruning method      GridPruning ... 3 (G Style)
Weight generation scheme         WeightScheme... Becke
Basis function cutoff            BFCut       ...    1.0000e-11
Integration weight cutoff        WCut        ...    1.0000e-14
Grids for H and He will be reduced by one unit

# of grid points (after initial pruning)     ... 534570 (   0.0 sec)
# of grid points (after weights+screening)   ... 457836 (   8.2 sec)
nearest neighbour list constructed           ...    0.0 sec
Grid point re-assignment to atoms done       ...    0.1 sec
Grid point division into batches done        ...    1.8 sec
Reduced shell lists constructed in    3.1 sec

Total number of grid points                  ...   457836
Total number of batches                      ...     7202
Average number of points per batch           ...       63
Average number of grid points per atom       ...     4720
Average number of shells per batch           ...   135.47 (15.00%)
Average number of basis functions per batch  ...   357.74 (14.84%)
Average number of large shells per batch     ...    86.70 (64.00%)
Average number of large basis fcns per batch ...   232.36 (64.95%)
Maximum spatial batch extension              ...  20.06, 19.55, 17.62 au
Average spatial batch extension              ...   0.39,  0.38,  0.35 au

Time for grid setup =   13.011 sec

------------------------------
INITIAL GUESS: MODEL POTENTIAL
------------------------------
Loading Hartree-Fock densities                     ... done
Calculating cut-offs                               ... done
Setting up the integral package                    ... done
Initializing the effective Hamiltonian             ... done
Starting the Coulomb interaction                   ... done (   4.2 sec)
Reading the grid                                   ... done
Mapping shells                                     ... done
Starting the XC term evaluation                    ... done (   6.7 sec)
  promolecular density results
     # of electrons  =    557.987795785
     EX              =   -579.363286847
     EC              =    -20.329809493
     EX+EC           =   -599.693096340
Transforming the Hamiltonian                       ... done (   1.5 sec)
Diagonalizing the Hamiltonian                      ... done (   1.9 sec)
Back transforming the eigenvectors                 ... done (   0.7 sec)
Now organizing SCF variables                       ... done
                      ------------------
                      INITIAL GUESS DONE (  28.3 sec)
                      ------------------
--------------------
COSX GRID GENERATION
--------------------

General Integration Accuracy     IntAcc      ...  3.340
Radial Grid Type                 RadialGrid  ... Gauss-Chebyshev
Angular Grid (max. acc.)         AngularGrid ... Lebedev-50
Angular grid pruning method      GridPruning ... 3 (G Style)
Weight generation scheme         WeightScheme... Becke
Basis function cutoff            BFCut       ...    1.0000e-11
Integration weight cutoff        WCut        ...    1.0000e-14
Grids for H and He will be reduced by one unit

# of grid points (after initial pruning)     ...  50522 (   0.0 sec)
# of grid points (after weights+screening)   ...  45154 (   0.5 sec)
nearest neighbour list constructed           ...    0.0 sec
Grid point re-assignment to atoms done       ...    0.0 sec
Grid point division into batches done        ...    0.0 sec
Reduced shell lists constructed in    0.2 sec

Total number of grid points                  ...    45154
Total number of batches                      ...      759
Average number of points per batch           ...       59
Average number of grid points per atom       ...      466
Average number of shells per batch           ...   161.85 (17.92%)
Average number of basis functions per batch  ...   430.55 (17.86%)
Average number of large shells per batch     ...   105.55 (65.22%)
Average number of large basis fcns per batch ...   286.85 (66.62%)
Maximum spatial batch extension              ...  23.94, 22.05, 16.77 au
Average spatial batch extension              ...   0.97,  0.94,  0.65 au

Overlap Fitting                  UseSFitting ... on
Constructing numerical overlap ... done (      0.6 sec)
Inverting numerical overlap    ... done (      0.5 sec)
Obtaining analytic overlap     ... done (      0.0 sec)
Final contraction and storage  ... done (      3.0 sec)


General Integration Accuracy     IntAcc      ...  3.670
Radial Grid Type                 RadialGrid  ... Gauss-Chebyshev
Angular Grid (max. acc.)         AngularGrid ... Lebedev-50
Angular grid pruning method      GridPruning ... 3 (G Style)
Weight generation scheme         WeightScheme... Becke
Basis function cutoff            BFCut       ...    1.0000e-11
Integration weight cutoff        WCut        ...    1.0000e-14
Grids for H and He will be reduced by one unit

# of grid points (after initial pruning)     ...  62890 (   0.0 sec)
# of grid points (after weights+screening)   ...  55970 (   0.7 sec)
nearest neighbour list constructed           ...    0.0 sec
Grid point re-assignment to atoms done       ...    0.0 sec
Grid point division into batches done        ...    0.0 sec
Reduced shell lists constructed in    0.2 sec

Total number of grid points                  ...    55970
Total number of batches                      ...      929
Average number of points per batch           ...       60
Average number of grid points per atom       ...      577
Average number of shells per batch           ...   159.12 (17.62%)
Average number of basis functions per batch  ...   423.55 (17.57%)
Average number of large shells per batch     ...   103.21 (64.86%)
Average number of large basis fcns per batch ...   279.95 (66.10%)
Maximum spatial batch extension              ...  20.74, 21.72, 17.25 au
Average spatial batch extension              ...   0.89,  0.87,  0.62 au

Overlap Fitting                  UseSFitting ... on
Constructing numerical overlap ... done (      0.7 sec)
Inverting numerical overlap    ... done (      0.5 sec)
Obtaining analytic overlap     ... done (      0.0 sec)
Final contraction and storage  ... done (      3.1 sec)


General Integration Accuracy     IntAcc      ...  4.010
Radial Grid Type                 RadialGrid  ... Gauss-Chebyshev
Angular Grid (max. acc.)         AngularGrid ... Lebedev-110
Angular grid pruning method      GridPruning ... 3 (G Style)
Weight generation scheme         WeightScheme... Becke
Basis function cutoff            BFCut       ...    1.0000e-11
Integration weight cutoff        WCut        ...    1.0000e-14
Grids for H and He will be reduced by one unit

# of grid points (after initial pruning)     ... 123076 (   0.0 sec)
# of grid points (after weights+screening)   ... 108637 (   1.3 sec)
nearest neighbour list constructed           ...    0.0 sec
Grid point re-assignment to atoms done       ...    0.0 sec
Grid point division into batches done        ...    0.1 sec
Reduced shell lists constructed in    0.5 sec

Total number of grid points                  ...   108637
Total number of batches                      ...     1744
Average number of points per batch           ...       62
Average number of grid points per atom       ...     1120
Average number of shells per batch           ...   150.51 (16.67%)
Average number of basis functions per batch  ...   400.12 (16.60%)
Average number of large shells per batch     ...    97.68 (64.90%)
Average number of large basis fcns per batch ...   264.13 (66.01%)
Maximum spatial batch extension              ...  22.91, 23.78, 15.57 au
Average spatial batch extension              ...   0.67,  0.66,  0.50 au

Overlap Fitting                  UseSFitting ... on
Constructing numerical overlap ... done (      1.8 sec)
Inverting numerical overlap    ... done (      0.9 sec)
Obtaining analytic overlap     ... done (      0.0 sec)
Final contraction and storage  ... done (      4.5 sec)

Time for X-Grid setup             =   19.566 sec
--------------
SCF ITERATIONS
--------------
ITER       Energy         Delta-E        Max-DP      RMS-DP      [F,P]     Damp
               ***  Starting incremental Fock matrix formation  ***
  0  -6414.7640879388   0.000000000000 0.13825370  0.00095788  0.3032202 0.7000
  1  -6415.5584516875  -0.794363748735 0.13889121  0.00084470  0.0996053 0.7000
                               ***Turning on DIIS***
  2  -6415.8293466741  -0.270894986588 0.26239093  0.00132033  0.0429016 0.0000
  3  -6416.3006646073  -0.471317933165 0.13698413  0.00073577  0.0652515 0.0000
  4  -6416.3937674240  -0.093102816716 0.04578461  0.00025791  0.0364336 0.0000
  5  -6416.4066950902  -0.012927666201 0.02466178  0.00012141  0.0095857 0.0000
                      *** Initiating the SOSCF procedure ***
                           *** Shutting down DIIS ***
                      *** Re-Reading the Fockian *** 
                      *** Removing any level shift *** 
ITER      Energy       Delta-E        Grad      Rot      Max-DP    RMS-DP
  6  -6416.40761047  -0.0009153817  0.001048  0.001048  0.008408  0.000036
               *** Restarting incremental Fock matrix formation ***
  7  -6416.40774521  -0.0001347387  0.000546  0.006516  0.013041  0.000082
  8  -6416.40776271  -0.0000174994  0.000426  0.005495  0.006649  0.000040
  9  -6416.40777332  -0.0000106103  0.000553  0.004536  0.006980  0.000037
 10  -6416.40778045  -0.0000071316  0.000218  0.001091  0.002419  0.000015
 11  -6416.40778340  -0.0000029477  0.000129  0.001065  0.002519  0.000014
 12  -6416.40778433  -0.0000009296  0.000096  0.000396  0.000957  0.000006
 13  -6416.40778522  -0.0000008935  0.000040  0.000471  0.001240  0.000007
 14  -6416.40778579  -0.0000005716  0.000037  0.000123  0.000556  0.000002
 15  -6416.40778593  -0.0000001369  0.000022  0.000286  0.000927  0.000003
 16  -6416.40778584   0.0000000931  0.000016  0.000049  0.000444  0.000002
 17  -6416.40778594  -0.0000001060  0.000009  0.000133  0.000541  0.000002
 18  -6416.40778611  -0.0000001635  0.000007  0.000047  0.000573  0.000002
 19  -6416.40778596   0.0000001503  0.000004  0.000031  0.000864  0.000002
 20  -6416.40778586   0.0000001010  0.000003  0.000031  0.000431  0.000001
                  ***Gradient check signals convergence***
              ***Rediagonalizing the Fockian in SOSCF/NRSCF***

               *****************************************************
               *                     SUCCESS                       *
               *           SCF CONVERGED AFTER  21 CYCLES          *
               *****************************************************

Setting up the final grid:

General Integration Accuracy     IntAcc      ...  5.010
Radial Grid Type                 RadialGrid  ... Gauss-Chebyshev
Angular Grid (max. acc.)         AngularGrid ... Lebedev-434
Angular grid pruning method      GridPruning ... 3 (G Style)
Weight generation scheme         WeightScheme... Becke
Basis function cutoff            BFCut       ...    1.0000e-11
Integration weight cutoff        WCut        ...    1.0000e-14
Grids for H and He will be reduced by one unit

# of grid points (after initial pruning)     ... 942928 (   0.0 sec)
# of grid points (after weights+screening)   ... 804785 (   9.2 sec)
nearest neighbour list constructed           ...    0.0 sec
Grid point re-assignment to atoms done       ...    0.1 sec
Grid point division into batches done        ...    5.7 sec
Reduced shell lists constructed in    8.0 sec

Total number of grid points                  ...   804785
Total number of batches                      ...    12617
Average number of points per batch           ...       63
Average number of grid points per atom       ...     8297
Average number of shells per batch           ...   130.01 (14.40%)
Average number of basis functions per batch  ...   342.50 (14.21%)
Average number of large shells per batch     ...    82.93 (63.78%)
Average number of large basis fcns per batch ...   221.96 (64.81%)
Maximum spatial batch extension              ...  21.53, 20.45, 20.25 au
Average spatial batch extension              ...   0.32,  0.31,  0.30 au

Final grid set up in   18.7 sec
Final integration                            ... done (   8.8 sec)
Change in XC energy                          ...    -0.000122975
Integrated number of electrons               ...   557.999998186
Previous integrated no of electrons          ...   558.000201273
Old exchange energy                            =   -116.676413112 Eh
New exchange energy                            =   -116.678786995 Eh
Exchange energy change after final integration =     -0.002373883 Eh
Total energy after final integration           =  -6416.410282880 Eh
Final COS-X integration done in                =   256.148 sec

----------------
TOTAL SCF ENERGY
----------------

Total Energy       :        -6416.41028288 Eh         -174599.40026 eV

Components:
Nuclear Repulsion  :        11704.13454567 Eh          318485.69249 eV
Electronic Energy  :       -18120.54482855 Eh         -493085.09275 eV
One Electron Energy:       -32124.53803346 Eh         -874153.12098 eV
Two Electron Energy:        14003.99320491 Eh          381068.02823 eV

Virial components:
Potential Energy   :       -12814.63768511 Eh         -348704.01918 eV
Kinetic Energy     :         6398.22740223 Eh          174104.61892 eV
Virial Ratio       :            2.00284186


DFT components:
N(Alpha)           :      278.999999093139 electrons
N(Beta)            :      278.999999093139 electrons
N(Total)           :      557.999998186278 electrons
E(X)               :     -463.757383546870 Eh       
E(C)               :      -23.840215240854 Eh       
E(XC)              :     -487.597598787724 Eh       
DFET-embed. en.    :        0.000000000000 Eh       

---------------
SCF CONVERGENCE
---------------

  Last Energy change         ...   -1.6574e-07  Tolerance :   1.0000e-08
  Last MAX-Density change    ...    4.4409e-15  Tolerance :   1.0000e-07
  Last RMS-Density change    ...    1.4853e-17  Tolerance :   5.0000e-09
  Last Orbital Gradient      ...    2.1499e-06  Tolerance :   1.0000e-05
  Last Orbital Rotation      ...    7.8345e-06  Tolerance :   1.0000e-05

             **** THE GBW FILE WAS UPDATED (BTP-4Cl.gbw) ****
             **** DENSITY FILE WAS UPDATED (BTP-4Cl.scfp) ****
             **** ENERGY FILE WAS UPDATED (BTP-4Cl.en.tmp) ****
             **** THE GBW FILE WAS UPDATED (BTP-4Cl.gbw) ****
             **** DENSITY FILE WAS UPDATED (BTP-4Cl.scfp) ****
----------------
ORBITAL ENERGIES
----------------

  NO   OCC          E(Eh)            E(eV) 
   0   2.0000    -101.551363     -2763.3531 
   1   2.0000    -101.551277     -2763.3507 
   2   2.0000    -101.548530     -2763.2760 
   3   2.0000    -101.548122     -2763.2649 
   4   2.0000     -88.949696     -2420.4443 
   5   2.0000     -88.913969     -2419.4721 
   6   2.0000     -88.913281     -2419.4534 
   7   2.0000     -88.912158     -2419.4228 
   8   2.0000     -88.911005     -2419.3915 
   9   2.0000     -19.139859      -520.8220 
  10   2.0000     -19.139553      -520.8137 
  11   2.0000     -14.412824      -392.1929 
  12   2.0000     -14.406121      -392.0105 
  13   2.0000     -14.364683      -390.8829 
  14   2.0000     -14.364109      -390.8673 
  15   2.0000     -14.339497      -390.1976 
  16   2.0000     -14.339128      -390.1875 
  17   2.0000     -14.333470      -390.0335 
  18   2.0000     -14.333447      -390.0329 
  19   2.0000     -10.284189      -279.8470 
  20   2.0000     -10.283380      -279.8250 
  21   2.0000     -10.277078      -279.6535 
  22   2.0000     -10.276719      -279.6437 
  23   2.0000     -10.276466      -279.6369 
  24   2.0000     -10.275913      -279.6218 
  25   2.0000     -10.268009      -279.4067 
  26   2.0000     -10.265771      -279.3458 
  27   2.0000     -10.264341      -279.3069 
  28   2.0000     -10.264337      -279.3068 
  29   2.0000     -10.263358      -279.2802 
  30   2.0000     -10.263173      -279.2751 
  31   2.0000     -10.256844      -279.1029 
  32   2.0000     -10.252530      -278.9855 
  33   2.0000     -10.251212      -278.9497 
  34   2.0000     -10.250165      -278.9212 
  35   2.0000     -10.249664      -278.9075 
  36   2.0000     -10.248813      -278.8844 
  37   2.0000     -10.245579      -278.7964 
  38   2.0000     -10.245003      -278.7807 
  39   2.0000     -10.243092      -278.7287 
  40   2.0000     -10.243017      -278.7267 
  41   2.0000     -10.240419      -278.6560 
  42   2.0000     -10.239885      -278.6414 
  43   2.0000     -10.239807      -278.6393 
  44   2.0000     -10.238995      -278.6172 
  45   2.0000     -10.237462      -278.5755 
  46   2.0000     -10.236600      -278.5520 
  47   2.0000     -10.235613      -278.5252 
  48   2.0000     -10.234790      -278.5028 
  49   2.0000     -10.234462      -278.4939 
  50   2.0000     -10.233867      -278.4777 
  51   2.0000     -10.233781      -278.4753 
  52   2.0000     -10.233686      -278.4727 
  53   2.0000     -10.233533      -278.4686 
  54   2.0000     -10.233479      -278.4671 
  55   2.0000     -10.227472      -278.3037 
  56   2.0000     -10.225154      -278.2406 
  57   2.0000     -10.224967      -278.2355 
  58   2.0000     -10.224296      -278.2172 
  59   2.0000     -10.223809      -278.2040 
  60   2.0000     -10.222978      -278.1814 
  61   2.0000     -10.220580      -278.1161 
  62   2.0000     -10.219904      -278.0977 
  63   2.0000     -10.218472      -278.0588 
  64   2.0000     -10.217479      -278.0317 
  65   2.0000     -10.202489      -277.6238 
  66   2.0000     -10.202287      -277.6184 
  67   2.0000     -10.202069      -277.6124 
  68   2.0000     -10.201133      -277.5869 
  69   2.0000     -10.180528      -277.0262 
  70   2.0000     -10.179146      -276.9886 
  71   2.0000      -9.483610      -258.0621 
  72   2.0000      -9.483503      -258.0592 
  73   2.0000      -9.480780      -257.9851 
  74   2.0000      -9.480420      -257.9754 
  75   2.0000      -8.020121      -218.2386 
  76   2.0000      -7.988754      -217.3850 
  77   2.0000      -7.988189      -217.3697 
  78   2.0000      -7.986929      -217.3354 
  79   2.0000      -7.985799      -217.3046 
  80   2.0000      -7.245333      -197.1555 
  81   2.0000      -7.245242      -197.1531 
  82   2.0000      -7.242555      -197.0799 
  83   2.0000      -7.242161      -197.0692 
  84   2.0000      -7.236881      -196.9255 
  85   2.0000      -7.236764      -196.9223 
  86   2.0000      -7.236125      -196.9050 
  87   2.0000      -7.236021      -196.9021 
  88   2.0000      -7.234021      -196.8477 
  89   2.0000      -7.233669      -196.8381 
  90   2.0000      -7.233269      -196.8273 
  91   2.0000      -7.232908      -196.8174 
  92   2.0000      -5.984846      -162.8560 
  93   2.0000      -5.977799      -162.6642 
  94   2.0000      -5.976545      -162.6301 
  95   2.0000      -5.951860      -161.9584 
  96   2.0000      -5.951282      -161.9426 
  97   2.0000      -5.949831      -161.9031 
  98   2.0000      -5.948713      -161.8727 
  99   2.0000      -5.948100      -161.8560 
 100   2.0000      -5.947532      -161.8406 
 101   2.0000      -5.945785      -161.7930 
 102   2.0000      -5.944637      -161.7618 
 103   2.0000      -5.944384      -161.7549 
 104   2.0000      -5.943811      -161.7393 
 105   2.0000      -5.943045      -161.7185 
 106   2.0000      -5.941919      -161.6878 
 107   2.0000      -1.067030       -29.0354 
 108   2.0000      -1.066967       -29.0336 
 109   2.0000      -1.040932       -28.3252 
 110   2.0000      -1.027225       -27.9522 
 111   2.0000      -1.025335       -27.9008 
 112   2.0000      -0.946275       -25.7495 
 113   2.0000      -0.946143       -25.7459 
 114   2.0000      -0.938315       -25.5328 
 115   2.0000      -0.937857       -25.5204 
 116   2.0000      -0.932488       -25.3743 
 117   2.0000      -0.930937       -25.3321 
 118   2.0000      -0.923815       -25.1383 
 119   2.0000      -0.923446       -25.1282 
 120   2.0000      -0.908170       -24.7126 
 121   2.0000      -0.908005       -24.7081 
 122   2.0000      -0.907027       -24.6814 
 123   2.0000      -0.888685       -24.1823 
 124   2.0000      -0.881052       -23.9747 
 125   2.0000      -0.880850       -23.9692 
 126   2.0000      -0.877817       -23.8866 
 127   2.0000      -0.869494       -23.6601 
 128   2.0000      -0.853611       -23.2279 
 129   2.0000      -0.852103       -23.1869 
 130   2.0000      -0.836675       -22.7671 
 131   2.0000      -0.823598       -22.4112 
 132   2.0000      -0.820181       -22.3183 
 133   2.0000      -0.818934       -22.2843 
 134   2.0000      -0.818086       -22.2613 
 135   2.0000      -0.813012       -22.1232 
 136   2.0000      -0.794207       -21.6115 
 137   2.0000      -0.791498       -21.5378 
 138   2.0000      -0.784096       -21.3363 
 139   2.0000      -0.783874       -21.3303 
 140   2.0000      -0.783462       -21.3191 
 141   2.0000      -0.775677       -21.1072 
 142   2.0000      -0.759927       -20.6787 
 143   2.0000      -0.757415       -20.6103 
 144   2.0000      -0.746153       -20.3039 
 145   2.0000      -0.731404       -19.9025 
 146   2.0000      -0.729069       -19.8390 
 147   2.0000      -0.726424       -19.7670 
 148   2.0000      -0.710932       -19.3454 
 149   2.0000      -0.693203       -18.8630 
 150   2.0000      -0.691088       -18.8055 
 151   2.0000      -0.686200       -18.6724 
 152   2.0000      -0.683644       -18.6029 
 153   2.0000      -0.682001       -18.5582 
 154   2.0000      -0.663619       -18.0580 
 155   2.0000      -0.655272       -17.8308 
 156   2.0000      -0.652469       -17.7546 
 157   2.0000      -0.647310       -17.6142 
 158   2.0000      -0.640135       -17.4190 
 159   2.0000      -0.628834       -17.1114 
 160   2.0000      -0.626272       -17.0417 
 161   2.0000      -0.621669       -16.9165 
 162   2.0000      -0.621126       -16.9017 
 163   2.0000      -0.615713       -16.7544 
 164   2.0000      -0.602107       -16.3842 
 165   2.0000      -0.594612       -16.1802 
 166   2.0000      -0.592404       -16.1201 
 167   2.0000      -0.585240       -15.9252 
 168   2.0000      -0.575195       -15.6519 
 169   2.0000      -0.566632       -15.4188 
 170   2.0000      -0.562354       -15.3024 
 171   2.0000      -0.552830       -15.0433 
 172   2.0000      -0.551807       -15.0154 
 173   2.0000      -0.547404       -14.8956 
 174   2.0000      -0.544647       -14.8206 
 175   2.0000      -0.542315       -14.7572 
 176   2.0000      -0.533510       -14.5175 
 177   2.0000      -0.529635       -14.4121 
 178   2.0000      -0.521251       -14.1840 
 179   2.0000      -0.516383       -14.0515 
 180   2.0000      -0.514726       -14.0064 
 181   2.0000      -0.507713       -13.8156 
 182   2.0000      -0.506942       -13.7946 
 183   2.0000      -0.502801       -13.6819 
 184   2.0000      -0.498463       -13.5639 
 185   2.0000      -0.491395       -13.3715 
 186   2.0000      -0.487754       -13.2725 
 187   2.0000      -0.484639       -13.1877 
 188   2.0000      -0.482937       -13.1414 
 189   2.0000      -0.480000       -13.0615 
 190   2.0000      -0.479757       -13.0548 
 191   2.0000      -0.478744       -13.0273 
 192   2.0000      -0.472435       -12.8556 
 193   2.0000      -0.470576       -12.8050 
 194   2.0000      -0.469456       -12.7746 
 195   2.0000      -0.469281       -12.7698 
 196   2.0000      -0.466252       -12.6874 
 197   2.0000      -0.464644       -12.6436 
 198   2.0000      -0.463381       -12.6092 
 199   2.0000      -0.460196       -12.5226 
 200   2.0000      -0.458179       -12.4677 
 201   2.0000      -0.454678       -12.3724 
 202   2.0000      -0.447555       -12.1786 
 203   2.0000      -0.445024       -12.1097 
 204   2.0000      -0.444435       -12.0937 
 205   2.0000      -0.443201       -12.0601 
 206   2.0000      -0.441704       -12.0194 
 207   2.0000      -0.436243       -11.8708 
 208   2.0000      -0.434538       -11.8244 
 209   2.0000      -0.433810       -11.8046 
 210   2.0000      -0.430008       -11.7011 
 211   2.0000      -0.428944       -11.6722 
 212   2.0000      -0.425452       -11.5771 
 213   2.0000      -0.425420       -11.5763 
 214   2.0000      -0.423849       -11.5335 
 215   2.0000      -0.421385       -11.4665 
 216   2.0000      -0.418996       -11.4015 
 217   2.0000      -0.417586       -11.3631 
 218   2.0000      -0.416864       -11.3434 
 219   2.0000      -0.415034       -11.2937 
 220   2.0000      -0.412826       -11.2336 
 221   2.0000      -0.410449       -11.1689 
 222   2.0000      -0.405903       -11.0452 
 223   2.0000      -0.403345       -10.9756 
 224   2.0000      -0.403051       -10.9676 
 225   2.0000      -0.398514       -10.8441 
 226   2.0000      -0.397610       -10.8195 
 227   2.0000      -0.394804       -10.7432 
 228   2.0000      -0.392850       -10.6900 
 229   2.0000      -0.392551       -10.6818 
 230   2.0000      -0.391651       -10.6574 
 231   2.0000      -0.387928       -10.5560 
 232   2.0000      -0.384330       -10.4582 
 233   2.0000      -0.384239       -10.4557 
 234   2.0000      -0.383313       -10.4305 
 235   2.0000      -0.374987       -10.2039 
 236   2.0000      -0.374969       -10.2034 
 237   2.0000      -0.372672       -10.1409 
 238   2.0000      -0.369435       -10.0528 
 239   2.0000      -0.368195       -10.0191 
 240   2.0000      -0.368040       -10.0149 
 241   2.0000      -0.367224        -9.9927 
 242   2.0000      -0.366903        -9.9839 
 243   2.0000      -0.366494        -9.9728 
 244   2.0000      -0.366168        -9.9639 
 245   2.0000      -0.363848        -9.9008 
 246   2.0000      -0.362203        -9.8561 
 247   2.0000      -0.360648        -9.8137 
 248   2.0000      -0.356894        -9.7116 
 249   2.0000      -0.354879        -9.6568 
 250   2.0000      -0.353630        -9.6228 
 251   2.0000      -0.351313        -9.5597 
 252   2.0000      -0.347585        -9.4583 
 253   2.0000      -0.346861        -9.4386 
 254   2.0000      -0.346319        -9.4238 
 255   2.0000      -0.346035        -9.4161 
 256   2.0000      -0.344005        -9.3609 
 257   2.0000      -0.341751        -9.2995 
 258   2.0000      -0.336598        -9.1593 
 259   2.0000      -0.334592        -9.1047 
 260   2.0000      -0.326434        -8.8827 
 261   2.0000      -0.326200        -8.8763 
 262   2.0000      -0.318291        -8.6611 
 263   2.0000      -0.312293        -8.4979 
 264   2.0000      -0.309307        -8.4167 
 265   2.0000      -0.296906        -8.0792 
 266   2.0000      -0.289473        -7.8770 
 267   2.0000      -0.287539        -7.8243 
 268   2.0000      -0.286192        -7.7877 
 269   2.0000      -0.282079        -7.6758 
 270   2.0000      -0.281534        -7.6609 
 271   2.0000      -0.269396        -7.3306 
 272   2.0000      -0.268877        -7.3165 
 273   2.0000      -0.265854        -7.2342 
 274   2.0000      -0.262238        -7.1358 
 275   2.0000      -0.248022        -6.7490 
 276   2.0000      -0.239079        -6.5057 
 277   2.0000      -0.239010        -6.5038 
 278   2.0000      -0.211514        -5.7556 
 279   0.0000      -0.138340        -3.7644 
 280   0.0000      -0.127990        -3.4828 
 281   0.0000      -0.114182        -3.1071 
 282   0.0000      -0.111217        -3.0264 
 283   0.0000      -0.096577        -2.6280 
 284   0.0000      -0.070142        -1.9087 
 285   0.0000      -0.063208        -1.7200 
 286   0.0000      -0.039221        -1.0673 
 287   0.0000      -0.030484        -0.8295 
 288   0.0000      -0.026329        -0.7165 
 289   0.0000      -0.025984        -0.7071 
 290   0.0000      -0.019466        -0.5297 
 291   0.0000      -0.017928        -0.4879 
 292   0.0000      -0.017620        -0.4795 
 293   0.0000      -0.017146        -0.4666 
 294   0.0000      -0.012945        -0.3522 
 295   0.0000      -0.012249        -0.3333 
[...]
   Number of batches             ...     1
   Time for densities:    11.281
   Time for K (COSX):   305.949
   Time for XC-Integration:    11.091
   Time for Sigma-Completion:    21.999
   Size of expansion space: 9
   Lowest Energy          :     0.050536249019
   Maximum Energy change  :     0.080214777924 (vector 2)
   Maximum residual norm  :     0.000495374743

                       ****Iteration    1****
   Time for densities:     3.760
   Time for K (COSX):   229.382
   Time for XC-Integration:     3.754
   Time for Sigma-Completion:     9.078
   Size of expansion space: 12
   Lowest Energy          :     0.048173769843
   Maximum Energy change  :     0.004851174024 (vector 2)
   Maximum residual norm  :     0.000051094740

                       ****Iteration    2****
   Time for densities:     3.760
   Time for K (COSX):   224.534
   Time for XC-Integration:     3.868
   Time for Sigma-Completion:     6.825
   Size of expansion space: 15
   Lowest Energy          :     0.048079179736
   Maximum Energy change  :     0.000612361729 (vector 2)
   Maximum residual norm  :     0.000012909679
   Rebuilding the expansion space

                       ****Iteration    3****
   Time for densities:     7.521
   Time for K (COSX):   220.175
   Time for XC-Integration:     7.849
   Time for Sigma-Completion:    13.556
   Size of expansion space: 6
   Lowest Energy          :     0.048075558526
   Maximum Energy change  :     0.000116984127 (vector 2)
   Maximum residual norm  :     0.000003015027

                       ****Iteration    4****
   Time for densities:     3.761
   Time for K (COSX):   223.278
   Time for XC-Integration:     3.818
   Time for Sigma-Completion:     6.827
   Size of expansion space: 9
   Lowest Energy          :     0.048075244710
   Maximum Energy change  :     0.000024822299 (vector 2)
   Maximum residual norm  :     0.000001759387

                       ****Iteration    5****
   Time for densities:     3.761
   Time for K (COSX):   221.341
   Time for XC-Integration:     3.900
   Time for Sigma-Completion:     6.806
   Size of expansion space: 12
   Lowest Energy          :     0.048075230786
   Maximum Energy change  :     0.000025193976 (vector 2)
   Maximum residual norm  :     0.000001297107

                       ****Iteration    6****
   Time for densities:     3.762
   Time for K (COSX):   221.953
   Time for XC-Integration:     4.216
   Time for Sigma-Completion:    10.468
   Size of expansion space: 15
   Lowest Energy          :     0.048075230319
   Maximum Energy change  :     0.000011968855 (vector 2)
   Maximum residual norm  :     0.000000148457

      *** CONVERGENCE OF RESIDUAL NORM REACHED ***

Storing the converged CI vectors               ... BTP-4Cl.cis3

                 *** DAVIDSON DONE ***

------------------------------------
TD-DFT/TDA EXCITED STATES (TRIPLETS)
------------------------------------

the weight of the individual excitations are printed if larger than 1.0e-02

STATE  1:  E=   0.048075 au      1.308 eV    10551.3 cm**-1
   276a -> 280a  :     0.054033 (c=  0.23244994)
   278a -> 279a  :     0.904858 (c=  0.95124002)

STATE  2:  E=   0.057309 au      1.559 eV    12577.8 cm**-1
   274a -> 280a  :     0.013514 (c=  0.11624881)
   276a -> 279a  :     0.229084 (c= -0.47862729)
   278a -> 280a  :     0.702877 (c= -0.83837777)
   278a -> 282a  :     0.025888 (c= -0.16089697)

STATE  3:  E=   0.074572 au      2.029 eV    16366.7 cm**-1
   273a -> 280a  :     0.012656 (c= -0.11249773)
   274a -> 279a  :     0.065838 (c=  0.25658935)
   274a -> 281a  :     0.017230 (c= -0.13126349)
   276a -> 280a  :     0.124544 (c= -0.35290806)
   276a -> 282a  :     0.047013 (c=  0.21682573)
   278a -> 281a  :     0.659084 (c=  0.81183980)
   278a -> 283a  :     0.028646 (c= -0.16925275)

------------------------------
TD-DFT/TDA SPIN-ORBIT COUPLING
------------------------------

Calculating the spin-orbit integrals:             

Loading the effective charges         ... done
Entering the SOC calc. section        ... 
------------------------------------------------------------------------------
                         ORCA SPIN-ORBIT COUPLING CALCULATION
------------------------------------------------------------------------------

GBW file                                    ... BTP-4Cl.gbw
Input density                               ... BTP-4Cl.cisp0
Output integrals                            ... BTP-4Cl.cis
Operator type                               ... Mean-field/Effective potential
   One-Electron Terms                       ... 1
   Coulomb Contribution                     ... 2
   Exchange Contribution                    ... 3
   Correlation Contribution                 ... 0
   Maximum number of centers                ... 4
Setting up the integration grid             ... done
Evaluating density on the grid              ... (NumEl=  558.000201) done
Evaluating Coulomb term semi-analytically   ... done
One-Center Exchange (+SOO)                  ... done
Evaluating the spin-orbit operator          ... done
Transforming the SOC integrals              ... done
Constructing the SOC matrix:                ... done
Diagonalizing the SOC matrix:               ... done

      --------------------------------------------------------------------------------
                      CALCULATED SOCME BETWEEN TRIPLETS AND SINGLETS                  
      --------------------------------------------------------------------------------
           Root                          <T|HSO|S>  (Re, Im) cm-1                     
         T      S             Z                     X                     Y           
      --------------------------------------------------------------------------------
         1      0    (   0.00 ,    0.15 )    (   0.00 ,    0.30 )    (  -0.00 ,    0.17 )
         1      1    (   0.00 ,    0.03 )    (   0.00 ,    0.03 )    (  -0.00 ,    0.04 )
         1      2    (   0.00 ,    0.19 )    (   0.00 ,    0.13 )    (  -0.00 ,    0.11 )
         1      3    (   0.00 ,    0.11 )    (   0.00 ,    0.03 )    (  -0.00 ,    0.04 )
         2      0    (   0.00 ,   -0.27 )    (   0.00 ,    0.24 )    (  -0.00 ,    0.23 )
         2      1    (   0.00 ,    0.14 )    (   0.00 ,   -0.03 )    (  -0.00 ,   -0.05 )
         2      2    (   0.00 ,   -0.03 )    (   0.00 ,    0.01 )    (  -0.00 ,    0.02 )
         2      3    (   0.00 ,   -0.12 )    (   0.00 ,   -0.04 )    (  -0.00 ,   -0.01 )
         3      0    (   0.00 ,   -0.07 )    (   0.00 ,   -0.20 )    (  -0.00 ,   -0.27 )
         3      1    (   0.00 ,    0.01 )    (   0.00 ,   -0.00 )    (  -0.00 ,   -0.00 )
         3      2    (   0.00 ,   -0.02 )    (   0.00 ,    0.01 )    (  -0.00 ,    0.01 )
         3      3    (   0.00 ,    0.04 )    (   0.00 ,    0.02 )    (  -0.00 ,    0.03 )

SOC stabilization of the ground state:  -0.0000 cm-1
Eigenvalues of the SOC matrix:

   State:        cm-1         eV
     0:          0.00         0.0000
     1:      10551.29         1.3082
     2:      10551.29         1.3082
     3:      10551.29         1.3082
     4:      12577.83         1.5595
     5:      12577.83         1.5595
     6:      12577.83         1.5595
     7:      15023.71         1.8627
     8:      16366.72         2.0292
     9:      16366.72         2.0292
    10:      16366.72         2.0292
    11:      17136.68         2.1247
    12:      18921.35         2.3459

The threshold for printing is 0.0100
Eigenvectors of the SOC matrix:

             E(cm-1)  Weight      Real         Imag     : Root  Spin  Ms
 STATE  0:      0.00
                      1.00000      0.81390      0.58101 : 0     0     0
 STATE  1:  10551.29
                      0.94843     -0.89292      0.38874 : 1     1     0
                      0.02578      0.13803     -0.08205 : 1     1    -1
                      0.02578     -0.15410      0.04513 : 1     1     1
 STATE  2:  10551.29
                      0.49531      0.63843      0.29618 : 1     1    -1
                      0.49531      0.01690      0.70358 : 1     1     1
 STATE  3:  10551.29
                      0.04219     -0.11544     -0.16989 : 1     1     0
                      0.47891     -0.63812     -0.26779 : 1     1    -1
                      0.47891      0.01398      0.69189 : 1     1     1
 STATE  4:  12577.83
                      0.36678      0.59345     -0.12082 : 2     1     0
                      0.31661      0.02603     -0.56208 : 2     1    -1
                      0.31661     -0.24372     -0.50716 : 2     1     1
 STATE  5:  12577.83
                      0.16871     -0.31373      0.26512 : 2     1     0
                      0.41564     -0.64119      0.06727 : 2     1    -1
                      0.41564      0.17326     -0.62099 : 2     1     1
 STATE  6:  12577.83
                      0.46451     -0.35128     -0.58404 : 2     1     0
                      0.26775      0.45690      0.24287 : 2     1    -1
                      0.26775     -0.00040     -0.51744 : 2     1     1
 STATE  7:  15023.71
                      1.00000     -0.93172     -0.36319 : 1     0     0
 STATE  8:  16366.72
                      0.89823     -0.91422      0.24988 : 3     1     0
                      0.05088     -0.19421      0.11474 : 3     1    -1
                      0.05088      0.22557     -0.00000 : 3     1     1
 STATE  9:  16366.72
                      0.05776     -0.21345     -0.11044 : 3     1     0
                      0.47112      0.39649      0.56028 : 3     1    -1
                      0.47112     -0.68638      0.00000 : 3     1     1
 STATE 10:  16366.72
                      0.04401     -0.08637      0.19117 : 3     1     0
                      0.47799     -0.45699     -0.51880 : 3     1    -1
                      0.47800     -0.69137      0.00000 : 3     1     1
 STATE 11:  17136.68
                      1.00000     -0.61215     -0.79074 : 2     0     0
 STATE 12:  18921.35
                      1.00000     -0.79335     -0.60876 : 3     0     0

-----------------------------
TD-DFT/TDA-EXCITATION SPECTRA
-----------------------------

Center of mass = ( 17.7992, -4.8500, -1.9902)
Calculating the Dipole integrals                  ... done
Transforming integrals                            ... done
Calculating the Linear Momentum integrals         ... done
Transforming integrals                            ... done
Calculating angular momentum integrals            ... done
Transforming integrals                            ... done

-----------------------------------------------------------------------------
         ABSORPTION SPECTRUM VIA TRANSITION ELECTRIC DIPOLE MOMENTS
-----------------------------------------------------------------------------
State   Energy    Wavelength  fosc         T2        TX        TY        TZ  
        (cm-1)      (nm)                 (au**2)    (au)      (au)      (au) 
-----------------------------------------------------------------------------
   1   15023.7    665.6   2.557322985  56.03816   4.42214  -4.73352  -3.75189
   2   17136.7    583.5   0.093153003   1.78956   0.52980  -0.45768   1.13991
   3   18921.4    528.5   0.203035123   3.53260   1.10083  -1.20792  -0.92828
   4   10551.3    947.8   spin forbidden (mult=3)
   5   12577.8    795.0   spin forbidden (mult=3)
   6   16366.7    611.0   spin forbidden (mult=3)

-----------------------------------------------------------------------------
         ABSORPTION SPECTRUM VIA TRANSITION VELOCITY DIPOLE MOMENTS
-----------------------------------------------------------------------------
State   Energy    Wavelength   fosc        P2         PX        PY        PZ  
        (cm-1)      (nm)                 (au**2)     (au)      (au)      (au) 
-----------------------------------------------------------------------------
   1   15023.7    665.6   0.474926578   0.04877  -0.13087   0.13591   0.11475
   2   17136.7    583.5   0.000186967   0.00002  -0.00419  -0.00206   0.00024
   3   18921.4    528.5   0.161264728   0.02085  -0.08510   0.08753   0.07714
   4   10551.3    947.8   spin forbidden (mult=3)
   5   12577.8    795.0   spin forbidden (mult=3)
   6   16366.7    611.0   spin forbidden (mult=3)

-------------------------------------------------------------------
                             CD SPECTRUM
-------------------------------------------------------------------
State  Energy     Wavelength     R         MX        MY        MZ   
       (cm-1)       (nm)     (1e40*cgs)   (au)      (au)      (au)  
-------------------------------------------------------------------
   1   15023.7    665.6     21.90782   1.28579   1.26780  -0.09640
   2   17136.7    583.5     -6.92556  -0.00649   0.00886  -0.00631
   3   18921.4    528.5     12.41410   0.26515   0.24268  -0.02971
   4   10551.3    947.8 spin forbidden
   5   12577.8    795.0 spin forbidden
   6   16366.7    611.0 spin forbidden

-------------------------------------------
SOC CORRECTED TD-DFT/TDA-EXCITATION SPECTRA
--------------------------------------------

-----------------------------------------------------------------------------
  SOC CORRECTED ABSORPTION SPECTRUM VIA TRANSITION ELECTRIC DIPOLE MOMENTS*  
-----------------------------------------------------------------------------
State   Energy  Wavelength   fosc         T2         TX        TY        TZ  
        (cm-1)    (nm)                  (au**2)     (au)      (au)      (au) 
-----------------------------------------------------------------------------
   1   10551.3    947.8   0.000000001   0.00000   0.00012   0.00013   0.00008
   2   10551.3    947.8   0.000000000   0.00000   0.00001   0.00001   0.00001
   3   10551.3    947.8   0.000000000   0.00000   0.00002   0.00002   0.00001
   4   12577.8    795.0   0.000000000   0.00000   0.00005   0.00006   0.00004
   5   12577.8    795.0   0.000000000   0.00000   0.00004   0.00004   0.00003
   6   12577.8    795.0   0.000000009   0.00000   0.00030   0.00032   0.00020
   7   15023.7    665.6   2.557322978  56.03816   4.42214   4.73352   3.75189
   8   16366.7    611.0   0.000000000   0.00000   0.00003   0.00003   0.00005
   9   16366.7    611.0   0.000000000   0.00000   0.00004   0.00004   0.00001
  10   16366.7    611.0   0.000000002   0.00000   0.00012   0.00012   0.00005
  11   17136.7    583.5   0.093152998   1.78956   0.52980   0.45768   1.13991
  12   18921.4    528.5   0.203035121   3.53260   1.10083   1.20792   0.92828

-----------------------------------------------------------------------------
  SOC CORRECTED ABSORPTION SPECTRUM VIA TRANSITION VELOCITY DIPOLE MOMENTS*  
-----------------------------------------------------------------------------
State   Energy  Wavelength   fosc         P2         PX        PY        PZ  
        (cm-1)    (nm)                  (au**2)     (au)      (au)      (au) 
-----------------------------------------------------------------------------
   1   10551.3    947.8   0.000000000   0.00000   0.00000   0.00000   0.00000
   2   10551.3    947.8   0.000000000   0.00000   0.00000   0.00000   0.00000
   3   10551.3    947.8   0.000000000   0.00000   0.00000   0.00000   0.00000
   4   12577.8    795.0   0.000000000   0.00000   0.00000   0.00000   0.00000
   5   12577.8    795.0   0.000000000   0.00000   0.00000   0.00000   0.00000
   6   12577.8    795.0   0.000000002   0.00000   0.00001   0.00001   0.00001
   7   15023.7    665.6   0.474926574   0.04877   0.13087   0.13591   0.11475
   8   16366.7    611.0   0.000000000   0.00000   0.00000   0.00000   0.00000
   9   16366.7    611.0   0.000000000   0.00000   0.00000   0.00000   0.00000
  10   16366.7    611.0   0.000000000   0.00000   0.00000   0.00000   0.00000
  11   17136.7    583.5   0.000186967   0.00002   0.00419   0.00206   0.00024
  12   18921.4    528.5   0.161264727   0.02085   0.08510   0.08753   0.07714

-------------------------------------------------------------------
                    SOC CORRECTED CD SPECTRUM*                     
-------------------------------------------------------------------
State   Energy Wavelength       R         MX        MY        MZ   
        (cm-1)   (nm)       (1e40*sgs)   (au)      (au)      (au)  
-------------------------------------------------------------------
   1   10551.3    947.8      0.00000   0.00000   0.00000   0.00000
   2   10551.3    947.8      0.00000   0.00001   0.00001   0.00000
   3   10551.3    947.8      0.00000   0.00002   0.00002   0.00000
   4   12577.8    795.0      0.00000   0.00001   0.00001   0.00000
   5   12577.8    795.0      0.00000   0.00003   0.00003   0.00000
   6   12577.8    795.0      0.00000   0.00007   0.00007   0.00001
   7   15023.7    665.6     21.90782   1.28579   1.26780   0.09640
   8   16366.7    611.0      0.00000   0.00001   0.00001   0.00000
   9   16366.7    611.0      0.00000   0.00001   0.00001   0.00000
  10   16366.7    611.0      0.00000   0.00001   0.00001   0.00000
  11   17136.7    583.5      6.92556   0.00649   0.00886   0.00631
  12   18921.4    528.5     12.41410   0.26515   0.24268   0.02971

*The X,Y and Z components are the absolute values of the complex numbers

Total run time:     6450.597 sec

           *** ORCA-CIS/TD-DFT FINISHED WITHOUT ERROR ***

---------------------------
SOC CIS/TD-DFT TOTAL ENERGY
---------------------------

    E(SCF)        =  -6416.410282880 Eh
    E(SOC CIS)    =      0.048075230 Eh (SOC Root  1)
    ----------------------------- ---------
    E(tot)        =  -6416.362207649 Eh


-------------------------   --------------------
FINAL SINGLE POINT ENERGY     -6416.362207649372
-------------------------   --------------------


                            ***************************************
                            *     ORCA property calculations      *
                            ***************************************

                                    ---------------------
                                    Active property flags
                                    ---------------------
   (+) Dipole Moment


------------------------------------------------------------------------------
                       ORCA ELECTRIC PROPERTIES CALCULATION
------------------------------------------------------------------------------

Dipole Moment Calculation                       ... on
Quadrupole Moment Calculation                   ... off
Polarizability Calculation                      ... off
GBWName                                         ... BTP-4Cl.gbw
Electron density file                           ... BTP-4Cl.scfp
The origin for moment calculation is the CENTER OF MASS  = (17.799213, -4.849981 -1.990233)

-------------
DIPOLE MOMENT
-------------
                                X             Y             Z
Electronic contribution:    -22.83019      19.94065     -52.68345
Nuclear contribution   :     23.04378     -19.79550      52.73781
                        -----------------------------------------
Total Dipole Moment    :      0.21359       0.14516       0.05436
                        -----------------------------------------
Magnitude (a.u.)       :      0.26391
Magnitude (Debye)      :      0.67080



--------------------
Rotational spectrum 
--------------------
 
Rotational constants in cm-1:     0.000960     0.000268     0.000211 
Rotational constants in MHz :    28.768080     8.045106     6.324482 

 Dipole components along the rotational axes: 
x,y,z [a.u.] :    -0.007437     0.073856    -0.253254 
x,y,z [Debye]:    -0.018904     0.187727    -0.643720 

 

Timings for individual modules:

Sum of individual times         ...     9534.849 sec (= 158.914 min)
GTO integral calculation        ...       12.286 sec (=   0.205 min)   0.1 %
SCF iterations                  ...     3068.225 sec (=  51.137 min)  32.2 %
CIS module                      ...     6454.338 sec (= 107.572 min)  67.7 %
                             ****ORCA TERMINATED NORMALLY****
TOTAL RUN TIME: 0 days 2 hours 38 minutes 58 seconds 744 msec
