
                                 *****************
                                 * O   R   C   A *
                                 *****************

           --- An Ab Initio, DFT and Semiempirical electronic structure package ---

                  #######################################################
                  #                        -***-                        #
                  #          Department of theory and spectroscopy      #
                  #               Directorship: Frank Neese             #
                  #        Max Planck Institute fuer Kohlenforschung    #
                  #                Kaiser Wilhelm Platz 1               #
                  #                 D-45470 Muelheim/Ruhr               #
                  #                      Germany                        #
                  #                                                     #
                  #                  All rights reserved                #
                  #                        -***-                        #
                  #######################################################


                         Program Version 4.2.0 -  RELEASE  -


 With contributions from (in alphabetic order):
   Daniel Aravena         : Magnetic Suceptibility
   Michael Atanasov       : Ab Initio Ligand Field Theory (pilot matlab implementation)
   Alexander A. Auer      : GIAO ZORA, VPT2
   Ute Becker             : Parallelization
   Giovanni Bistoni       : ED, misc. LED, open-shell LED, HFLED
   Martin Brehm           : Molecular dynamics
   Dmytro Bykov           : SCF Hessian
   Vijay G. Chilkuri      : MRCI spin determinant printing, contributions to CSF-ICE
   Dipayan Datta          : RHF DLPNO-CCSD density
   Achintya Kumar Dutta   : EOM-CC, STEOM-CC
   Dmitry Ganyushin       : Spin-Orbit,Spin-Spin,Magnetic field MRCI
   Miquel Garcia          : C-PCM Hessian, Gaussian charge scheme
   Yang Guo               : DLPNO-NEVPT2, CIM, IAO-localization
   Andreas Hansen         : Spin unrestricted coupled pair/coupled cluster methods
   Benjamin Helmich-Paris : CASSCF linear response (MC-RPA)
   Lee Huntington         : MR-EOM, pCC
   Robert Izsak           : Overlap fitted RIJCOSX, COSX-SCS-MP3, EOM
   Christian Kollmar      : KDIIS, OOCD, Brueckner-CCSD(T), CCSD density
   Simone Kossmann        : Meta GGA functionals, TD-DFT gradient, OOMP2, MP2 Hessian
   Martin Krupicka        : AUTO-CI
   Lucas Lang             : DCDCAS
   Dagmar Lenk            : GEPOL surface, SMD
   Dimitrios Liakos       : Extrapolation schemes; Compound Job, initial MDCI parallelization
   Dimitrios Manganas     : Further ROCIS development; embedding schemes
   Dimitrios Pantazis     : SARC Basis sets
   Taras Petrenko         : DFT Hessian,TD-DFT gradient, ASA, ECA, R-Raman, ABS, FL, XAS/XES, NRVS
   Peter Pinski           : DLPNO-MP2, DLPNO-MP2 Gradient
   Christoph Reimann      : Effective Core Potentials
   Marius Retegan         : Local ZFS, SOC
   Christoph Riplinger    : Optimizer, TS searches, QM/MM, DLPNO-CCSD(T), (RO)-DLPNO pert. Triples
   Tobias Risthaus        : Range-separated hybrids, TD-DFT gradient, RPA, STAB
   Michael Roemelt        : Original ROCIS implementation
   Masaaki Saitow         : Open-shell DLPNO-CCSD energy and density
   Barbara Sandhoefer     : DKH picture change effects
   Avijit Sen             : IP-ROCIS
   Kantharuban Sivalingam : CASSCF convergence, NEVPT2, FIC-MRCI
   Bernardo de Souza      : ESD, SOC TD-DFT
   Georgi Stoychev        : AutoAux, RI-MP2 NMR
   Willem Van den Heuvel  : Paramagnetic NMR
   Boris Wezisla          : Elementary symmetry handling
   Frank Wennmohs         : Technical directorship


 We gratefully acknowledge several colleagues who have allowed us to
 interface, adapt or use parts of their codes:
   Stefan Grimme, W. Hujo, H. Kruse,             : VdW corrections, initial TS optimization,
                  C. Bannwarth                     DFT functionals, gCP, sTDA/sTD-DF
   Ed Valeev, F. Pavosevic, A. Kumar             : LibInt (2-el integral package), F12 methods
   Garnet Chan, S. Sharma, J. Yang, R. Olivares  : DMRG
   Ulf Ekstrom                                   : XCFun DFT Library
   Mihaly Kallay                                 : mrcc  (arbitrary order and MRCC methods)
   Andreas Klamt, Michael Diedenhofen            : otool_cosmo (COSMO solvation model)
   Jiri Pittner, Ondrej Demel                    : Mk-CCSD
   Frank Weinhold                                : gennbo (NPA and NBO analysis)
   Christopher J. Cramer and Donald G. Truhlar   : smd solvation model
   Lars Goerigk                                  : TD-DFT with DH, B97 family of functionals
   V. Asgeirsson, H. Jonsson                     : NEB implementation
   FAccTs GmbH                                   : IRC, NEB, NEB-TS, Multilevel, MM, QM/MM, CI optimization
   S Lehtola, MJT Oliveira, MAL Marques          : LibXC Library


 Your calculation uses the libint2 library for the computation of 2-el integrals
 For citations please refer to: http://libint.valeyev.net

 Your ORCA version has been built with support for libXC version: 4.2.3
 For citations please refer to: https://tddft.org/programs/libxc/

 This ORCA versions uses:
   CBLAS   interface :  Fast vector & matrix operations
   LAPACKE interface :  Fast linear algebra routines
   SCALAPACK package :  Parallel linear algebra routines


----- Orbital basis set information -----
Your calculation utilizes the basis: def2-TZVP
   F. Weigend and R. Ahlrichs, Phys. Chem. Chem. Phys. 7, 3297 (2005).

----- AuxJ basis set information -----
Your calculation utilizes the auxiliary basis: def2/J
   F. Weigend, Phys. Chem. Chem. Phys. 8, 1057 (2006).

================================================================================
                                        WARNINGS
                       Please study these warnings very carefully!
================================================================================

INFO   : Checking CIS options ...

WARNING: (CIS/TDDFT): Spin-orbit needs TRIPLETS set to TRUE
  ===> : ajusting flags

WARNING: CIS/ROCIS methods need fully converged wavefunctions
  ===> : Setting SCFConvForced true
         You can overwrite this default with %scf ConvForced false 


INFO   : the flag for use of LIBINT has been found!

================================================================================
                                       INPUT FILE
================================================================================
NAME = DTG-IW.inp
|  1> # ORCA input file
|  2> # DTG-IW.out
|  3> ! B3LYP def2-TZVP def2/J RIJCOSX Grid4 TightSCF
|  4> 
|  5> %maxcore 2000
|  6> %tddft
|  7>   maxdim 5
|  8>   nroots 3
|  9>   dosoc true
| 10>   end
| 11> 
| 12> 
| 13> 
| 14> * xyz 0 1
| 15>    C       -0.30528         1.28489        -0.17324
| 16>    C        0.95704         1.00444         0.33258
| 17>    S        0.97359        -0.52248         1.04306
| 18>    C       -0.50656        -0.90230         0.35780
| 19>    C       -1.07103         0.16482        -0.25243
| 20>    C       -1.30599        -2.06847         0.40770
| 21>    C       -0.97557        -3.29722         0.10844
| 22>    C        0.31224        -3.94700        -0.24485
| 23>    C        1.56393        -3.40304        -0.59552
| 24>    C        2.59264        -4.52199        -0.58490
| 25>    N        3.44604        -5.45025        -0.57609
| 26>    C        2.05568        -2.11652        -0.98707
| 27>    N        2.55017        -1.12313        -1.31717
| 28>    C       -0.06478        -5.45965        -0.12901
| 29>    C        0.65137        -6.68587        -0.20364
| 30>    C       -0.00166        -7.92183        -0.07645
| 31>    F        0.72177        -9.06855        -0.11025
| 32>    C       -1.38522        -7.98167         0.08912
| 33>    F       -2.00924        -9.17903         0.21017
| 34>    C       -2.11911        -6.80352         0.14608
| 35>    C       -1.43953        -5.58753         0.05335
| 36>    C       -2.02810        -4.30744         0.16538
| 37>    O       -3.22243        -4.10134         0.33251
| 38>    C        8.01576         2.77271        -5.86455
| 39>    C        7.57915         3.76805        -4.97440
| 40>    S        7.37094         5.17958        -5.79242
| 41>    C        7.83024         4.61909        -7.29201
| 42>    C        8.19074         3.27862        -7.19188
| 43>    C        7.55329         5.51157        -8.42139
| 44>    C        8.11095         5.83529        -9.60534
| 45>    C        7.71826         7.15461       -10.05436
| 46>    C        6.44501         7.62859       -10.33958
| 47>    C        6.47470         9.14023       -10.18312
| 48>    N        6.49934        10.39425       -10.05332
| 49>    C        5.11687         6.90715       -10.50069
| 50>    N        4.01506         6.30865       -10.63433
| 51>    C        9.05443         7.88098       -10.07496
| 52>    C        9.41413         9.24890       -10.04183
| 53>    C       10.75265         9.63051       -10.11381
| 54>    F       11.07335        10.94922       -10.04339
| 55>    C       11.75405         8.66583       -10.25290
| 56>    F       13.04832         9.06269       -10.33301
| 57>    C       11.42265         7.29907       -10.27450
| 58>    C       10.07412         6.92273       -10.15872
| 59>    C        9.49367         5.57306       -10.00720
| 60>    O       10.11999         4.53357        -9.88069
| 61>    C       -0.88574         2.63245        -0.43847
| 62>    C       -2.42000         2.71617        -0.03372
| 63>    C       -2.86601         2.24498         1.42050
| 64>    C       -2.74100         0.79405         1.90379
| 65>    C       -2.84465         4.19588        -0.19515
| 66>    C       -4.35919         4.43280        -0.13957
| 67>    C        2.19140         1.69922        -0.01018
| 68>    S        2.39008         2.65592        -1.41892
| 69>    C        4.05760         2.71889        -1.24555
| 70>    C        4.44869         2.03927        -0.12968
| 71>    C        3.42934         1.41647         0.56549
| 72>    C        5.16224         3.18883        -2.05631
| 73>    C        6.40430         2.88518        -1.57006
| 74>   Ge        6.30211         2.16456         0.19623
| 75>    S        5.25173         3.79916        -3.59204
| 76>    C        6.93365         3.57077        -3.68511
| 77>    C        7.44234         3.05795        -2.48810
| 78>    C        8.03907         1.31289        -5.43041
| 79>    C        8.51062         0.22445        -6.43519
| 80>    C       10.05681         0.21837        -6.62031
| 81>    C       10.70217         1.49212        -7.15207
| 82>    C        8.06578        -1.16364        -5.87167
| 83>    C        8.33444        -2.35174        -6.80342
| 84>    C        6.37089         3.52964         1.67346
| 85>    C        7.17263         0.36552         0.30373
| 86>    C        5.81341         5.00239         1.75733
| 87>    C        4.30068         5.25382         2.03568
| 88>    C        3.34020         4.81508         0.97650
| 89>    C        6.59752         5.66696         2.94156
| 90>    C        6.37200         7.16759         3.13804
| 91>    C        8.73234         0.26287         0.15795
| 92>    C        9.58030         0.77639         1.35498
| 93>    C        9.30550         2.17929         1.78653
| 94>    C        9.11747        -1.22815        -0.08190
| 95>    C       10.62543        -1.47903        -0.25561
| 96>    H       -2.06164         0.11981        -0.68388
| 97>    H       -2.33547        -1.88294         0.68114
| 98>    H        1.68863        -6.78942        -0.33875
| 99>    H       -3.19359        -6.83339         0.28114
|100>    H        8.40121         2.67992        -8.06067
|101>    H        6.79219         6.21884        -8.09667
|102>    H        8.73823        10.05791        -9.92880
|103>    H       12.20730         6.56078       -10.34869
|104>    H       -0.72242         2.93411        -1.49507
|105>    H       -0.32755         3.33991         0.21169
|106>    H       -2.98461         2.11685        -0.78239
|107>    H       -3.96033         2.37433         1.48113
|108>    H       -2.38216         2.88154         2.18579
|109>    H       -3.24576         0.09616         1.20106
|110>    H       -3.25236         0.65902         2.87667
|111>    H       -1.68925         0.52527         2.10877
|112>    H       -2.49977         4.57092        -1.18078
|113>    H       -2.35079         4.80028         0.59883
|114>    H       -4.86095         3.85412        -0.94332
|115>    H       -4.56295         5.51161        -0.28831
|116>    H       -4.80925         4.16820         0.83685
|117>    H        3.58579         0.78616         1.42717
|118>    H        8.47590         2.78808        -2.30946
|119>    H        6.97444         1.10105        -5.17105
|120>    H        8.62644         1.20403        -4.49497
|121>    H        7.98529         0.37593        -7.40417
|122>    H       10.33228        -0.57294        -7.34312
|123>    H       10.52979        -0.01407        -5.64180
|124>    H       10.32450         1.72605        -8.16659
|125>    H       11.79520         1.33392        -7.24167
|126>    H       10.55435         2.33950        -6.45370
|127>    H        6.96850        -1.15471        -5.68622
|128>    H        8.56887        -1.35542        -4.89734
|129>    H        7.80721        -2.20972        -7.76987
|130>    H        7.95973        -3.28485        -6.33054
|131>    H        9.41583        -2.50166        -6.98915
|132>    H        7.43008         3.76523         1.59038
|133>    H        6.13761         2.99752         2.61988
|134>    H        6.73419        -0.16669        -0.57106
|135>    H        6.82854        -0.16684         1.21403
|136>    H        6.09187         5.52276         0.81419
|137>    H        4.13119         6.34537         2.06656
|138>    H        3.99188         4.81807         3.01235
|139>    H        3.67443         5.14372        -0.03116
|140>    H        2.31827         5.19752         1.17304
|141>    H        3.26241         3.75355         1.09543
|142>    H        7.69022         5.54967         2.77630
|143>    H        6.34377         5.14509         3.89278
|144>    H        6.62206         7.71362         2.20534
|145>    H        7.03054         7.52576         3.95619
|146>    H        5.33538         7.40192         3.45044
|147>    H        9.01484         0.84071        -0.74950
|148>    H       10.64450         0.78590         1.04844
|149>    H        9.45789         0.11765         2.24289
|150>    H        9.30499         2.85319         0.89847
|151>    H       10.06659         2.53689         2.50695
|152>    H        8.35843         2.11861         2.34364
|153>    H        8.60776        -1.59024        -1.00008
|154>    H        8.76912        -1.84782         0.77452
|155>    H       11.03205        -0.85633        -1.07959
|156>    H       10.80919        -2.54905        -0.48025
|157>    H       11.18656        -1.26456         0.67908
|158> *
|159> 
|160>                          ****END OF INPUT****
================================================================================

                       ****************************
                       * Single Point Calculation *
                       ****************************

---------------------------------
CARTESIAN COORDINATES (ANGSTROEM)
---------------------------------
  C     -0.305280    1.284890   -0.173240
  C      0.957040    1.004440    0.332580
  S      0.973590   -0.522480    1.043060
  C     -0.506560   -0.902300    0.357800
  C     -1.071030    0.164820   -0.252430
  C     -1.305990   -2.068470    0.407700
  C     -0.975570   -3.297220    0.108440
  C      0.312240   -3.947000   -0.244850
  C      1.563930   -3.403040   -0.595520
  C      2.592640   -4.521990   -0.584900
  N      3.446040   -5.450250   -0.576090
  C      2.055680   -2.116520   -0.987070
  N      2.550170   -1.123130   -1.317170
  C     -0.064780   -5.459650   -0.129010
  C      0.651370   -6.685870   -0.203640
  C     -0.001660   -7.921830   -0.076450
  F      0.721770   -9.068550   -0.110250
  C     -1.385220   -7.981670    0.089120
  F     -2.009240   -9.179030    0.210170
  C     -2.119110   -6.803520    0.146080
  C     -1.439530   -5.587530    0.053350
  C     -2.028100   -4.307440    0.165380
  O     -3.222430   -4.101340    0.332510
  C      8.015760    2.772710   -5.864550
  C      7.579150    3.768050   -4.974400
  S      7.370940    5.179580   -5.792420
  C      7.830240    4.619090   -7.292010
  C      8.190740    3.278620   -7.191880
  C      7.553290    5.511570   -8.421390
  C      8.110950    5.835290   -9.605340
  C      7.718260    7.154610  -10.054360
  C      6.445010    7.628590  -10.339580
  C      6.474700    9.140230  -10.183120
  N      6.499340   10.394250  -10.053320
  C      5.116870    6.907150  -10.500690
  N      4.015060    6.308650  -10.634330
  C      9.054430    7.880980  -10.074960
  C      9.414130    9.248900  -10.041830
  C     10.752650    9.630510  -10.113810
  F     11.073350   10.949220  -10.043390
  C     11.754050    8.665830  -10.252900
  F     13.048320    9.062690  -10.333010
  C     11.422650    7.299070  -10.274500
  C     10.074120    6.922730  -10.158720
  C      9.493670    5.573060  -10.007200
  O     10.119990    4.533570   -9.880690
  C     -0.885740    2.632450   -0.438470
  C     -2.420000    2.716170   -0.033720
  C     -2.866010    2.244980    1.420500
  C     -2.741000    0.794050    1.903790
  C     -2.844650    4.195880   -0.195150
  C     -4.359190    4.432800   -0.139570
  C      2.191400    1.699220   -0.010180
  S      2.390080    2.655920   -1.418920
  C      4.057600    2.718890   -1.245550
  C      4.448690    2.039270   -0.129680
  C      3.429340    1.416470    0.565490
  C      5.162240    3.188830   -2.056310
  C      6.404300    2.885180   -1.570060
  Ge     6.302110    2.164560    0.196230
  S      5.251730    3.799160   -3.592040
  C      6.933650    3.570770   -3.685110
  C      7.442340    3.057950   -2.488100
  C      8.039070    1.312890   -5.430410
  C      8.510620    0.224450   -6.435190
  C     10.056810    0.218370   -6.620310
  C     10.702170    1.492120   -7.152070
  C      8.065780   -1.163640   -5.871670
  C      8.334440   -2.351740   -6.803420
  C      6.370890    3.529640    1.673460
  C      7.172630    0.365520    0.303730
  C      5.813410    5.002390    1.757330
  C      4.300680    5.253820    2.035680
  C      3.340200    4.815080    0.976500
  C      6.597520    5.666960    2.941560
  C      6.372000    7.167590    3.138040
  C      8.732340    0.262870    0.157950
  C      9.580300    0.776390    1.354980
  C      9.305500    2.179290    1.786530
  C      9.117470   -1.228150   -0.081900
  C     10.625430   -1.479030   -0.255610
  H     -2.061640    0.119810   -0.683880
  H     -2.335470   -1.882940    0.681140
  H      1.688630   -6.789420   -0.338750
  H     -3.193590   -6.833390    0.281140
  H      8.401210    2.679920   -8.060670
  H      6.792190    6.218840   -8.096670
  H      8.738230   10.057910   -9.928800
  H     12.207300    6.560780  -10.348690
  H     -0.722420    2.934110   -1.495070
  H     -0.327550    3.339910    0.211690
  H     -2.984610    2.116850   -0.782390
  H     -3.960330    2.374330    1.481130
  H     -2.382160    2.881540    2.185790
  H     -3.245760    0.096160    1.201060
  H     -3.252360    0.659020    2.876670
  H     -1.689250    0.525270    2.108770
  H     -2.499770    4.570920   -1.180780
  H     -2.350790    4.800280    0.598830
  H     -4.860950    3.854120   -0.943320
  H     -4.562950    5.511610   -0.288310
  H     -4.809250    4.168200    0.836850
  H      3.585790    0.786160    1.427170
  H      8.475900    2.788080   -2.309460
  H      6.974440    1.101050   -5.171050
  H      8.626440    1.204030   -4.494970
  H      7.985290    0.375930   -7.404170
  H     10.332280   -0.572940   -7.343120
  H     10.529790   -0.014070   -5.641800
  H     10.324500    1.726050   -8.166590
  H     11.795200    1.333920   -7.241670
  H     10.554350    2.339500   -6.453700
  H      6.968500   -1.154710   -5.686220
  H      8.568870   -1.355420   -4.897340
  H      7.807210   -2.209720   -7.769870
  H      7.959730   -3.284850   -6.330540
  H      9.415830   -2.501660   -6.989150
  H      7.430080    3.765230    1.590380
  H      6.137610    2.997520    2.619880
  H      6.734190   -0.166690   -0.571060
  H      6.828540   -0.166840    1.214030
  H      6.091870    5.522760    0.814190
  H      4.131190    6.345370    2.066560
  H      3.991880    4.818070    3.012350
  H      3.674430    5.143720   -0.031160
  H      2.318270    5.197520    1.173040
  H      3.262410    3.753550    1.095430
  H      7.690220    5.549670    2.776300
  H      6.343770    5.145090    3.892780
  H      6.622060    7.713620    2.205340
  H      7.030540    7.525760    3.956190
  H      5.335380    7.401920    3.450440
  H      9.014840    0.840710   -0.749500
  H     10.644500    0.785900    1.048440
  H      9.457890    0.117650    2.242890
  H      9.304990    2.853190    0.898470
  H     10.066590    2.536890    2.506950
  H      8.358430    2.118610    2.343640
  H      8.607760   -1.590240   -1.000080
  H      8.769120   -1.847820    0.774520
  H     11.032050   -0.856330   -1.079590
  H     10.809190   -2.549050   -0.480250
  H     11.186560   -1.264560    0.679080

----------------------------
CARTESIAN COORDINATES (A.U.)
----------------------------
  NO LB      ZA    FRAG     MASS         X           Y           Z
   0 C     6.0000    0    12.011   -0.576896    2.428090   -0.327376
   1 C     6.0000    0    12.011    1.808543    1.898117    0.628485
   2 S    16.0000    0    32.060    1.839818   -0.987344    1.971098
   3 C     6.0000    0    12.011   -0.957260   -1.705100    0.676144
   4 C     6.0000    0    12.011   -2.023953    0.311465   -0.477024
   5 C     6.0000    0    12.011   -2.467963   -3.908842    0.770441
   6 C     6.0000    0    12.011   -1.843560   -6.230843    0.204922
   7 C     6.0000    0    12.011    0.590048   -7.458749   -0.462699
   8 C     6.0000    0    12.011    2.955399   -6.430814   -1.125370
   9 C     6.0000    0    12.011    4.899380   -8.545323   -1.105301
  10 N     7.0000    0    14.007    6.512072  -10.299480   -1.088652
  11 C     6.0000    0    12.011    3.884672   -3.999643   -1.865292
  12 N     7.0000    0    14.007    4.819123   -2.122408   -2.489091
  13 C     6.0000    0    12.011   -0.122416  -10.317243   -0.243794
  14 C     6.0000    0    12.011    1.230911  -12.634463   -0.384824
  15 C     6.0000    0    12.011   -0.003137  -14.970089   -0.144470
  16 F     9.0000    0    18.998    1.363948  -17.137076   -0.208342
  17 C     6.0000    0    12.011   -2.617686  -15.083170    0.168412
  18 F     9.0000    0    18.998   -3.796913  -17.345853    0.397164
  19 C     6.0000    0    12.011   -4.004538  -12.856790    0.276051
  20 C     6.0000    0    12.011   -2.720317  -10.558901    0.100817
  21 C     6.0000    0    12.011   -3.832554   -8.139882    0.312523
  22 O     8.0000    0    15.999   -6.089510   -7.750409    0.628353
  23 C     6.0000    0    12.011   15.147591    5.239663  -11.082393
  24 C     6.0000    0    12.011   14.322518    7.120583   -9.400254
  25 S    16.0000    0    32.060   13.929058    9.787988  -10.946087
  26 C     6.0000    0    12.011   14.797009    8.728815  -13.779902
  27 C     6.0000    0    12.011   15.478255    6.195694  -13.590684
  28 C     6.0000    0    12.011   14.273650   10.415358  -15.914121
  29 C     6.0000    0    12.011   15.327474   11.027100  -18.151462
  30 C     6.0000    0    12.011   14.585398   13.520253  -18.999987
  31 C     6.0000    0    12.011   12.179304   14.415946  -19.538975
  32 C     6.0000    0    12.011   12.235410   17.272532  -19.243308
  33 N     7.0000    0    14.007   12.281973   19.642286  -18.998022
  34 C     6.0000    0    12.011    9.669483   13.052622  -19.843428
  35 N     7.0000    0    14.007    7.587364   11.921621  -20.095971
  36 C     6.0000    0    12.011   17.110393   14.892894  -19.038915
  37 C     6.0000    0    12.011   17.790127   17.477888  -18.976309
  38 C     6.0000    0    12.011   20.319564   18.199026  -19.112331
  39 F     9.0000    0    18.998   20.925599   20.691027  -18.979257
  40 C     6.0000    0    12.011   22.211935   16.376045  -19.375173
  41 F     9.0000    0    18.998   24.657751   17.126002  -19.526559
  42 C     6.0000    0    12.011   21.585680   13.793243  -19.415991
  43 C     6.0000    0    12.011   19.037328   13.082064  -19.197199
  44 C     6.0000    0    12.011   17.940436   10.531557  -18.910867
  45 O     8.0000    0    15.999   19.124010    8.567206  -18.671798
  46 C     6.0000    0    12.011   -1.673806    4.974610   -0.828588
  47 C     6.0000    0    12.011   -4.573137    5.132817   -0.063722
  48 C     6.0000    0    12.011   -5.415974    4.242397    2.684356
  49 C     6.0000    0    12.011   -5.179739    1.500537    3.597642
  50 C     6.0000    0    12.011   -5.375609    7.929064   -0.368780
  51 C     6.0000    0    12.011   -8.237675    8.376778   -0.263749
  52 C     6.0000    0    12.011    4.141146    3.211060   -0.019237
  53 S    16.0000    0    32.060    4.516597    5.018961   -2.681370
  54 C     6.0000    0    12.011    7.667753    5.137957   -2.353748
  55 C     6.0000    0    12.011    8.406806    3.853662   -0.245060
  56 C     6.0000    0    12.011    6.480513    2.676740    1.068621
  57 C     6.0000    0    12.011    9.755220    6.026015   -3.885863
  58 C     6.0000    0    12.011   12.102373    5.452200   -2.966983
  59 Ge   32.0000    0    72.590   11.909262    4.090426    0.370821
  60 S    16.0000    0    32.060    9.924331    7.179372   -6.787972
  61 C     6.0000    0    12.011   13.102700    6.747777   -6.963849
  62 C     6.0000    0    12.011   14.063984    5.778688   -4.701828
  63 C     6.0000    0    12.011   15.191641    2.481003  -10.261988
  64 C     6.0000    0    12.011   16.082741    0.424149  -12.160747
  65 C     6.0000    0    12.011   19.004617    0.412659  -12.510573
  66 C     6.0000    0    12.011   20.224170    2.819698  -13.515454
  67 C     6.0000    0    12.011   15.242115   -2.198961  -11.095848
  68 C     6.0000    0    12.011   15.749809   -4.444145  -12.856601
  69 C     6.0000    0    12.011   12.039237    6.670053    3.162381
  70 C     6.0000    0    12.011   13.554306    0.690733    0.573967
  71 C     6.0000    0    12.011   10.985753    9.453147    3.320872
  72 C     6.0000    0    12.011    8.127107    9.928281    3.846878
  73 C     6.0000    0    12.011    6.312063    9.099183    1.845318
  74 C     6.0000    0    12.011   12.467506   10.709002    5.558743
  75 C     6.0000    0    12.011   12.041335   13.544782    5.930036
  76 C     6.0000    0    12.011   16.501731    0.496752    0.298482
  77 C     6.0000    0    12.011   18.104143    1.467164    2.560541
  78 C     6.0000    0    12.011   17.584847    4.118261    3.376052
  79 C     6.0000    0    12.011   17.229521   -2.320867   -0.154769
  80 C     6.0000    0    12.011   20.079153   -2.794962   -0.483033
  81 H     1.0000    0     1.008   -3.895935    0.226408   -1.292346
  82 H     1.0000    0     1.008   -4.413399   -3.558241    1.287168
  83 H     1.0000    0     1.008    3.191048  -12.830144   -0.640145
  84 H     1.0000    0     1.008   -6.035010  -12.913236    0.531278
  85 H     1.0000    0     1.008   15.875986    5.064315  -15.232459
  86 H     1.0000    0     1.008   12.835379   11.751904  -15.300489
  87 H     1.0000    0     1.008   16.512862   19.006695  -18.762713
  88 H     1.0000    0     1.008   23.068454   12.398077  -19.556190
  89 H     1.0000    0     1.008   -1.365176    5.544664   -2.825273
  90 H     1.0000    0     1.008   -0.618980    6.311515    0.400036
  91 H     1.0000    0     1.008   -5.640096    4.000267   -1.478503
  92 H     1.0000    0     1.008   -7.483939    4.486833    2.798930
  93 H     1.0000    0     1.008   -4.501630    5.445321    4.130544
  94 H     1.0000    0     1.008   -6.133597    0.181716    2.269674
  95 H     1.0000    0     1.008   -6.146070    1.245367    5.436118
  96 H     1.0000    0     1.008   -3.192220    0.992616    3.984998
  97 H     1.0000    0     1.008   -4.723881    8.637787   -2.231351
  98 H     1.0000    0     1.008   -4.442349    9.071215    1.131625
  99 H     1.0000    0     1.008   -9.185864    7.283231   -1.782616
 100 H     1.0000    0     1.008   -8.622726   10.415433   -0.544827
 101 H     1.0000    0     1.008   -9.088165    7.876756    1.581417
 102 H     1.0000    0     1.008    6.776161    1.485627    2.696960
 103 H     1.0000    0     1.008   16.017130    5.268708   -4.364247
 104 H     1.0000    0     1.008   13.179782    2.080683   -9.771868
 105 H     1.0000    0     1.008   16.301609    2.275287   -8.494262
 106 H     1.0000    0     1.008   15.090011    0.710405  -13.991854
 107 H     1.0000    0     1.008   19.525180   -1.082700  -13.876486
 108 H     1.0000    0     1.008   19.898419   -0.026588  -10.661457
 109 H     1.0000    0     1.008   19.510477    3.261762  -15.432619
 110 H     1.0000    0     1.008   22.289698    2.520743  -13.684773
 111 H     1.0000    0     1.008   19.944831    4.421014  -12.195726
 112 H     1.0000    0     1.008   13.168557   -2.182086  -10.745399
 113 H     1.0000    0     1.008   16.192818   -2.561373   -9.254631
 114 H     1.0000    0     1.008   14.753489   -4.175766  -14.682926
 115 H     1.0000    0     1.008   15.041710   -6.207467  -11.962987
 116 H     1.0000    0     1.008   17.793340   -4.727452  -13.207579
 117 H     1.0000    0     1.008   14.040816    7.115254    3.005383
 118 H     1.0000    0     1.008   11.598402    5.664492    4.950856
 119 H     1.0000    0     1.008   12.725775   -0.314998   -1.079147
 120 H     1.0000    0     1.008   12.904070   -0.315282    2.294184
 121 H     1.0000    0     1.008   11.511966   10.436504    1.538596
 122 H     1.0000    0     1.008    7.806818   11.991012    3.905232
 123 H     1.0000    0     1.008    7.543560    9.104833    5.692517
 124 H     1.0000    0     1.008    6.943666    9.720222   -0.058884
 125 H     1.0000    0     1.008    4.380895    9.821889    2.216724
 126 H     1.0000    0     1.008    6.165061    7.093182    2.070063
 127 H     1.0000    0     1.008   14.532410   10.487356    5.246447
 128 H     1.0000    0     1.008   11.987988    9.722811    7.356288
 129 H     1.0000    0     1.008   12.513880   14.576629    4.167489
 130 H     1.0000    0     1.008   13.285795   14.221625    7.476116
 131 H     1.0000    0     1.008   10.082407   13.987602    6.520387
 132 H     1.0000    0     1.008   17.035579    1.588712   -1.416350
 133 H     1.0000    0     1.008   20.115190    1.485136    1.981264
 134 H     1.0000    0     1.008   17.872822    0.222326    4.238448
 135 H     1.0000    0     1.008   17.583883    5.391748    1.697862
 136 H     1.0000    0     1.008   19.023098    4.794027    4.737449
 137 H     1.0000    0     1.008   15.795144    4.003593    4.428838
 138 H     1.0000    0     1.008   16.266309   -3.005118   -1.889877
 139 H     1.0000    0     1.008   16.571235   -3.491874    1.463631
 140 H     1.0000    0     1.008   20.847553   -1.618229   -2.040129
 141 H     1.0000    0     1.008   20.426409   -4.817006   -0.907541
 142 H     1.0000    0     1.008   21.139535   -2.389672    1.283275

--------------------------------
INTERNAL COORDINATES (ANGSTROEM)
--------------------------------
 C      0   0   0     0.000000000000     0.00000000     0.00000000
 C      1   0   0     1.388509221179     0.00000000     0.00000000
 S      2   1   0     1.684203200122   110.22611724     0.00000000
 C      3   2   1     1.674720431147    91.39354021    12.68659441
 C      4   3   2     1.352683306691   111.99268367   352.36231062
 C      4   3   2     1.414754679724   132.21620841   179.07212500
 C      6   4   3     1.307119155433   128.60552960   305.46400270
 C      7   6   4     1.485086687234   133.23354180     6.97810765
 C      8   7   6     1.409109572248   131.34449117   347.42349782
 C      9   8   7     1.520002023354   108.37646594   168.86480192
 N     10   9   8     1.260966218302   179.99995203   186.61207357
 C      9   8   7     1.431874008214   136.05113774   346.13535363
 N     12   9   8     1.157717609005   174.63072454   183.75900755
 C      8   7   6     1.563225194430   101.33877713   167.35679963
 C     14   8   7     1.421990136323   135.15960846   186.37340845
 C     15  14   8     1.403646179990   121.34886527   181.14826333
 F     16  15  14     1.356266995580   119.60875865   182.11013223
 C     16  15  14     1.394715929535   120.66737385     1.87210177
 F     18  16  15     1.355627173120   120.34014426   179.94402283
 C     18  16  15     1.389199912252   119.50751738   359.14097125
 C     14   8   7     1.392675851194   109.67182177     8.48191767
 C     21  14   8     1.413363284474   109.77251018   356.00886658
 O     22  21  14     1.223451591114   124.74471895   180.03577377
 C     13  12   9     8.107336690807   149.33923169    33.54561210
 C     24  13  12     1.404883279920    77.02924644   191.13076615
 S     25  24  13     1.644665639393   109.40575836   222.22480349
 C     26  25  24     1.665495631396    97.12841904   359.46551421
 C     27  26  25     1.391706178689   109.31704720   359.04620205
 C     27  26  25     1.465851642323   115.89434237   168.74378377
 C     29  27  26     1.348153150239   138.13023506   146.17153935
 C     30  29  27     1.447905265858   112.26898620   204.34038830
 C     31  30  29     1.388226585000   128.57748056   299.23012845
 C     32  31  30     1.520005499102   107.48678680   156.07758284
 N     33  32  31     1.260960479159   179.99950579   349.85995466
 C     32  31  30     1.519996041212   131.38640767   348.56762010
 N     35  32  31     1.260970727535   179.99931429    74.55591454
 C     31  30  29     1.520982579059   101.60111833   117.15616186
 C     37  31  30     1.414809815240   133.21739806   200.86165297
 C     38  37  31     1.393715574606   120.51036022   181.90352406
 F     39  38  37     1.358971497310   119.31829749   181.77306939
 C     39  38  37     1.397410279946   120.28841199     1.58117535
 F     41  39  38     1.356115889074   119.19525456   179.40237375
 C     41  39  38     1.406529565135   120.23175324   357.77927970
 C     37  31  30     1.401794027737   108.26309297    21.64163045
 C     30  29  27     1.463615602165   126.07813155   342.53170471
 O     45  30  29     1.220172521654   127.52453085    46.40686367
 C      1   2   3     1.491039475701   126.96040889   157.03716088
 C     47   1   2     1.588957314877   112.22253733   219.80336211
 C     48  47   1     1.592388377438   119.17515630    51.31501028
 C     49  48  47     1.534403659113   122.99902639   295.36985817
 C     48  47   1     1.547878855563   106.78025267   173.23581086
 C     51  48  47     1.533965982152   114.50278662   167.63324790
 C      2   1   3     1.457342881960   126.01847951   163.16350519
 S     53   2   1     1.714437814562   123.87952971   340.89051156
 C     54  53   2     1.677690474492    92.93575788   193.29584097
 C     55  54  53     1.363818385783   110.54052942   359.27001130
 C     56  55  54     1.382105492139   115.12478312     2.56451135
 C     55  54  53     1.448587212010   135.42070721   171.24879200
 C     58  55  54     1.367974937124   114.92429894   187.76899166
 Ge    56  55  54     1.886022430567   112.95988733   183.90495784
 S     58  55  54     1.654985740694   132.86174147   355.38599960
 C     25  24  13     1.455286347253   127.09540937    20.98916512
 C     59  58  55     1.396486289263   114.44189691   165.84644610
 C     24  13  12     1.523185913833    52.40380206   337.13103189
 C     64  24  13     1.554555847984   119.43619973   140.23378215
 C     65  64  24     1.557244327940   112.38014765    75.46807236
 C     66  65  64     1.523711681946   117.30718721   299.60744221
 C     65  64  24     1.562763982212   107.60732798   195.20728551
 C     68  65  64     1.533596383701   114.78261359   174.55041175
 C     60  56  55     2.012556227215   101.85771203   102.31530426
 C     60  56  55     2.001476015844   112.14736255   236.59536596
 C     70  60  56     1.576962488393   131.33146662   304.08821125
 C     72  70  60     1.558540285107   120.21762533    78.88990550
 C     73  72  70     1.495619233094   116.71257150   293.74671454
 C     72  70  60     1.568082418083   105.02234833   198.51428759
 C     75  72  70     1.530148377675   116.03431802   172.84592333
 C     71  60  56     1.569867546961   119.07219901   162.67185565
 C     77  71  60     1.554226422662   116.67500792    72.37569218
 C     78  77  71     1.493277888573   115.63153270   305.27881195
 C     77  71  60     1.558522948115   108.80569860   194.07861185
 C     80  77  71     1.538525040453   114.55593398   179.52811155
 H      5   4   3     1.081426453671   121.96498905   184.66609796
 H      6   4   3     1.081212229352   113.92284182   129.06725891
 H     15  14   8     1.051135396702   126.06290162     2.14851136
 H     20  18  16     1.083346985458   120.37697565   180.41998213
 H     28  27  26     1.075888179599   121.90813483   172.06904918
 H     29  27  26     1.088552773778   107.32897754   340.62615890
 H     38  37  31     1.060242317114   125.32219367     4.22483242
 H     43  41  39     1.079931434259   119.61557642   182.06879052
 H     47   1   2     1.110889615578   110.93897457    94.05728992
 H     47   1   2     1.111208240295   106.00736289   337.00389061
 H     48  47   1     1.112868223735   106.86649671   288.37518077
 H     49  48  47     1.103604857637   107.05094338   180.75190931
 H     49  48  47     1.106791868510   109.80522674    62.37952993
 H     50  49  48     1.111603599580   110.95025664   305.88499021
 H     50  49  48     1.107347120329   110.75703351   188.92725674
 H     50  49  48     1.104734154129   111.47333038    73.27620146
 H     51  48  47     1.109533105815   109.29909623    48.05267850
 H     51  48  47     1.113373836589   108.83739142   290.09055470
 H     52  51  48     1.110246685426   109.84521326   300.90242960
 H     52  51  48     1.107913688561   109.09357543   181.36036256
 H     52  51  48     1.107232215933   113.35133611    63.45880252
 H     57  56  55     1.079008675127   123.91511157   175.63510561
 H     63  59  58     1.083045862418   124.75719075   185.48828344
 H     64  24  13     1.116055926959   103.50632094    20.38725448
 H     64  24  13     1.109910811777   110.01803724   266.47661933
 H     65  64  24     1.112582599046   108.92721039   311.45186804
 H     66  65  64     1.106575588516   109.12399991   180.00636281
 H     66  65  64     1.111404631131   108.58450688    61.74720104
 H     67  66  65     1.107523681101   110.59880827   298.11183207
 H     67  66  65     1.108047824284   109.06694340   180.69340030
 H     67  66  65     1.107982072824   111.27562453    62.92690622
 H     68  65  64     1.112876833167   109.48875934    55.15995011
 H     68  65  64     1.113192735064   109.87632186   297.28073389
 H     69  68  65     1.110030069773   110.28236071   300.92834168
 H     69  68  65     1.111178361290   109.44695183   181.60225352
 H     69  68  65     1.107418607122   112.20002096    63.38596422
 H     70  60  56     1.088250150747    97.12674399   196.27878143
 H     70  60  56     1.110532335954   107.05885918    80.69525210
 H     71  60  56     1.113882696607   102.47956901    45.33365615
 H     71  60  56     1.109257043115   109.90995865   291.79168762
 H     72  70  60     1.112581668059   107.65242726   313.95901402
 H     73  72  70     1.105061915460   108.25278876   179.24280042
 H     73  72  70     1.113157577075   111.27241084    59.93222120
 H     74  73  72     1.111347208617   111.23732820   313.10568903
 H     74  73  72     1.108706115298   111.42007432   190.44890211
 H     74  73  72     1.071000266060   104.99646586    77.55927105
 H     75  72  70     1.111333029159   109.54992904    53.54531881
 H     75  72  70     1.114251698585   109.41082949   295.88217437
 H     76  75  72     1.109327748909   109.97059272   303.29136044
 H     76  75  72     1.109653145357   108.89024288   183.79542618
 H     76  75  72     1.107738838039   112.43237565    66.37850814
 H     77  71  60     1.112281806963   107.10538049   310.56525974
 H     78  77  71     1.107510203881   108.29519794   188.58504620
 H     78  77  71     1.112342916461   111.04337599    68.47907572
 H     79  78  77     1.114805827801   109.74185163   311.30794036
 H     79  78  77     1.107312387947   111.40349229   190.66558416
 H     79  78  77     1.100452270387   104.64781311    76.25607980
 H     80  77  71     1.110841106820   109.00551186    58.86360758
 H     80  77  71     1.113011162478   109.68682815   300.66711194
 H     81  80  77     1.109972141452   110.57241384   304.14517630
 H     81  80  77     1.108681048634   110.04205441   183.31652358
 H     81  80  77     1.111084899501   111.62547055    66.10534991

---------------------------
INTERNAL COORDINATES (A.U.)
---------------------------
 C      0   0   0     0.000000000000     0.00000000     0.00000000
 C      1   0   0     2.623902162453     0.00000000     0.00000000
 S      2   1   0     3.182682802104   110.22611724     0.00000000
 C      3   2   1     3.164762965750    91.39354021    12.68659441
 C      4   3   2     2.556200995573   111.99268367   352.36231062
 C      4   3   2     2.673498891361   132.21620841   179.07212500
 C      6   4   3     2.470097228171   128.60552960   305.46400270
 C      7   6   4     2.806407124005   133.23354180     6.97810765
 C      8   7   6     2.662831184235   131.34449117   347.42349782
 C      9   8   7     2.872387547145   108.37646594   168.86480192
 N     10   9   8     2.382880816718   179.99995203   186.61207357
 C      9   8   7     2.705849733805   136.05113774   346.13535363
 N     12   9   8     2.187769221437   174.63072454   183.75900755
 C      8   7   6     2.954067503118   101.33877713   167.35679963
 C     14   8   7     2.687171922788   135.15960846   186.37340845
 C     15  14   8     2.652506869105   121.34886527   181.14826333
 F     16  15  14     2.562973186123   119.60875865   182.11013223
 C     16  15  14     2.635631141439   120.66737385     1.87210177
 F     18  16  15     2.561764096898   120.34014426   179.94402283
 C     18  16  15     2.625207379423   119.50751738   359.14097125
 C     14   8   7     2.631775952083   109.67182177     8.48191767
 C     21  14   8     2.670869535396   109.77251018   356.00886658
 O     22  21  14     2.311988445316   124.74471895   180.03577377
 C     13  12   9    15.320646021116   149.33923169    33.54561210
 C     24  13  12     2.654844649175    77.02924644   191.13076615
 S     25  24  13     3.107967640323   109.40575836   222.22480349
 C     26  25  24     3.147330620581    97.12841904   359.46551421
 C     27  26  25     2.629943536608   109.31704720   359.04620205
 C     27  26  25     2.770058156948   115.89434237   168.74378377
 C     29  27  26     2.547640240535   138.13023506   146.17153935
 C     30  29  27     2.736144420335   112.26898620   204.34038830
 C     31  30  29     2.623368057478   128.57748056   299.23012845
 C     32  31  30     2.872394115357   107.48678680   156.07758284
 N     33  32  31     2.382869971308   179.99950579   349.85995466
 C     32  31  30     2.872376242535   131.38640767   348.56762010
 N     35  32  31     2.382889337932   179.99931429    74.55591454
 C     31  30  29     2.874240528886   101.60111833   117.15616186
 C     37  31  30     2.673603082388   133.21739806   200.86165297
 C     38  37  31     2.633740744586   120.51036022   181.90352406
 F     39  38  37     2.568083953720   119.31829749   181.77306939
 C     39  38  37     2.640722725825   120.28841199     1.58117535
 F     41  39  38     2.562687636210   119.19525456   179.40237375
 C     41  39  38     2.657955677369   120.23175324   357.77927970
 C     37  31  30     2.649006808590   108.26309297    21.64163045
 C     30  29  27     2.765832653426   126.07813155   342.53170471
 O     45  30  29     2.305791902063   127.52453085    46.40686367
 C      1   2   3     2.817656263941   126.96040889   157.03716088
 C     47   1   2     3.002694163608   112.22253733   219.80336211
 C     48  47   1     3.009177932197   119.17515630    51.31501028
 C     49  48  47     2.899602694611   122.99902639   295.36985817
 C     48  47   1     2.925067125502   106.78025267   173.23581086
 C     51  48  47     2.898775605019   114.50278662   167.63324790
 C      2   1   3     2.753978930124   126.01847951   163.16350519
 S     53   2   1     3.239817943161   123.87952971   340.89051156
 C     54  53   2     3.170375534278    92.93575788   193.29584097
 C     55  54  53     2.577243245537   110.54052942   359.27001130
 C     56  55  54     2.611800868331   115.12478312     2.56451135
 C     55  54  53     2.737433111800   135.42070721   171.24879200
 C     58  55  54     2.585097989233   114.92429894   187.76899166
 Ge    56  55  54     3.564065876203   112.95988733   183.90495784
 S     58  55  54     3.127469805456   132.86174147   355.38599960
 C     25  24  13     2.750092642742   127.09540937    20.98916512
 C     59  58  55     2.638976636483   114.44189691   165.84644610
 C     24  13  12     2.878404228191    52.40380206   337.13103189
 C     64  24  13     2.937684812575   119.43619973   140.23378215
 C     65  64  24     2.942765303408   112.38014765    75.46807236
 C     66  65  64     2.879397785935   117.30718721   299.60744221
 C     65  64  24     2.953195938337   107.60732798   195.20728551
 C     68  65  64     2.898077165166   114.78261359   174.55041175
 C     60  56  55     3.803180098553   101.85771203   102.31530426
 C     60  56  55     3.782241533558   112.14736255   236.59536596
 C     70  60  56     2.980027226531   131.33146662   304.08821125
 C     72  70  60     2.945214307535   120.21762533    78.88990550
 C     73  72  70     2.826310751173   116.71257150   293.74671454
 C     72  70  60     2.963246325593   105.02234833   198.51428759
 C     75  72  70     2.891561378069   116.03431802   172.84592333
 C     71  60  56     2.966619730286   119.07219901   162.67185565
 C     77  71  60     2.937062288935   116.67500792    72.37569218
 C     78  77  71     2.821886251242   115.63153270   305.27881195
 C     77  71  60     2.945181545368   108.80569860   194.07861185
 C     80  77  71     2.907390976636   114.55593398   179.52811155
 H      5   4   3     2.043599831416   121.96498905   184.66609796
 H      6   4   3     2.043195006121   113.92284182   129.06725891
 H     15  14   8     1.986358029438   126.06290162     2.14851136
 H     20  18  16     2.047229110524   120.37697565   180.41998213
 H     28  27  26     2.033134010164   121.90813483   172.06904918
 H     29  27  26     2.057066624761   107.32897754   340.62615890
 H     38  37  31     2.003567614940   125.32219367     4.22483242
 H     43  41  39     2.040774654162   119.61557642   182.06879052
 H     47   1   2     2.099277138460   110.93897457    94.05728992
 H     47   1   2     2.099879251915   106.00736289   337.00389061
 H     48  47   1     2.103016166003   106.86649671   288.37518077
 H     49  48  47     2.085510940999   107.05094338   180.75190931
 H     49  48  47     2.091533518735   109.80522674    62.37952993
 H     50  49  48     2.100626372688   110.95025664   305.88499021
 H     50  49  48     2.092582792607   110.75703351   188.92725674
 H     50  49  48     2.087645002094   111.47333038    73.27620146
 H     51  48  47     2.096713706510   109.29909623    48.05267850
 H     51  48  47     2.103971635826   108.83739142   290.09055470
 H     52  51  48     2.098062176549   109.84521326   300.90242960
 H     52  51  48     2.093653451402   109.09357543   181.36036256
 H     52  51  48     2.092365654768   113.35133611    63.45880252
 H     57  56  55     2.039030892116   123.91511157   175.63510561
 H     63  59  58     2.046660070446   124.75719075   185.48828344
 H     64  24  13     2.109040052092   103.50632094    20.38725448
 H     64  24  13     2.097427467337   110.01803724   266.47661933
 H     65  64  24     2.102476413563   108.92721039   311.45186804
 H     66  65  64     2.091124808778   109.12399991   180.00636281
 H     66  65  64     2.100250376810   108.58450688    61.74720104
 H     67  66  65     2.092916444114   110.59880827   298.11183207
 H     67  66  65     2.093906931184   109.06694340   180.69340030
 H     67  66  65     2.093782678932   111.27562453    62.92690622
 H     68  65  64     2.103032435471   109.48875934    55.15995011
 H     68  65  64     2.103629403542   109.87632186   297.28073389
 H     69  68  65     2.097652832288   110.28236071   300.92834168
 H     69  68  65     2.099822788778   109.44695183   181.60225352
 H     69  68  65     2.092717883069   112.20002096    63.38596422
 H     70  60  56     2.056494750110    97.12674399   196.27878143
 H     70  60  56     2.098601977817   107.05885918    80.69525210
 H     71  60  56     2.104933241901   102.47956901    45.33365615
 H     71  60  56     2.096192023610   109.90995865   291.79168762
 H     72  70  60     2.102474654252   107.65242726   313.95901402
 H     73  72  70     2.088264381246   108.25278876   179.24280042
 H     73  72  70     2.103562964572   111.27241084    59.93222120
 H     74  73  72     2.100141863983   111.23732820   313.10568903
 H     74  73  72     2.095150920918   111.42007432   190.44890211
 H     74  73  72     2.023897192210   104.99646586    77.55927105
 H     75  72  70     2.100115068692   109.54992904    53.54531881
 H     75  72  70     2.105630554583   109.41082949   295.88217437
 H     76  75  72     2.096325638198   109.97059272   303.29136044
 H     76  75  72     2.096940548368   108.89024288   183.79542618
 H     76  75  72     2.093323031802   112.43237565    66.37850814
 H     77  71  60     2.101907998902   107.10538049   310.56525974
 H     78  77  71     2.092890975858   108.29519794   188.58504620
 H     78  77  71     2.102023479118   111.04337599    68.47907572
 H     79  78  77     2.106677707044   109.74185163   311.30794036
 H     79  78  77     2.092517157917   111.40349229   190.66558416
 H     79  78  77     2.079553414483   104.64781311    76.25607980
 H     80  77  71     2.099185470191   109.00551186    58.86360758
 H     80  77  71     2.103286281080   109.68682815   300.66711194
 H     81  80  77     2.097543363627   110.57241384   304.14517630
 H     81  80  77     2.095103551787   110.04205441   183.31652358
 H     81  80  77     2.099646171593   111.62547055    66.10534991

---------------------
BASIS SET INFORMATION
---------------------
There are 7 groups of distinct atoms

 Group   1 Type C   : 11s6p2d1f contracted to 5s3p2d1f pattern {62111/411/11/1}
 Group   2 Type S   : 14s9p3d1f contracted to 5s5p2d1f pattern {73211/51111/21/1}
 Group   3 Type N   : 11s6p2d1f contracted to 5s3p2d1f pattern {62111/411/11/1}
 Group   4 Type F   : 11s6p2d1f contracted to 5s3p2d1f pattern {62111/411/11/1}
 Group   5 Type O   : 11s6p2d1f contracted to 5s3p2d1f pattern {62111/411/11/1}
 Group   6 Type Ge  : 17s12p8d1f contracted to 6s5p4d1f pattern {842111/63111/5111/1}
 Group   7 Type H   : 5s1p contracted to 3s1p pattern {311/1}

Atom   0C    basis set group =>   1
Atom   1C    basis set group =>   1
Atom   2S    basis set group =>   2
Atom   3C    basis set group =>   1
Atom   4C    basis set group =>   1
Atom   5C    basis set group =>   1
Atom   6C    basis set group =>   1
Atom   7C    basis set group =>   1
Atom   8C    basis set group =>   1
Atom   9C    basis set group =>   1
Atom  10N    basis set group =>   3
Atom  11C    basis set group =>   1
Atom  12N    basis set group =>   3
Atom  13C    basis set group =>   1
Atom  14C    basis set group =>   1
Atom  15C    basis set group =>   1
Atom  16F    basis set group =>   4
Atom  17C    basis set group =>   1
Atom  18F    basis set group =>   4
Atom  19C    basis set group =>   1
Atom  20C    basis set group =>   1
Atom  21C    basis set group =>   1
Atom  22O    basis set group =>   5
Atom  23C    basis set group =>   1
Atom  24C    basis set group =>   1
Atom  25S    basis set group =>   2
Atom  26C    basis set group =>   1
Atom  27C    basis set group =>   1
Atom  28C    basis set group =>   1
Atom  29C    basis set group =>   1
Atom  30C    basis set group =>   1
Atom  31C    basis set group =>   1
Atom  32C    basis set group =>   1
Atom  33N    basis set group =>   3
Atom  34C    basis set group =>   1
Atom  35N    basis set group =>   3
Atom  36C    basis set group =>   1
Atom  37C    basis set group =>   1
Atom  38C    basis set group =>   1
Atom  39F    basis set group =>   4
Atom  40C    basis set group =>   1
Atom  41F    basis set group =>   4
Atom  42C    basis set group =>   1
Atom  43C    basis set group =>   1
Atom  44C    basis set group =>   1
Atom  45O    basis set group =>   5
Atom  46C    basis set group =>   1
Atom  47C    basis set group =>   1
Atom  48C    basis set group =>   1
Atom  49C    basis set group =>   1
Atom  50C    basis set group =>   1
Atom  51C    basis set group =>   1
Atom  52C    basis set group =>   1
Atom  53S    basis set group =>   2
Atom  54C    basis set group =>   1
Atom  55C    basis set group =>   1
Atom  56C    basis set group =>   1
Atom  57C    basis set group =>   1
Atom  58C    basis set group =>   1
Atom  59Ge   basis set group =>   6
Atom  60S    basis set group =>   2
Atom  61C    basis set group =>   1
Atom  62C    basis set group =>   1
Atom  63C    basis set group =>   1
Atom  64C    basis set group =>   1
Atom  65C    basis set group =>   1
Atom  66C    basis set group =>   1
Atom  67C    basis set group =>   1
Atom  68C    basis set group =>   1
Atom  69C    basis set group =>   1
Atom  70C    basis set group =>   1
Atom  71C    basis set group =>   1
Atom  72C    basis set group =>   1
Atom  73C    basis set group =>   1
Atom  74C    basis set group =>   1
Atom  75C    basis set group =>   1
Atom  76C    basis set group =>   1
Atom  77C    basis set group =>   1
Atom  78C    basis set group =>   1
Atom  79C    basis set group =>   1
Atom  80C    basis set group =>   1
Atom  81H    basis set group =>   7
Atom  82H    basis set group =>   7
Atom  83H    basis set group =>   7
Atom  84H    basis set group =>   7
Atom  85H    basis set group =>   7
Atom  86H    basis set group =>   7
Atom  87H    basis set group =>   7
Atom  88H    basis set group =>   7
Atom  89H    basis set group =>   7
Atom  90H    basis set group =>   7
Atom  91H    basis set group =>   7
Atom  92H    basis set group =>   7
Atom  93H    basis set group =>   7
Atom  94H    basis set group =>   7
Atom  95H    basis set group =>   7
Atom  96H    basis set group =>   7
Atom  97H    basis set group =>   7
Atom  98H    basis set group =>   7
Atom  99H    basis set group =>   7
Atom 100H    basis set group =>   7
Atom 101H    basis set group =>   7
Atom 102H    basis set group =>   7
Atom 103H    basis set group =>   7
Atom 104H    basis set group =>   7
Atom 105H    basis set group =>   7
Atom 106H    basis set group =>   7
Atom 107H    basis set group =>   7
Atom 108H    basis set group =>   7
Atom 109H    basis set group =>   7
Atom 110H    basis set group =>   7
Atom 111H    basis set group =>   7
Atom 112H    basis set group =>   7
Atom 113H    basis set group =>   7
Atom 114H    basis set group =>   7
Atom 115H    basis set group =>   7
Atom 116H    basis set group =>   7
Atom 117H    basis set group =>   7
Atom 118H    basis set group =>   7
Atom 119H    basis set group =>   7
Atom 120H    basis set group =>   7
Atom 121H    basis set group =>   7
Atom 122H    basis set group =>   7
Atom 123H    basis set group =>   7
Atom 124H    basis set group =>   7
Atom 125H    basis set group =>   7
Atom 126H    basis set group =>   7
Atom 127H    basis set group =>   7
Atom 128H    basis set group =>   7
Atom 129H    basis set group =>   7
Atom 130H    basis set group =>   7
Atom 131H    basis set group =>   7
Atom 132H    basis set group =>   7
Atom 133H    basis set group =>   7
Atom 134H    basis set group =>   7
Atom 135H    basis set group =>   7
Atom 136H    basis set group =>   7
Atom 137H    basis set group =>   7
Atom 138H    basis set group =>   7
Atom 139H    basis set group =>   7
Atom 140H    basis set group =>   7
Atom 141H    basis set group =>   7
Atom 142H    basis set group =>   7
---------------------------------
AUXILIARY/J BASIS SET INFORMATION
---------------------------------
There are 7 groups of distinct atoms

 Group   1 Type C   : 12s5p4d2f1g contracted to 6s4p3d1f1g pattern {711111/2111/211/2/1}
 Group   2 Type S   : 14s5p5d2f1g contracted to 8s4p3d1f1g pattern {71111111/2111/311/2/1}
 Group   3 Type N   : 12s5p4d2f1g contracted to 6s4p3d1f1g pattern {711111/2111/211/2/1}
 Group   4 Type F   : 12s5p4d2f1g contracted to 6s4p3d1f1g pattern {711111/2111/211/2/1}
 Group   5 Type O   : 12s5p4d2f1g contracted to 6s4p3d1f1g pattern {711111/2111/211/2/1}
 Group   6 Type Ge  : 19s5p5d3f1g contracted to 8s4p3d2f1g pattern {121111111/2111/311/21/1}
 Group   7 Type H   : 5s2p1d contracted to 3s1p1d pattern {311/2/1}

Atom   0C    basis set group =>   1
Atom   1C    basis set group =>   1
Atom   2S    basis set group =>   2
Atom   3C    basis set group =>   1
Atom   4C    basis set group =>   1
Atom   5C    basis set group =>   1
Atom   6C    basis set group =>   1
Atom   7C    basis set group =>   1
Atom   8C    basis set group =>   1
Atom   9C    basis set group =>   1
Atom  10N    basis set group =>   3
Atom  11C    basis set group =>   1
Atom  12N    basis set group =>   3
Atom  13C    basis set group =>   1
Atom  14C    basis set group =>   1
Atom  15C    basis set group =>   1
Atom  16F    basis set group =>   4
Atom  17C    basis set group =>   1
Atom  18F    basis set group =>   4
Atom  19C    basis set group =>   1
Atom  20C    basis set group =>   1
Atom  21C    basis set group =>   1
Atom  22O    basis set group =>   5
Atom  23C    basis set group =>   1
Atom  24C    basis set group =>   1
Atom  25S    basis set group =>   2
Atom  26C    basis set group =>   1
Atom  27C    basis set group =>   1
Atom  28C    basis set group =>   1
Atom  29C    basis set group =>   1
Atom  30C    basis set group =>   1
Atom  31C    basis set group =>   1
Atom  32C    basis set group =>   1
Atom  33N    basis set group =>   3
Atom  34C    basis set group =>   1
Atom  35N    basis set group =>   3
Atom  36C    basis set group =>   1
Atom  37C    basis set group =>   1
Atom  38C    basis set group =>   1
Atom  39F    basis set group =>   4
Atom  40C    basis set group =>   1
Atom  41F    basis set group =>   4
Atom  42C    basis set group =>   1
Atom  43C    basis set group =>   1
Atom  44C    basis set group =>   1
Atom  45O    basis set group =>   5
Atom  46C    basis set group =>   1
Atom  47C    basis set group =>   1
Atom  48C    basis set group =>   1
Atom  49C    basis set group =>   1
Atom  50C    basis set group =>   1
Atom  51C    basis set group =>   1
Atom  52C    basis set group =>   1
Atom  53S    basis set group =>   2
Atom  54C    basis set group =>   1
Atom  55C    basis set group =>   1
Atom  56C    basis set group =>   1
Atom  57C    basis set group =>   1
Atom  58C    basis set group =>   1
Atom  59Ge   basis set group =>   6
Atom  60S    basis set group =>   2
Atom  61C    basis set group =>   1
Atom  62C    basis set group =>   1
Atom  63C    basis set group =>   1
Atom  64C    basis set group =>   1
Atom  65C    basis set group =>   1
Atom  66C    basis set group =>   1
Atom  67C    basis set group =>   1
Atom  68C    basis set group =>   1
Atom  69C    basis set group =>   1
Atom  70C    basis set group =>   1
Atom  71C    basis set group =>   1
Atom  72C    basis set group =>   1
Atom  73C    basis set group =>   1
Atom  74C    basis set group =>   1
Atom  75C    basis set group =>   1
Atom  76C    basis set group =>   1
Atom  77C    basis set group =>   1
Atom  78C    basis set group =>   1
Atom  79C    basis set group =>   1
Atom  80C    basis set group =>   1
Atom  81H    basis set group =>   7
Atom  82H    basis set group =>   7
Atom  83H    basis set group =>   7
Atom  84H    basis set group =>   7
Atom  85H    basis set group =>   7
Atom  86H    basis set group =>   7
Atom  87H    basis set group =>   7
Atom  88H    basis set group =>   7
Atom  89H    basis set group =>   7
Atom  90H    basis set group =>   7
Atom  91H    basis set group =>   7
Atom  92H    basis set group =>   7
Atom  93H    basis set group =>   7
Atom  94H    basis set group =>   7
Atom  95H    basis set group =>   7
Atom  96H    basis set group =>   7
Atom  97H    basis set group =>   7
Atom  98H    basis set group =>   7
Atom  99H    basis set group =>   7
Atom 100H    basis set group =>   7
Atom 101H    basis set group =>   7
Atom 102H    basis set group =>   7
Atom 103H    basis set group =>   7
Atom 104H    basis set group =>   7
Atom 105H    basis set group =>   7
Atom 106H    basis set group =>   7
Atom 107H    basis set group =>   7
Atom 108H    basis set group =>   7
Atom 109H    basis set group =>   7
Atom 110H    basis set group =>   7
Atom 111H    basis set group =>   7
Atom 112H    basis set group =>   7
Atom 113H    basis set group =>   7
Atom 114H    basis set group =>   7
Atom 115H    basis set group =>   7
Atom 116H    basis set group =>   7
Atom 117H    basis set group =>   7
Atom 118H    basis set group =>   7
Atom 119H    basis set group =>   7
Atom 120H    basis set group =>   7
Atom 121H    basis set group =>   7
Atom 122H    basis set group =>   7
Atom 123H    basis set group =>   7
Atom 124H    basis set group =>   7
Atom 125H    basis set group =>   7
Atom 126H    basis set group =>   7
Atom 127H    basis set group =>   7
Atom 128H    basis set group =>   7
Atom 129H    basis set group =>   7
Atom 130H    basis set group =>   7
Atom 131H    basis set group =>   7
Atom 132H    basis set group =>   7
Atom 133H    basis set group =>   7
Atom 134H    basis set group =>   7
Atom 135H    basis set group =>   7
Atom 136H    basis set group =>   7
Atom 137H    basis set group =>   7
Atom 138H    basis set group =>   7
Atom 139H    basis set group =>   7
Atom 140H    basis set group =>   7
Atom 141H    basis set group =>   7
Atom 142H    basis set group =>   7
------------------------------------------------------------------------------
                           ORCA GTO INTEGRAL CALCULATION
                           -- RI-GTO INTEGRALS CHOSEN --
------------------------------------------------------------------------------

                         BASIS SET STATISTICS AND STARTUP INFO

Gaussian basis set:
 # of primitive gaussian shells          ... 2038
 # of primitive gaussian functions       ... 4344
 # of contracted shells                  ... 1152
 # of contracted basis functions         ... 2924
 Highest angular momentum                ...    3
 Maximum contraction depth               ...    8
Auxiliary gaussian basis set:
 # of primitive gaussian shells          ... 2461
 # of primitive gaussian functions       ... 6709
 # of contracted shells                  ... 1536
 # of contracted aux-basis functions     ... 4668
 Highest angular momentum                ...    4
 Maximum contraction depth               ...   12
Ratio of auxiliary to basis functions    ...  1.60
Integral package used                  ... LIBINT
 One Electron integrals                  ... done
 Ordering auxiliary basis shells         ... done
 Integral threshhold             Thresh  ...  2.500e-11
 Primitive cut-off               TCut    ...  2.500e-12
 Pre-screening matrix                    ... done
 Shell pair data                         ... 
 Ordering of the shell pairs             ... done (   0.048 sec) 198808 of 664128 pairs
 Determination of significant pairs      ... done (   0.002 sec)
 Creation of shell pair data             ... done (   0.024 sec)
 Storage of shell pair data              ... done (   0.037 sec)
 Shell pair data done in (   0.110 sec)
 Computing two index integrals           ... done
 Cholesky decomposition of the V-matrix  ... done


Timings:
 Total evaluation time                   ...  10.238 sec (  0.171 min)
 One electron matrix time                ...   3.727 sec (  0.062 min) = 36.4%
 Schwartz matrix evaluation time         ...   5.047 sec (  0.084 min) = 49.3%
 Two index repulsion integral time       ...   0.546 sec (  0.009 min) =  5.3%
 Cholesky decomposition of V             ...   0.788 sec (  0.013 min) =  7.7%
 Three index repulsion integral time     ...   0.000 sec (  0.000 min) =  0.0%

-------------------------------------------------------------------------------
                                 ORCA SCF
-------------------------------------------------------------------------------

------------
SCF SETTINGS
------------
Hamiltonian:
 Density Functional     Method          .... DFT(GTOs)
 Exchange Functional    Exchange        .... B88
   X-Alpha parameter    XAlpha          ....  0.666667
   Becke's b parameter  XBeta           ....  0.004200
 Correlation Functional Correlation     .... LYP
 LDA part of GGA corr.  LDAOpt          .... VWN-5
 Gradients option       PostSCFGGA      .... off
 Hybrid DFT is turned on
   Fraction HF Exchange ScalHFX         ....  0.200000
   Scaling of DF-GGA-X  ScalDFX         ....  0.720000
   Scaling of DF-GGA-C  ScalDFC         ....  0.810000
   Scaling of DF-LDA-C  ScalLDAC        ....  1.000000
   Perturbative correction              ....  0.000000
   Density functional embedding theory  .... OFF
   NL short-range parameter             ....  4.800000
 RI-approximation to the Coulomb term is turned on
   Number of auxiliary basis functions  .... 4668
   RIJ-COSX (HFX calculated with COS-X)).... on


General Settings:
 Integral files         IntName         .... DTG-IW
 Hartree-Fock type      HFTyp           .... RHF
 Total Charge           Charge          ....    0
 Multiplicity           Mult            ....    1
 Number of Electrons    NEL             ....  634
 Basis Dimension        Dim             .... 2924
 Nuclear Repulsion      ENuc            ....  15173.5862208774 Eh

Convergence Acceleration:
 DIIS                   CNVDIIS         .... on
   Start iteration      DIISMaxIt       ....    12
   Startup error        DIISStart       ....  0.200000
   # of expansion vecs  DIISMaxEq       ....     5
   Bias factor          DIISBfac        ....   1.050
   Max. coefficient     DIISMaxC        ....  10.000
 Newton-Raphson         CNVNR           .... off
 SOSCF                  CNVSOSCF        .... on
   Start iteration      SOSCFMaxIt      ....   150
   Startup grad/error   SOSCFStart      ....  0.003300
 Level Shifting         CNVShift        .... on
   Level shift para.    LevelShift      ....    0.2500
   Turn off err/grad.   ShiftErr        ....    0.0010
 Zerner damping         CNVZerner       .... off
 Static damping         CNVDamp         .... on
   Fraction old density DampFac         ....    0.7000
   Max. Damping (<1)    DampMax         ....    0.9800
   Min. Damping (>=0)   DampMin         ....    0.0000
   Turn off err/grad.   DampErr         ....    0.1000
 Fernandez-Rico         CNVRico         .... off

SCF Procedure:
 Maximum # iterations   MaxIter         ....   125
 SCF integral mode      SCFMode         .... Direct
   Integral package                     .... LIBINT
 Reset frequency        DirectResetFreq ....    20
 Integral Threshold     Thresh          ....  2.500e-11 Eh
 Primitive CutOff       TCut            ....  2.500e-12 Eh

Convergence Tolerance:
 Convergence Check Mode ConvCheckMode   .... Total+1el-Energy
 Convergence forced     ConvForced      .... 1
 Energy Change          TolE            ....  1.000e-08 Eh
 1-El. energy change                    ....  1.000e-05 Eh
 Orbital Gradient       TolG            ....  1.000e-05
 Orbital Rotation angle TolX            ....  1.000e-05
 DIIS Error             TolErr          ....  5.000e-07


Diagonalization of the overlap matrix:
Smallest eigenvalue                        ... 6.411e-06
Time for diagonalization                   ...    5.022 sec
Threshold for overlap eigenvalues          ... 1.000e-08
Number of eigenvalues below threshold      ... 0
Time for construction of square roots      ...    1.615 sec
Total time needed                          ...    6.659 sec

-------------------
DFT GRID GENERATION
-------------------

General Integration Accuracy     IntAcc      ...  4.670
Radial Grid Type                 RadialGrid  ... Gauss-Chebyshev
Angular Grid (max. acc.)         AngularGrid ... Lebedev-302
Angular grid pruning method      GridPruning ... 3 (G Style)
Weight generation scheme         WeightScheme... Becke
Basis function cutoff            BFCut       ...    1.0000e-11
Integration weight cutoff        WCut        ...    1.0000e-14
Grids for H and He will be reduced by one unit

# of grid points (after initial pruning)     ... 719804 (   2.3 sec)
# of grid points (after weights+screening)   ... 604781 (  43.3 sec)
nearest neighbour list constructed           ...    0.0 sec
Grid point re-assignment to atoms done       ...    0.1 sec
Grid point division into batches done        ...    2.0 sec
Reduced shell lists constructed in   22.2 sec

Total number of grid points                  ...   604781
Total number of batches                      ...     9523
Average number of points per batch           ...       63
Average number of grid points per atom       ...     4229
Average number of shells per batch           ...   178.69 (15.51%)
Average number of basis functions per batch  ...   423.09 (14.47%)
Average number of large shells per batch     ...   101.96 (57.06%)
Average number of large basis fcns per batch ...   248.16 (58.66%)
Maximum spatial batch extension              ...  20.77, 22.10, 22.95 au
Average spatial batch extension              ...   2.00,  1.99,  2.09 au

Time for grid setup =   67.827 sec

------------------------------
INITIAL GUESS: MODEL POTENTIAL
------------------------------
Loading Hartree-Fock densities                     ... done
Calculating cut-offs                               ... done
Setting up the integral package                    ... done
Initializing the effective Hamiltonian             ... done
Starting the Coulomb interaction                   ... done (  47.4 sec)
Reading the grid                                   ... done
Mapping shells                                     ... done
Starting the XC term evaluation                    ... done (  31.6 sec)
  promolecular density results
     # of electrons  =    633.969403857
     EX              =   -618.299844996
     EC              =    -22.501909781
     EX+EC           =   -640.801754777
Transforming the Hamiltonian                       ... done (   1.6 sec)
Diagonalizing the Hamiltonian                      ... done (   4.9 sec)
Back transforming the eigenvectors                 ... done (   0.7 sec)
Now organizing SCF variables                       ... done
                      ------------------
                      INITIAL GUESS DONE ( 155.2 sec)
                      ------------------
--------------------
COSX GRID GENERATION
--------------------

General Integration Accuracy     IntAcc      ...  3.340
Radial Grid Type                 RadialGrid  ... Gauss-Chebyshev
Angular Grid (max. acc.)         AngularGrid ... Lebedev-50
Angular grid pruning method      GridPruning ... 3 (G Style)
Weight generation scheme         WeightScheme... Becke
Basis function cutoff            BFCut       ...    1.0000e-11
Integration weight cutoff        WCut        ...    1.0000e-14
Grids for H and He will be reduced by one unit

# of grid points (after initial pruning)     ...  67754 (   0.1 sec)
# of grid points (after weights+screening)   ...  59534 (   4.0 sec)
nearest neighbour list constructed           ...    0.0 sec
Grid point re-assignment to atoms done       ...    0.0 sec
Grid point division into batches done        ...    0.0 sec
Reduced shell lists constructed in    3.4 sec

Total number of grid points                  ...    59534
Total number of batches                      ...      997
Average number of points per batch           ...       59
Average number of grid points per atom       ...      416
Average number of shells per batch           ...   218.81 (18.99%)
Average number of basis functions per batch  ...   524.44 (17.94%)
Average number of large shells per batch     ...   125.40 (57.31%)
Average number of large basis fcns per batch ...   310.25 (59.16%)
Maximum spatial batch extension              ...  17.91, 19.54, 21.47 au
Average spatial batch extension              ...   4.01,  4.00,  4.59 au

Overlap Fitting                  UseSFitting ... on
Constructing numerical overlap ... done (      2.8 sec)
Inverting numerical overlap    ... done (      0.5 sec)
Obtaining analytic overlap     ... done (      0.0 sec)
Final contraction and storage  ... done (      0.8 sec)


General Integration Accuracy     IntAcc      ...  3.670
Radial Grid Type                 RadialGrid  ... Gauss-Chebyshev
Angular Grid (max. acc.)         AngularGrid ... Lebedev-50
Angular grid pruning method      GridPruning ... 3 (G Style)
Weight generation scheme         WeightScheme... Becke
Basis function cutoff            BFCut       ...    1.0000e-11
Integration weight cutoff        WCut        ...    1.0000e-14
Grids for H and He will be reduced by one unit

# of grid points (after initial pruning)     ...  85446 (   0.1 sec)
# of grid points (after weights+screening)   ...  74719 (   5.1 sec)
nearest neighbour list constructed           ...    0.0 sec
Grid point re-assignment to atoms done       ...    0.0 sec
Grid point division into batches done        ...    0.0 sec
Reduced shell lists constructed in    4.0 sec

Total number of grid points                  ...    74719
Total number of batches                      ...     1235
Average number of points per batch           ...       60
Average number of grid points per atom       ...      523
Average number of shells per batch           ...   212.95 (18.48%)
Average number of basis functions per batch  ...   508.83 (17.40%)
Average number of large shells per batch     ...   121.72 (57.16%)
Average number of large basis fcns per batch ...   299.91 (58.94%)
Maximum spatial batch extension              ...  18.65, 20.73, 22.92 au
Average spatial batch extension              ...   3.72,  3.68,  4.30 au

Overlap Fitting                  UseSFitting ... on
Constructing numerical overlap ... done (      3.0 sec)
Inverting numerical overlap    ... done (      0.5 sec)
Obtaining analytic overlap     ... done (      0.0 sec)
Final contraction and storage  ... done (      0.8 sec)


General Integration Accuracy     IntAcc      ...  4.010
Radial Grid Type                 RadialGrid  ... Gauss-Chebyshev
Angular Grid (max. acc.)         AngularGrid ... Lebedev-110
Angular grid pruning method      GridPruning ... 3 (G Style)
Weight generation scheme         WeightScheme... Becke
Basis function cutoff            BFCut       ...    1.0000e-11
Integration weight cutoff        WCut        ...    1.0000e-14
Grids for H and He will be reduced by one unit

# of grid points (after initial pruning)     ... 161950 (   0.3 sec)
# of grid points (after weights+screening)   ... 140760 (   9.6 sec)
nearest neighbour list constructed           ...    0.0 sec
Grid point re-assignment to atoms done       ...    0.0 sec
Grid point division into batches done        ...    0.1 sec
Reduced shell lists constructed in    6.0 sec

Total number of grid points                  ...   140760
Total number of batches                      ...     2272
Average number of points per batch           ...       61
Average number of grid points per atom       ...      984
Average number of shells per batch           ...   202.11 (17.54%)
Average number of basis functions per batch  ...   483.08 (16.52%)
Average number of large shells per batch     ...   116.17 (57.48%)
Average number of large basis fcns per batch ...   286.11 (59.23%)
Maximum spatial batch extension              ...  21.52, 18.96, 23.63 au
Average spatial batch extension              ...   3.16,  3.12,  3.45 au

Overlap Fitting                  UseSFitting ... on
Constructing numerical overlap ... done (      5.3 sec)
Inverting numerical overlap    ... done (      0.4 sec)
Obtaining analytic overlap     ... done (      0.0 sec)
Final contraction and storage  ... done (      0.8 sec)

Time for X-Grid setup             =   47.984 sec
--------------
SCF ITERATIONS
--------------
ITER       Energy         Delta-E        Max-DP      RMS-DP      [F,P]     Damp
               ***  Starting incremental Fock matrix formation  ***
  0  -6986.9570766138   0.000000000000 0.20857647  0.00075003  0.3200835 0.7000
  1  -6988.2413808462  -1.284304232340 0.17389312  0.00053731  0.1039740 0.7000
                               ***Turning on DIIS***
  2  -6988.6467442225  -0.405363376311 0.15195072  0.00067516  0.0606770 0.0000
  3  -6989.3718696801  -0.725125457629 0.15601933  0.00049991  0.0581865 0.0000
  4  -6989.5241104408  -0.152240760663 0.04037603  0.00013530  0.0545765 0.0000
  5  -6989.5486148478  -0.024504407087 0.01966740  0.00006395  0.0159205 0.0000
  6  -6989.5503603392  -0.001745491358 0.00675131  0.00002445  0.0047449 0.0000
                      *** Initiating the SOSCF procedure ***
                           *** Shutting down DIIS ***
                      *** Re-Reading the Fockian *** 
                      *** Removing any level shift *** 
ITER      Energy       Delta-E        Grad      Rot      Max-DP    RMS-DP
  7  -6989.55054588  -0.0001855442  0.000281  0.000281  0.002773  0.000008
               *** Restarting incremental Fock matrix formation ***
  8  -6989.55057933  -0.0000334440  0.000247  0.002411  0.004598  0.000028
  9  -6989.55057115   0.0000081788  0.000770  0.001261  0.001930  0.000012
 10  -6989.55058888  -0.0000177305  0.000282  0.000826  0.002177  0.000013
 11  -6989.55058457   0.0000043058  0.000341  0.000300  0.000538  0.000003
 12  -6989.55059162  -0.0000070508  0.000053  0.000303  0.000893  0.000006
 13  -6989.55059054   0.0000010879  0.000081  0.000336  0.000202  0.000001
 14  -6989.55059182  -0.0000012876  0.000024  0.000174  0.000445  0.000002
 15  -6989.55059175   0.0000000725  0.000081  0.000087  0.000194  0.000001
 16  -6989.55059195  -0.0000002036  0.000031  0.000094  0.000171  0.000001
 17  -6989.55059187   0.0000000843  0.000053  0.000049  0.000122  0.000001
 18  -6989.55059194  -0.0000000675  0.000007  0.000027  0.000319  0.000001
 19  -6989.55059194  -0.0000000025  0.000011  0.000016  0.000063  0.000000
                  ***Gradient check signals convergence***
              ***Rediagonalizing the Fockian in SOSCF/NRSCF***

               *****************************************************
               *                     SUCCESS                       *
               *           SCF CONVERGED AFTER  20 CYCLES          *
               *****************************************************

Setting up the final grid:

General Integration Accuracy     IntAcc      ...  5.010
Radial Grid Type                 RadialGrid  ... Gauss-Chebyshev
Angular Grid (max. acc.)         AngularGrid ... Lebedev-434
Angular grid pruning method      GridPruning ... 3 (G Style)
Weight generation scheme         WeightScheme... Becke
Basis function cutoff            BFCut       ...    1.0000e-11
Integration weight cutoff        WCut        ...    1.0000e-14
Grids for H and He will be reduced by one unit

# of grid points (after initial pruning)     ... 1291102 (   3.2 sec)
[...]


                  ********************************
                  * Entering triplet calculation *
                  ********************************

------------------------
DAVIDSON-DIAGONALIZATION
------------------------

Dimension of the eigenvalue problem            ... 552684
Number of roots to be determined               ...      3
Maximum size of the expansion space            ...     15
Maximum number of iterations                   ...    100
Convergence tolerance for the residual         ...    2.500e-07
Convergence tolerance for the energies         ...    2.500e-07
Orthogonality tolerance                        ...    1.000e-14
Level Shift                                    ...    0.000e+00
Constructing the preconditioner                ... o.k.
Building the initial guess                     ... o.k.
Number of trial vectors determined             ...     15


                       ****Iteration    0****
                <<< Triplet sigma vectors requested >>>

   Memory handling for direct AO based CIS:
   Memory per vector needed      ...   254 MB
   Memory needed                 ...  2289 MB
   Memory available              ...  2000 MB
   Number of vectors per batch   ...     7
   Number of batches             ...     2
   Time for densities:    24.829
   Time for K (COSX):  3087.880
   Time for XC-Integration:    62.311
   Time for Sigma-Completion:   414.208
   Time for densities:     6.386
   Time for K (COSX):  2926.105
   Time for XC-Integration:    19.997
   Time for Sigma-Completion:   117.183
   Size of expansion space: 9
   Lowest Energy          :     0.039882535723
   Maximum Energy change  :     0.066971333578 (vector 2)
   Maximum residual norm  :     0.000311802506

                       ****Iteration    1****
   Time for densities:     9.604
   Time for K (COSX):  2858.156
   Time for XC-Integration:    27.509
   Time for Sigma-Completion:   190.665
   Size of expansion space: 12
   Lowest Energy          :     0.038765517271
   Maximum Energy change  :     0.002431132951 (vector 2)
   Maximum residual norm  :     0.000023717289

                       ****Iteration    2****
   Time for densities:     9.771
   Time for K (COSX):  3094.803
   Time for XC-Integration:    29.630
   Time for Sigma-Completion:   175.597
   Size of expansion space: 15
   Lowest Energy          :     0.038729491301
   Maximum Energy change  :     0.000149282457 (vector 2)
   Maximum residual norm  :     0.000001571308
   Rebuilding the expansion space

                       ****Iteration    3****
   Time for densities:    19.302
   Time for K (COSX):  2786.272
   Time for XC-Integration:    49.639
   Time for Sigma-Completion:   337.574
   Size of expansion space: 6
   Lowest Energy          :     0.038727551358
   Maximum Energy change  :     0.000007762479 (vector 2)
   Maximum residual norm  :     0.000000157765

      *** CONVERGENCE OF RESIDUAL NORM REACHED ***

Storing the converged CI vectors               ... DTG-IW.cis3

                 *** DAVIDSON DONE ***

------------------------------------
TD-DFT/TDA EXCITED STATES (TRIPLETS)
------------------------------------

the weight of the individual excitations are printed if larger than 1.0e-02

STATE  1:  E=   0.038728 au      1.054 eV     8499.7 cm**-1
   315a -> 317a  :     0.023687 (c= -0.15390646)
   316a -> 317a  :     0.937433 (c= -0.96821141)
   316a -> 320a  :     0.010501 (c= -0.10247556)

STATE  2:  E=   0.060545 au      1.648 eV    13288.1 cm**-1
   315a -> 318a  :     0.020882 (c=  0.14450747)
   316a -> 318a  :     0.793150 (c= -0.89058967)
   316a -> 319a  :     0.138035 (c=  0.37153120)
   316a -> 321a  :     0.027488 (c=  0.16579423)

STATE  3:  E=   0.064383 au      1.752 eV    14130.5 cm**-1
   315a -> 320a  :     0.011384 (c=  0.10669564)
   316a -> 317a  :     0.023703 (c= -0.15395691)
   316a -> 318a  :     0.108813 (c=  0.32986823)
   316a -> 319a  :     0.406322 (c=  0.63743376)
   316a -> 320a  :     0.355580 (c=  0.59630503)
   316a -> 321a  :     0.054350 (c=  0.23313102)

------------------------------
TD-DFT/TDA SPIN-ORBIT COUPLING
------------------------------

Calculating the spin-orbit integrals:             

Loading the effective charges         ... done
Entering the SOC calc. section        ... 
------------------------------------------------------------------------------
                         ORCA SPIN-ORBIT COUPLING CALCULATION
------------------------------------------------------------------------------

GBW file                                    ... DTG-IW.gbw
Input density                               ... DTG-IW.cisp0
Output integrals                            ... DTG-IW.cis
Operator type                               ... Mean-field/Effective potential
   One-Electron Terms                       ... 1
   Coulomb Contribution                     ... 2
   Exchange Contribution                    ... 3
   Correlation Contribution                 ... 0
   Maximum number of centers                ... 4
Setting up the integration grid             ... done
Evaluating density on the grid              ... (NumEl=  633.999959) done
Evaluating Coulomb term semi-analytically   ... done
One-Center Exchange (+SOO)                  ... done
Evaluating the spin-orbit operator          ... done
Transforming the SOC integrals              ... done
Constructing the SOC matrix:                ... done
Diagonalizing the SOC matrix:               ... done

      --------------------------------------------------------------------------------
                      CALCULATED SOCME BETWEEN TRIPLETS AND SINGLETS                  
      --------------------------------------------------------------------------------
           Root                          <T|HSO|S>  (Re, Im) cm-1                     
         T      S             Z                     X                     Y           
      --------------------------------------------------------------------------------
         1      0    (   0.00 ,   -3.12 )    (   0.00 ,   -2.73 )    (  -0.00 ,    3.44 )
         1      1    (   0.00 ,   -0.01 )    (   0.00 ,    0.50 )    (  -0.00 ,   -0.94 )
         1      2    (   0.00 ,    0.99 )    (   0.00 ,    0.52 )    (  -0.00 ,   -0.22 )
         1      3    (   0.00 ,    0.99 )    (   0.00 ,    1.30 )    (  -0.00 ,    0.62 )
         2      0    (   0.00 ,    5.26 )    (   0.00 ,    0.64 )    (  -0.00 ,   -0.95 )
         2      1    (   0.00 ,   -0.86 )    (   0.00 ,   -0.88 )    (  -0.00 ,    0.69 )
         2      2    (   0.00 ,   -1.15 )    (   0.00 ,   -0.27 )    (  -0.00 ,   -0.76 )
         2      3    (   0.00 ,    0.68 )    (   0.00 ,    0.88 )    (  -0.00 ,    0.31 )
         3      0    (   0.00 ,    3.06 )    (   0.00 ,   -0.59 )    (  -0.00 ,   -1.44 )
         3      1    (   0.00 ,    0.14 )    (   0.00 ,   -1.26 )    (  -0.00 ,    1.00 )
         3      2    (   0.00 ,   -1.01 )    (   0.00 ,   -0.19 )    (  -0.00 ,   -0.16 )
         3      3    (   0.00 ,   -0.87 )    (   0.00 ,    0.37 )    (  -0.00 ,   -1.65 )

SOC stabilization of the ground state:  -0.0064 cm-1
Eigenvalues of the SOC matrix:

   State:        cm-1         eV
     0:          0.00         0.0000
     1:       8499.72         1.0538
     2:       8499.72         1.0538
     3:       8499.72         1.0538
     4:      11068.27         1.3723
     5:      13288.11         1.6475
     6:      13288.12         1.6475
     7:      13288.12         1.6475
     8:      14030.97         1.7396
     9:      14130.48         1.7520
    10:      14130.48         1.7520
    11:      14130.49         1.7520
    12:      15910.07         1.9726

The threshold for printing is 0.0100
Eigenvectors of the SOC matrix:

             E(cm-1)  Weight      Real         Imag     : Root  Spin  Ms
 STATE  0:      0.00
                      1.00000     -0.92515     -0.37961 : 0     0     0
 STATE  1:   8499.72
                      0.26307      0.24341     -0.45146 : 1     1     0
                      0.36847     -0.38403     -0.47009 : 1     1    -1
                      0.36847     -0.60379     -0.06250 : 1     1     1
 STATE  2:   8499.72
                      0.41643     -0.27623      0.58321 : 1     1     0
                      0.29178      0.16202     -0.51530 : 1     1    -1
                      0.29178     -0.29605      0.45182 : 1     1     1
 STATE  3:   8499.72
                      0.32050      0.24441     -0.51065 : 1     1     0
                      0.33975      0.55505     -0.17795 : 1     1    -1
                      0.33975      0.20956      0.54391 : 1     1     1
 STATE  4:  11068.27
                      1.00000     -0.62069      0.78405 : 1     0     0
 STATE  5:  13288.11
                      0.05031      0.22430      0.00156 : 2     1     0
                      0.47484      0.06637     -0.68588 : 2     1    -1
                      0.47484     -0.05684     -0.68674 : 2     1     1
 STATE  6:  13288.12
                      0.06310      0.00544     -0.25113 : 2     1     0
                      0.46845     -0.03516      0.68353 : 2     1    -1
                      0.46845     -0.00555     -0.68441 : 2     1     1
 STATE  7:  13288.12
                      0.88659     -0.88089     -0.33259 : 2     1     0
                      0.05671     -0.09734     -0.21732 : 2     1    -1
                      0.05671      0.21668     -0.09876 : 2     1     1
 STATE  8:  14030.97
                      0.99989     -0.64322     -0.76560 : 2     0     0
 STATE  9:  14130.48
                      0.49883     -0.38468      0.59232 : 3     1    -1
                      0.49883     -0.70628      0.00000 : 3     1     1
 STATE 10:  14130.48
                      0.49775     -0.38810      0.58918 : 3     1    -1
                      0.49775      0.70552     -0.00000 : 3     1     1
 STATE 11:  14130.49
                      0.99308      0.43359     -0.89726 : 3     1     0
 STATE 12:  15910.07
                      1.00000     -0.97526      0.22108 : 3     0     0

-----------------------------
TD-DFT/TDA-EXCITATION SPECTRA
-----------------------------

Center of mass = (  8.9024,  3.4776, -5.3964)
Calculating the Dipole integrals                  ... done
Transforming integrals                            ... done
Calculating the Linear Momentum integrals         ... done
Transforming integrals                            ... done
Calculating angular momentum integrals            ... done
Transforming integrals                            ... done

-----------------------------------------------------------------------------
         ABSORPTION SPECTRUM VIA TRANSITION ELECTRIC DIPOLE MOMENTS
-----------------------------------------------------------------------------
State   Energy    Wavelength  fosc         T2        TX        TY        TZ  
        (cm-1)      (nm)                 (au**2)    (au)      (au)      (au) 
-----------------------------------------------------------------------------
   1   11068.3    903.5   0.241353524   7.17877  -1.21643  -2.29965   0.64083
   2   14031.0    712.7   0.105153422   2.46724   0.58805   0.84198  -1.18849
   3   15910.1    628.5   0.401475241   8.30735   1.70912   1.94792  -1.26169
   4    8499.7   1176.5   spin forbidden (mult=3)
   5   13288.1    752.6   spin forbidden (mult=3)
   6   14130.5    707.7   spin forbidden (mult=3)

-----------------------------------------------------------------------------
         ABSORPTION SPECTRUM VIA TRANSITION VELOCITY DIPOLE MOMENTS
-----------------------------------------------------------------------------
State   Energy    Wavelength   fosc        P2         PX        PY        PZ  
        (cm-1)      (nm)                 (au**2)     (au)      (au)      (au) 
-----------------------------------------------------------------------------
   1   11068.3    903.5   0.083033836   0.00628   0.06531  -0.02353  -0.03824
   2   14031.0    712.7   0.025982695   0.00249  -0.03509  -0.02493   0.02527
   3   15910.1    628.5   0.048054550   0.00523  -0.03634  -0.04966   0.03793
   4    8499.7   1176.5   spin forbidden (mult=3)
   5   13288.1    752.6   spin forbidden (mult=3)
   6   14130.5    707.7   spin forbidden (mult=3)

-------------------------------------------------------------------
                             CD SPECTRUM
-------------------------------------------------------------------
State  Energy     Wavelength     R         MX        MY        MZ   
       (cm-1)       (nm)     (1e40*cgs)   (au)      (au)      (au)  
-------------------------------------------------------------------
   1   11068.3    903.5    252.63663  -0.05753  -0.18875   0.04966
   2   14031.0    712.7     92.48314  -0.07444  -0.00546  -0.20576
   3   15910.1    628.5    323.76890  -0.12359   0.15822  -0.46746
   4    8499.7   1176.5 spin forbidden
   5   13288.1    752.6 spin forbidden
   6   14130.5    707.7 spin forbidden

-------------------------------------------
SOC CORRECTED TD-DFT/TDA-EXCITATION SPECTRA
--------------------------------------------

-----------------------------------------------------------------------------
  SOC CORRECTED ABSORPTION SPECTRUM VIA TRANSITION ELECTRIC DIPOLE MOMENTS*  
-----------------------------------------------------------------------------
State   Energy  Wavelength   fosc         T2         TX        TY        TZ  
        (cm-1)    (nm)                  (au**2)     (au)      (au)      (au) 
-----------------------------------------------------------------------------
   1    8499.7   1176.5   0.000000017   0.00000   0.00049   0.00051   0.00039
   2    8499.7   1176.5   0.000000001   0.00000   0.00008   0.00018   0.00001
   3    8499.7   1176.5   0.000000479   0.00002   0.00195   0.00378   0.00066
   4   11068.3    903.5   0.241354228   7.17878   1.21643   2.29965   0.64084
   5   13288.1    752.6   0.000000033   0.00000   0.00006   0.00029   0.00085
   6   13288.1    752.6   0.000000009   0.00000   0.00028   0.00034   0.00020
   7   13288.1    752.6   0.000000242   0.00001   0.00067   0.00051   0.00230
   8   14031.0    712.7   0.105148446   2.46712   0.58805   0.84198   1.18844
   9   14130.5    707.7   0.000000026   0.00000   0.00035   0.00061   0.00031
  10   14130.5    707.7   0.000000222   0.00001   0.00081   0.00134   0.00165
  11   14130.5    707.7   0.000005737   0.00013   0.00316   0.00520   0.00983
  12   15910.1    628.5   0.401473979   8.30732   1.70912   1.94792   1.26169

-----------------------------------------------------------------------------
  SOC CORRECTED ABSORPTION SPECTRUM VIA TRANSITION VELOCITY DIPOLE MOMENTS*  
-----------------------------------------------------------------------------
State   Energy  Wavelength   fosc         P2         PX        PY        PZ  
        (cm-1)    (nm)                  (au**2)     (au)      (au)      (au) 
-----------------------------------------------------------------------------
   1    8499.7   1176.5   0.000000023   0.00000   0.00003   0.00001   0.00002
   2    8499.7   1176.5   0.000000005   0.00000   0.00001   0.00001   0.00001
   3    8499.7   1176.5   0.000000021   0.00000   0.00001   0.00003   0.00000
   4   11068.3    903.5   0.083033695   0.00628   0.06531   0.02353   0.03824
   5   13288.1    752.6   0.000000036   0.00000   0.00003   0.00004   0.00002
   6   13288.1    752.6   0.000000008   0.00000   0.00001   0.00003   0.00000
   7   13288.1    752.6   0.000000051   0.00000   0.00006   0.00002   0.00003
   8   14031.0    712.7   0.025980238   0.00249   0.03509   0.02493   0.02527
   9   14130.5    707.7   0.000000062   0.00000   0.00000   0.00008   0.00001
  10   14130.5    707.7   0.000000045   0.00000   0.00004   0.00004   0.00003
  11   14130.5    707.7   0.000002337   0.00000   0.00034   0.00024   0.00023
  12   15910.1    628.5   0.048054426   0.00523   0.03634   0.04966   0.03793

-------------------------------------------------------------------
                    SOC CORRECTED CD SPECTRUM*                     
-------------------------------------------------------------------
State   Energy Wavelength       R         MX        MY        MZ   
        (cm-1)   (nm)       (1e40*sgs)   (au)      (au)      (au)  
-------------------------------------------------------------------
   1    8499.7   1176.5      0.00004   0.00003   0.00009   0.00014
   2    8499.7   1176.5      0.00000   0.00004   0.00004   0.00005
   3    8499.7   1176.5      0.00007   0.00010   0.00001   0.00014
   4   11068.3    903.5    252.63686   0.05753   0.18875   0.04966
   5   13288.1    752.6      0.00007   0.00011   0.00005   0.00021
   6   13288.1    752.6      0.00000   0.00007   0.00001   0.00014
   7   13288.1    752.6      0.00010   0.00002   0.00001   0.00009
   8   14031.0    712.7     92.47556   0.07444   0.00546   0.20575
   9   14130.5    707.7      0.00005   0.00022   0.00007   0.00048
  10   14130.5    707.7      0.00011   0.00013   0.00008   0.00027
  11   14130.5    707.7      0.00739   0.00074   0.00014   0.00191
  12   15910.1    628.5    323.76767   0.12359   0.15822   0.46746

*The X,Y and Z components are the absolute values of the complex numbers

Total run time:    60573.136 sec

           *** ORCA-CIS/TD-DFT FINISHED WITHOUT ERROR ***

---------------------------
SOC CIS/TD-DFT TOTAL ENERGY
---------------------------

    E(SCF)        =  -6989.552070575 Eh
    E(SOC CIS)    =      0.038727542 Eh (SOC Root  1)
    ----------------------------- ---------
    E(tot)        =  -6989.513343033 Eh


-------------------------   --------------------
FINAL SINGLE POINT ENERGY     -6989.513343033195
-------------------------   --------------------


                            ***************************************
                            *     ORCA property calculations      *
                            ***************************************

                                    ---------------------
                                    Active property flags
                                    ---------------------
   (+) Dipole Moment


------------------------------------------------------------------------------
                       ORCA ELECTRIC PROPERTIES CALCULATION
------------------------------------------------------------------------------

Dipole Moment Calculation                       ... on
Quadrupole Moment Calculation                   ... off
Polarizability Calculation                      ... off
GBWName                                         ... DTG-IW.gbw
Electron density file                           ... DTG-IW.scfp
The origin for moment calculation is the CENTER OF MASS  = ( 8.902448,  3.477647 -5.396418)

-------------
DIPOLE MOMENT
-------------
                                X             Y             Z
Electronic contribution:     -2.95264      -8.87443     -73.84935
Nuclear contribution   :      3.49192       8.17284      76.66022
                        -----------------------------------------
Total Dipole Moment    :      0.53928      -0.70159       2.81088
                        -----------------------------------------
Magnitude (a.u.)       :      2.94688
Magnitude (Debye)      :      7.49036



--------------------
Rotational spectrum 
--------------------
 
Rotational constants in cm-1:     0.000853     0.000271     0.000263 
Rotational constants in MHz :    25.571271     8.138107     7.883003 

 Dipole components along the rotational axes: 
x,y,z [a.u.] :    -1.673465     0.185290     2.418524 
x,y,z [Debye]:    -4.253610     0.470969     6.147400 

 

Timings for individual modules:

Sum of individual times         ...    84947.748 sec (=1415.796 min)
GTO integral calculation        ...       10.275 sec (=   0.171 min)   0.0 %
SCF iterations                  ...    24364.154 sec (= 406.069 min)  28.7 %
CIS module                      ...    60573.319 sec (=1009.555 min)  71.3 %
                             ****ORCA TERMINATED NORMALLY****
TOTAL RUN TIME: 0 days 23 hours 35 minutes 49 seconds 869 msec
