
                                 *****************
                                 * O   R   C   A *
                                 *****************

           --- An Ab Initio, DFT and Semiempirical electronic structure package ---

                  #######################################################
                  #                        -***-                        #
                  #          Department of theory and spectroscopy      #
                  #               Directorship: Frank Neese             #
                  #        Max Planck Institute fuer Kohlenforschung    #
                  #                Kaiser Wilhelm Platz 1               #
                  #                 D-45470 Muelheim/Ruhr               #
                  #                      Germany                        #
                  #                                                     #
                  #                  All rights reserved                #
                  #                        -***-                        #
                  #######################################################


                         Program Version 4.2.0 -  RELEASE  -


 With contributions from (in alphabetic order):
   Daniel Aravena         : Magnetic Suceptibility
   Michael Atanasov       : Ab Initio Ligand Field Theory (pilot matlab implementation)
   Alexander A. Auer      : GIAO ZORA, VPT2
   Ute Becker             : Parallelization
   Giovanni Bistoni       : ED, misc. LED, open-shell LED, HFLED
   Martin Brehm           : Molecular dynamics
   Dmytro Bykov           : SCF Hessian
   Vijay G. Chilkuri      : MRCI spin determinant printing, contributions to CSF-ICE
   Dipayan Datta          : RHF DLPNO-CCSD density
   Achintya Kumar Dutta   : EOM-CC, STEOM-CC
   Dmitry Ganyushin       : Spin-Orbit,Spin-Spin,Magnetic field MRCI
   Miquel Garcia          : C-PCM Hessian, Gaussian charge scheme
   Yang Guo               : DLPNO-NEVPT2, CIM, IAO-localization
   Andreas Hansen         : Spin unrestricted coupled pair/coupled cluster methods
   Benjamin Helmich-Paris : CASSCF linear response (MC-RPA)
   Lee Huntington         : MR-EOM, pCC
   Robert Izsak           : Overlap fitted RIJCOSX, COSX-SCS-MP3, EOM
   Christian Kollmar      : KDIIS, OOCD, Brueckner-CCSD(T), CCSD density
   Simone Kossmann        : Meta GGA functionals, TD-DFT gradient, OOMP2, MP2 Hessian
   Martin Krupicka        : AUTO-CI
   Lucas Lang             : DCDCAS
   Dagmar Lenk            : GEPOL surface, SMD
   Dimitrios Liakos       : Extrapolation schemes; Compound Job, initial MDCI parallelization
   Dimitrios Manganas     : Further ROCIS development; embedding schemes
   Dimitrios Pantazis     : SARC Basis sets
   Taras Petrenko         : DFT Hessian,TD-DFT gradient, ASA, ECA, R-Raman, ABS, FL, XAS/XES, NRVS
   Peter Pinski           : DLPNO-MP2, DLPNO-MP2 Gradient
   Christoph Reimann      : Effective Core Potentials
   Marius Retegan         : Local ZFS, SOC
   Christoph Riplinger    : Optimizer, TS searches, QM/MM, DLPNO-CCSD(T), (RO)-DLPNO pert. Triples
   Tobias Risthaus        : Range-separated hybrids, TD-DFT gradient, RPA, STAB
   Michael Roemelt        : Original ROCIS implementation
   Masaaki Saitow         : Open-shell DLPNO-CCSD energy and density
   Barbara Sandhoefer     : DKH picture change effects
   Avijit Sen             : IP-ROCIS
   Kantharuban Sivalingam : CASSCF convergence, NEVPT2, FIC-MRCI
   Bernardo de Souza      : ESD, SOC TD-DFT
   Georgi Stoychev        : AutoAux, RI-MP2 NMR
   Willem Van den Heuvel  : Paramagnetic NMR
   Boris Wezisla          : Elementary symmetry handling
   Frank Wennmohs         : Technical directorship


 We gratefully acknowledge several colleagues who have allowed us to
 interface, adapt or use parts of their codes:
   Stefan Grimme, W. Hujo, H. Kruse,             : VdW corrections, initial TS optimization,
                  C. Bannwarth                     DFT functionals, gCP, sTDA/sTD-DF
   Ed Valeev, F. Pavosevic, A. Kumar             : LibInt (2-el integral package), F12 methods
   Garnet Chan, S. Sharma, J. Yang, R. Olivares  : DMRG
   Ulf Ekstrom                                   : XCFun DFT Library
   Mihaly Kallay                                 : mrcc  (arbitrary order and MRCC methods)
   Andreas Klamt, Michael Diedenhofen            : otool_cosmo (COSMO solvation model)
   Jiri Pittner, Ondrej Demel                    : Mk-CCSD
   Frank Weinhold                                : gennbo (NPA and NBO analysis)
   Christopher J. Cramer and Donald G. Truhlar   : smd solvation model
   Lars Goerigk                                  : TD-DFT with DH, B97 family of functionals
   V. Asgeirsson, H. Jonsson                     : NEB implementation
   FAccTs GmbH                                   : IRC, NEB, NEB-TS, Multilevel, MM, QM/MM, CI optimization
   S Lehtola, MJT Oliveira, MAL Marques          : LibXC Library


 Your calculation uses the libint2 library for the computation of 2-el integrals
 For citations please refer to: http://libint.valeyev.net

 Your ORCA version has been built with support for libXC version: 4.2.3
 For citations please refer to: https://tddft.org/programs/libxc/

 This ORCA versions uses:
   CBLAS   interface :  Fast vector & matrix operations
   LAPACKE interface :  Fast linear algebra routines
   SCALAPACK package :  Parallel linear algebra routines


----- Orbital basis set information -----
Your calculation utilizes the basis: def2-TZVP
   F. Weigend and R. Ahlrichs, Phys. Chem. Chem. Phys. 7, 3297 (2005).

----- AuxJ basis set information -----
Your calculation utilizes the auxiliary basis: def2/J
   F. Weigend, Phys. Chem. Chem. Phys. 8, 1057 (2006).

================================================================================
                                        WARNINGS
                       Please study these warnings very carefully!
================================================================================

INFO   : Checking CIS options ...

WARNING: (CIS/TDDFT): Spin-orbit needs TRIPLETS set to TRUE
  ===> : ajusting flags

WARNING: CIS/ROCIS methods need fully converged wavefunctions
  ===> : Setting SCFConvForced true
         You can overwrite this default with %scf ConvForced false 


INFO   : the flag for use of LIBINT has been found!

================================================================================
                                       INPUT FILE
================================================================================
NAME = EH-IDTBR.inp
|  1> # ORCA input file
|  2> # EH-IDTBR.out
|  3> ! B3LYP def2-TZVP def2/J RIJCOSX Grid4 TightSCF
|  4> 
|  5> %maxcore 2000
|  6> %tddft
|  7>   maxdim 5
|  8>   nroots 3
|  9>   dosoc true
| 10>   end
| 11> 
| 12> 
| 13> 
| 14> * xyz 0 1
| 15>    S        0.61229        -2.15591        -0.85768
| 16>    C        2.18308        -1.55453        -1.38374
| 17>    S        3.26216        -2.45483        -2.21489
| 18>    N        2.35756        -0.25985        -1.01998
| 19>    C        3.57409         0.47514        -1.30661
| 20>    C        4.64784         0.18879        -0.26454
| 21>    C        1.32423         0.33008        -0.32050
| 22>    O        1.34517         1.47858         0.06521
| 23>    C        0.21959        -0.62312        -0.12739
| 24>    C       -0.87856        -0.21639         0.55570
| 25>    C       -2.08286        -0.88519         0.91479
| 26>    C       -2.41274        -2.22073         0.56450
| 27>    N       -1.68388        -3.05867        -0.16310
| 28>    S       -2.45967        -4.45907        -0.31136
| 29>    N       -3.76421        -4.07483         0.54452
| 30>    C       -3.65165        -2.82346         0.98646
| 31>    C       -4.59108        -2.09355         1.76713
| 32>    C       -4.23482        -0.78338         2.07624
| 33>    C       -3.04055        -0.20875         1.67158
| 34>    C       -5.82445        -2.66971         2.19286
| 35>    C       -6.26507        -3.96941         2.01240
| 36>    C       -7.53653        -4.17497         2.53389
| 37>    C       -8.07096        -3.04202         3.12565
| 38>    S       -7.01341        -1.69537         3.04596
| 39>    C       -9.38603        -3.30030         3.61414
| 40>    C       -9.68907        -4.64917         3.30230
| 41>    C       -8.50776        -5.32311         2.62291
| 42>    C       -8.81357        -5.88871         1.22696
| 43>    C       -9.23794        -4.82913         0.19482
| 44>    C       -8.71840        -5.20368        -1.20047
| 45>    C       -7.22496        -4.95033        -1.37379
| 46>    C      -10.76359        -4.65415         0.17254
| 47>    C      -11.19518        -3.30817        -0.39748
| 48>    C       -7.88048        -6.38581         3.55855
| 49>    C       -8.65887        -7.70746         3.70811
| 50>    C       -8.03665        -8.83523         2.86207
| 51>    C       -9.07102        -9.68653         2.13192
| 52>    C       -8.73578        -8.07440         5.19750
| 53>    C       -9.60151        -9.29246         5.49489
| 54>    C      -10.91311        -5.16833         3.65730
| 55>    C      -11.81174        -4.32897         4.31260
| 56>    C      -11.51238        -2.97735         4.60487
| 57>    C      -10.28195        -2.46224         4.27065
| 58>    C      -12.67992        -2.29848         5.29169
| 59>    C      -12.32284        -1.63139         6.63171
| 60>    C      -12.01477        -2.60560         7.78152
| 61>    C      -10.61724        -3.24339         7.66201
| 62>    C      -10.65237        -4.76639         7.72263
| 63>    C      -12.17761        -1.86880         9.11911
| 64>    C      -12.12236        -2.79937        10.32474
| 65>    C      -13.39875        -1.29690         4.35045
| 66>    C      -12.58718        -0.10015         3.81481
| 67>    C      -12.02511        -0.41802         2.41711
| 68>    C      -10.69661         0.25527         2.08387
| 69>    C      -13.51793         1.12417         3.81134
| 70>    C      -12.88364         2.42798         3.34340
| 71>    C      -13.62686        -3.46055         5.45328
| 72>    C      -13.11083        -4.59537         4.84247
| 73>    S      -14.16236        -5.94605         4.95130
| 74>    C      -15.32782        -4.97316         5.82332
| 75>    C      -14.88429        -3.66911         6.00139
| 76>    C      -16.56213        -5.54419         6.25004
| 77>    C      -16.86503        -6.90661         5.98353
| 78>    N      -16.08781        -7.78212         5.35278
| 79>    S      -16.84587        -9.19971         5.28398
| 80>    N      -18.19430        -8.77066         6.04950
| 81>    C      -18.11005        -7.48860         6.39618
| 82>    C      -19.09211        -6.72092         7.08820
| 83>    C      -18.75232        -5.39165         7.33480
| 84>    C      -17.54574        -4.83307         6.93541
| 85>    C      -20.29719        -7.39166         7.44488
| 86>    C      -21.43676        -6.99664         8.07599
| 87>    S      -22.70749        -8.19943         8.30393
| 88>    C      -23.75888        -7.04689         9.09922
| 89>    S      -25.25295        -7.39105         9.66057
| 90>    N      -23.14953        -5.83712         9.16632
| 91>    C      -23.78259        -4.69657         9.80030
| 92>    C      -23.57452        -4.71916        11.30928
| 93>    C      -21.87372        -5.71964         8.63668
| 94>    O      -21.27131        -4.66533         8.66564
| 95>    H        3.30573         1.53410        -1.29796
| 96>    H        3.91958         0.18174        -2.30065
| 97>    H        4.29505         0.46709         0.72586
| 98>    H        5.53968         0.76460        -0.49342
| 99>    H        4.90384        -0.86801        -0.26804
|100>    H       -0.81130         0.81404         0.89341
|101>    H       -4.92262        -0.19100         2.66222
|102>    H       -2.83657         0.81244         1.95799
|103>    H       -5.66202        -4.70197         1.51060
|104>    H       -7.90568        -6.38202         0.87919
|105>    H       -9.59403        -6.64582         1.29961
|106>    H       -8.79222        -3.86796         0.47009
|107>    H       -9.25339        -4.61502        -1.94732
|108>    H       -8.93839        -6.25630        -1.39479
|109>    H       -6.63341        -5.56193        -0.69757
|110>    H       -6.91895        -5.18282        -2.39138
|111>    H       -6.99079        -3.90644        -1.17518
|112>    H      -11.14998        -4.73044         1.18958
|113>    H      -11.20819        -5.46196        -0.41409
|114>    H      -10.78208        -2.49813         0.20013
|115>    H      -12.27949        -3.22257        -0.38589
|116>    H      -10.85699        -3.18306        -1.42311
|117>    H       -7.77259        -5.91509         4.53917
|118>    H       -6.87163        -6.59643         3.19804
|119>    H       -9.68218        -7.55760         3.36170
|120>    H       -7.42697        -9.47521         3.50313
|121>    H       -7.36890        -8.40768         2.11216
|122>    H       -9.63218        -9.08021         1.42354
|123>    H       -8.57817       -10.48228         1.57725
|124>    H       -9.77447       -10.13923         2.82442
|125>    H       -9.15210        -7.21993         5.73782
|126>    H       -7.72518        -8.24701         5.57630
|127>    H      -10.60357        -9.15570         5.09339
|128>    H       -9.68421        -9.43438         6.57037
|129>    H       -9.17331       -10.19575         5.06929
|130>    H      -11.20230        -6.18605         3.44764
|131>    H       -9.99681        -1.45046         4.51095
|132>    H      -13.17826        -1.01811         6.92463
|133>    H      -11.47340        -0.96142         6.49204
|134>    H      -12.76355        -3.40377         7.75597
|135>    H       -9.97563        -2.86951         8.46239
|136>    H      -10.15351        -2.94965         6.72078
|137>    H      -11.09910        -5.10956         8.65254
|138>    H       -9.64368        -5.17024         7.65819
|139>    H      -11.23262        -5.16773         6.89465
|140>    H      -13.14267        -1.35586         9.12676
|141>    H      -11.40002        -1.10619         9.20834
|142>    H      -12.89736        -3.55966        10.25179
|143>    H      -12.28149        -2.23611        11.24160
|144>    H      -11.15883        -3.29638        10.39661
|145>    H      -14.26165        -0.92525         4.90754
|146>    H      -13.79193        -1.85765         3.49867
|147>    H      -11.75643         0.11332         4.49183
|148>    H      -12.76861        -0.13854         1.66695
|149>    H      -11.87567        -1.49693         2.33678
|150>    H      -10.76503         1.33669         2.12956
|151>    H      -10.38828        -0.02093         1.07707
|152>    H       -9.91544        -0.06379         2.76933
|153>    H      -13.88197         1.27272         4.83158
|154>    H      -14.38400         0.90393         3.18184
|155>    H      -11.96494         2.62746         3.89065
|156>    H      -13.57019         3.25352         3.52046
|157>    H      -12.66422         2.40100         2.28009
|158>    H      -15.45615        -2.91938         6.51658
|159>    H      -19.45828        -4.76727         7.85639
|160>    H      -17.37038        -3.79480         7.16835
|161>    H      -20.28982        -8.43290         7.13845
|162>    H      -24.84806        -4.72683         9.56155
|163>    H      -23.32443        -3.80530         9.36521
|164>    H      -24.01817        -5.61472        11.73769
|165>    H      -24.04764        -3.84883        11.75418
|166>    H      -22.51273        -4.69984        11.54386
|167> *
|168> 
|169>                          ****END OF INPUT****
================================================================================

                       ****************************
                       * Single Point Calculation *
                       ****************************

---------------------------------
CARTESIAN COORDINATES (ANGSTROEM)
---------------------------------
  S      0.612290   -2.155910   -0.857680
  C      2.183080   -1.554530   -1.383740
  S      3.262160   -2.454830   -2.214890
  N      2.357560   -0.259850   -1.019980
  C      3.574090    0.475140   -1.306610
  C      4.647840    0.188790   -0.264540
  C      1.324230    0.330080   -0.320500
  O      1.345170    1.478580    0.065210
  C      0.219590   -0.623120   -0.127390
  C     -0.878560   -0.216390    0.555700
  C     -2.082860   -0.885190    0.914790
  C     -2.412740   -2.220730    0.564500
  N     -1.683880   -3.058670   -0.163100
  S     -2.459670   -4.459070   -0.311360
  N     -3.764210   -4.074830    0.544520
  C     -3.651650   -2.823460    0.986460
  C     -4.591080   -2.093550    1.767130
  C     -4.234820   -0.783380    2.076240
  C     -3.040550   -0.208750    1.671580
  C     -5.824450   -2.669710    2.192860
  C     -6.265070   -3.969410    2.012400
  C     -7.536530   -4.174970    2.533890
  C     -8.070960   -3.042020    3.125650
  S     -7.013410   -1.695370    3.045960
  C     -9.386030   -3.300300    3.614140
  C     -9.689070   -4.649170    3.302300
  C     -8.507760   -5.323110    2.622910
  C     -8.813570   -5.888710    1.226960
  C     -9.237940   -4.829130    0.194820
  C     -8.718400   -5.203680   -1.200470
  C     -7.224960   -4.950330   -1.373790
  C    -10.763590   -4.654150    0.172540
  C    -11.195180   -3.308170   -0.397480
  C     -7.880480   -6.385810    3.558550
  C     -8.658870   -7.707460    3.708110
  C     -8.036650   -8.835230    2.862070
  C     -9.071020   -9.686530    2.131920
  C     -8.735780   -8.074400    5.197500
  C     -9.601510   -9.292460    5.494890
  C    -10.913110   -5.168330    3.657300
  C    -11.811740   -4.328970    4.312600
  C    -11.512380   -2.977350    4.604870
  C    -10.281950   -2.462240    4.270650
  C    -12.679920   -2.298480    5.291690
  C    -12.322840   -1.631390    6.631710
  C    -12.014770   -2.605600    7.781520
  C    -10.617240   -3.243390    7.662010
  C    -10.652370   -4.766390    7.722630
  C    -12.177610   -1.868800    9.119110
  C    -12.122360   -2.799370   10.324740
  C    -13.398750   -1.296900    4.350450
  C    -12.587180   -0.100150    3.814810
  C    -12.025110   -0.418020    2.417110
  C    -10.696610    0.255270    2.083870
  C    -13.517930    1.124170    3.811340
  C    -12.883640    2.427980    3.343400
  C    -13.626860   -3.460550    5.453280
  C    -13.110830   -4.595370    4.842470
  S    -14.162360   -5.946050    4.951300
  C    -15.327820   -4.973160    5.823320
  C    -14.884290   -3.669110    6.001390
  C    -16.562130   -5.544190    6.250040
  C    -16.865030   -6.906610    5.983530
  N    -16.087810   -7.782120    5.352780
  S    -16.845870   -9.199710    5.283980
  N    -18.194300   -8.770660    6.049500
  C    -18.110050   -7.488600    6.396180
  C    -19.092110   -6.720920    7.088200
  C    -18.752320   -5.391650    7.334800
  C    -17.545740   -4.833070    6.935410
  C    -20.297190   -7.391660    7.444880
  C    -21.436760   -6.996640    8.075990
  S    -22.707490   -8.199430    8.303930
  C    -23.758880   -7.046890    9.099220
  S    -25.252950   -7.391050    9.660570
  N    -23.149530   -5.837120    9.166320
  C    -23.782590   -4.696570    9.800300
  C    -23.574520   -4.719160   11.309280
  C    -21.873720   -5.719640    8.636680
  O    -21.271310   -4.665330    8.665640
  H      3.305730    1.534100   -1.297960
  H      3.919580    0.181740   -2.300650
  H      4.295050    0.467090    0.725860
  H      5.539680    0.764600   -0.493420
  H      4.903840   -0.868010   -0.268040
  H     -0.811300    0.814040    0.893410
  H     -4.922620   -0.191000    2.662220
  H     -2.836570    0.812440    1.957990
  H     -5.662020   -4.701970    1.510600
  H     -7.905680   -6.382020    0.879190
  H     -9.594030   -6.645820    1.299610
  H     -8.792220   -3.867960    0.470090
  H     -9.253390   -4.615020   -1.947320
  H     -8.938390   -6.256300   -1.394790
  H     -6.633410   -5.561930   -0.697570
  H     -6.918950   -5.182820   -2.391380
  H     -6.990790   -3.906440   -1.175180
  H    -11.149980   -4.730440    1.189580
  H    -11.208190   -5.461960   -0.414090
  H    -10.782080   -2.498130    0.200130
  H    -12.279490   -3.222570   -0.385890
  H    -10.856990   -3.183060   -1.423110
  H     -7.772590   -5.915090    4.539170
  H     -6.871630   -6.596430    3.198040
  H     -9.682180   -7.557600    3.361700
  H     -7.426970   -9.475210    3.503130
  H     -7.368900   -8.407680    2.112160
  H     -9.632180   -9.080210    1.423540
  H     -8.578170  -10.482280    1.577250
  H     -9.774470  -10.139230    2.824420
  H     -9.152100   -7.219930    5.737820
  H     -7.725180   -8.247010    5.576300
  H    -10.603570   -9.155700    5.093390
  H     -9.684210   -9.434380    6.570370
  H     -9.173310  -10.195750    5.069290
  H    -11.202300   -6.186050    3.447640
  H     -9.996810   -1.450460    4.510950
  H    -13.178260   -1.018110    6.924630
  H    -11.473400   -0.961420    6.492040
  H    -12.763550   -3.403770    7.755970
  H     -9.975630   -2.869510    8.462390
  H    -10.153510   -2.949650    6.720780
  H    -11.099100   -5.109560    8.652540
  H     -9.643680   -5.170240    7.658190
  H    -11.232620   -5.167730    6.894650
  H    -13.142670   -1.355860    9.126760
  H    -11.400020   -1.106190    9.208340
  H    -12.897360   -3.559660   10.251790
  H    -12.281490   -2.236110   11.241600
  H    -11.158830   -3.296380   10.396610
  H    -14.261650   -0.925250    4.907540
  H    -13.791930   -1.857650    3.498670
  H    -11.756430    0.113320    4.491830
  H    -12.768610   -0.138540    1.666950
  H    -11.875670   -1.496930    2.336780
  H    -10.765030    1.336690    2.129560
  H    -10.388280   -0.020930    1.077070
  H     -9.915440   -0.063790    2.769330
  H    -13.881970    1.272720    4.831580
  H    -14.384000    0.903930    3.181840
  H    -11.964940    2.627460    3.890650
  H    -13.570190    3.253520    3.520460
  H    -12.664220    2.401000    2.280090
  H    -15.456150   -2.919380    6.516580
  H    -19.458280   -4.767270    7.856390
  H    -17.370380   -3.794800    7.168350
  H    -20.289820   -8.432900    7.138450
  H    -24.848060   -4.726830    9.561550
  H    -23.324430   -3.805300    9.365210
  H    -24.018170   -5.614720   11.737690
  H    -24.047640   -3.848830   11.754180
  H    -22.512730   -4.699840   11.543860

----------------------------
CARTESIAN COORDINATES (A.U.)
----------------------------
  NO LB      ZA    FRAG     MASS         X           Y           Z
   0 S    16.0000    0    32.060    1.157060   -4.074079   -1.620780
   1 C     6.0000    0    12.011    4.125423   -2.937636   -2.614890
   2 S    16.0000    0    32.060    6.164589   -4.638956   -4.185536
   3 N     7.0000    0    14.007    4.455143   -0.491045   -1.927483
   4 C     6.0000    0    12.011    6.754051    0.897884   -2.469135
   5 C     6.0000    0    12.011    8.783145    0.356761   -0.499908
   6 C     6.0000    0    12.011    2.502432    0.623761   -0.605657
   7 O     8.0000    0    15.999    2.542003    2.794111    0.123229
   8 C     6.0000    0    12.011    0.414965   -1.177526   -0.240732
   9 C     6.0000    0    12.011   -1.660238   -0.408918    1.050121
  10 C     6.0000    0    12.011   -3.936035   -1.672767    1.728703
  11 C     6.0000    0    12.011   -4.559418   -4.196572    1.066750
  12 N     7.0000    0    14.007   -3.182072   -5.780049   -0.308214
  13 S    16.0000    0    32.060   -4.648103   -8.426421   -0.588385
  14 N     7.0000    0    14.007   -7.113326   -7.700313    1.028994
  15 C     6.0000    0    12.011   -6.900618   -5.335566    1.864139
  16 C     6.0000    0    12.011   -8.675884   -3.956236    3.339392
  17 C     6.0000    0    12.011   -8.002650   -1.480374    3.923525
  18 C     6.0000    0    12.011   -5.745807   -0.394480    3.158828
  19 C     6.0000    0    12.011  -11.006615   -5.045021    4.143905
  20 C     6.0000    0    12.011  -11.839267   -7.501098    3.802885
  21 C     6.0000    0    12.011  -14.241978   -7.889550    4.788358
  22 C     6.0000    0    12.011  -15.251904   -5.748585    5.906622
  23 S    16.0000    0    32.060  -13.253424   -3.203785    5.756030
  24 C     6.0000    0    12.011  -17.737026   -6.236663    6.829735
  25 C     6.0000    0    12.011  -18.309689   -8.785658    6.240443
  26 C     6.0000    0    12.011  -16.077336  -10.059220    4.956582
  27 C     6.0000    0    12.011  -16.655234  -11.128049    2.318618
  28 C     6.0000    0    12.011  -17.457177   -9.125733    0.368156
  29 C     6.0000    0    12.011  -16.475388   -9.833530   -2.268560
  30 C     6.0000    0    12.011  -13.653196   -9.354768   -2.596087
  31 C     6.0000    0    12.011  -20.340237   -8.795069    0.326053
  32 C     6.0000    0    12.011  -21.155824   -6.251535   -0.751128
  33 C     6.0000    0    12.011  -14.891949  -12.067432    6.724685
  34 C     6.0000    0    12.011  -16.362893  -14.564989    7.007312
  35 C     6.0000    0    12.011  -15.187068  -16.696165    5.408528
  36 C     6.0000    0    12.011  -17.141744  -18.304889    4.028745
  37 C     6.0000    0    12.011  -16.508232  -15.258405    9.821852
  38 C     6.0000    0    12.011  -18.144224  -17.560205   10.383837
  39 C     6.0000    0    12.011  -20.622789   -9.766728    6.911295
  40 C     6.0000    0    12.011  -22.320954   -8.180568    8.149633
  41 C     6.0000    0    12.011  -21.755245   -5.626376    8.701943
  42 C     6.0000    0    12.011  -19.430070   -4.652959    8.070359
  43 C     6.0000    0    12.011  -23.961576   -4.343498    9.999845
  44 C     6.0000    0    12.011  -23.286793   -3.082880   12.532116
  45 C     6.0000    0    12.011  -22.704625   -4.923870   14.704942
  46 C     6.0000    0    12.011  -20.063676   -6.129119   14.479101
  47 C     6.0000    0    12.011  -20.130062   -9.007172   14.593656
  48 C     6.0000    0    12.011  -23.012348   -3.531520   17.232620
  49 C     6.0000    0    12.011  -22.907940   -5.290043   19.510931
  50 C     6.0000    0    12.011  -25.319968   -2.450786    8.221159
  51 C     6.0000    0    12.011  -23.786323   -0.189256    7.208946
  52 C     6.0000    0    12.011  -22.724165   -0.789943    4.567676
  53 C     6.0000    0    12.011  -20.213663    0.482390    3.937944
  54 C     6.0000    0    12.011  -25.545186    2.124373    7.202389
  55 C     6.0000    0    12.011  -24.346551    4.588217    6.318110
  56 C     6.0000    0    12.011  -25.751033   -6.539492   10.305206
  57 C     6.0000    0    12.011  -24.775878   -8.683991    9.150942
  58 S    16.0000    0    32.060  -26.762982  -11.236406    9.356601
  59 C     6.0000    0    12.011  -28.965382   -9.397910   11.004480
  60 C     6.0000    0    12.011  -28.127232   -6.933613   11.340984
  61 C     6.0000    0    12.011  -31.297890  -10.477001   11.810864
  62 C     6.0000    0    12.011  -31.870288  -13.051601   11.307233
  63 N     7.0000    0    14.007  -30.401555  -14.706076   10.115288
  64 S    16.0000    0    32.060  -31.834081  -17.384932    9.985275
  65 N     7.0000    0    14.007  -34.382244  -16.574145   11.431898
  66 C     6.0000    0    12.011  -34.223035  -14.151403   12.087029
  67 C     6.0000    0    12.011  -36.078859  -12.700698   13.394757
  68 C     6.0000    0    12.011  -35.436749  -10.188742   13.860763
  69 C     6.0000    0    12.011  -33.156643   -9.133179   13.106026
  70 C     6.0000    0    12.011  -38.356130  -13.968213   14.068784
  71 C     6.0000    0    12.011  -40.509606  -13.221733   15.261409
  72 S    16.0000    0    32.060  -42.910937  -15.494677   15.692154
  73 C     6.0000    0    12.011  -44.897776  -13.316692   17.195034
  74 S    16.0000    0    32.060  -47.721160  -13.967060   18.255832
  75 N     7.0000    0    14.007  -43.746272  -11.030558   17.321834
  76 C     6.0000    0    12.011  -44.942582   -8.875231   18.519883
  77 C     6.0000    0    12.011  -44.549387   -8.917920   21.371442
  78 C     6.0000    0    12.011  -41.335340  -10.808553   16.320960
  79 O     8.0000    0    15.999  -40.196950   -8.816196   16.375686
  80 H     1.0000    0     1.008    6.246924    2.899029   -2.452789
  81 H     1.0000    0     1.008    7.406933    0.343439   -4.347598
  82 H     1.0000    0     1.008    8.116468    0.882672    1.371677
  83 H     1.0000    0     1.008   10.468478    1.444885   -0.932429
  84 H     1.0000    0     1.008    9.266915   -1.640301   -0.506522
  85 H     1.0000    0     1.008   -1.533135    1.538313    1.688300
  86 H     1.0000    0     1.008   -9.302404   -0.360938    5.030867
  87 H     1.0000    0     1.008   -5.360340    1.535289    3.700065
  88 H     1.0000    0     1.008  -10.699667   -8.885436    2.854620
  89 H     1.0000    0     1.008  -14.939570  -12.060270    1.661428
  90 H     1.0000    0     1.008  -18.130089  -12.558780    2.455907
  91 H     1.0000    0     1.008  -16.614888   -7.309385    0.888341
  92 H     1.0000    0     1.008  -17.486373   -8.721124   -3.679901
  93 H     1.0000    0     1.008  -16.891109  -11.822694   -2.635771
  94 H     1.0000    0     1.008  -12.535328  -10.510524   -1.318216
  95 H     1.0000    0     1.008  -13.074921   -9.794110   -4.519053
  96 H     1.0000    0     1.008  -13.210679   -7.382102   -2.220768
  97 H     1.0000    0     1.008  -21.070409   -8.939236    2.247980
  98 H     1.0000    0     1.008  -21.180410  -10.321609   -0.782517
  99 H     1.0000    0     1.008  -20.375178   -4.720782    0.378191
 100 H     1.0000    0     1.008  -23.204873   -6.089775   -0.729226
 101 H     1.0000    0     1.008  -20.516738   -6.015112   -2.689288
 102 H     1.0000    0     1.008  -14.688066  -11.177900    8.577788
 103 H     1.0000    0     1.008  -12.985499  -12.465446    6.043420
 104 H     1.0000    0     1.008  -18.296669  -14.281794    6.352692
 105 H     1.0000    0     1.008  -14.034939  -17.905552    6.619956
 106 H     1.0000    0     1.008  -13.925203  -15.888213    3.991404
 107 H     1.0000    0     1.008  -18.202182  -17.159110    2.690101
 108 H     1.0000    0     1.008  -16.210392  -19.808638    2.980571
 109 H     1.0000    0     1.008  -18.471071  -19.160368    5.337380
 110 H     1.0000    0     1.008  -17.294963  -13.643690   10.842908
 111 H     1.0000    0     1.008  -14.598475  -15.584590   10.537680
 112 H     1.0000    0     1.008  -20.037843  -17.301766    9.625112
 113 H     1.0000    0     1.008  -18.300505  -17.828394   12.416200
 114 H     1.0000    0     1.008  -17.335044  -19.267175    9.579570
 115 H     1.0000    0     1.008  -21.169279  -11.689940    6.515095
 116 H     1.0000    0     1.008  -18.891233   -2.740972    8.524460
 117 H     1.0000    0     1.008  -24.903302   -1.923949   13.085654
 118 H     1.0000    0     1.008  -21.681584   -1.816820   12.268178
 119 H     1.0000    0     1.008  -24.119614   -6.432193   14.656659
 120 H     1.0000    0     1.008  -18.851209   -5.422588   15.991600
 121 H     1.0000    0     1.008  -19.187353   -5.574031   12.700434
 122 H     1.0000    0     1.008  -20.974259   -9.655669   16.350931
 123 H     1.0000    0     1.008  -18.223914   -9.770338   14.471882
 124 H     1.0000    0     1.008  -21.226576   -9.765594   13.029000
 125 H     1.0000    0     1.008  -24.836047   -2.562204   17.247077
 126 H     1.0000    0     1.008  -21.542916   -2.090396   17.401241
 127 H     1.0000    0     1.008  -24.372478   -6.726783   19.373075
 128 H     1.0000    0     1.008  -23.208653   -4.225636   21.243545
 129 H     1.0000    0     1.008  -21.087133   -6.229255   19.646746
 130 H     1.0000    0     1.008  -26.950613   -1.748469    9.273907
 131 H     1.0000    0     1.008  -26.062971   -3.510450    6.611528
 132 H     1.0000    0     1.008  -22.216433    0.214144    8.488329
 133 H     1.0000    0     1.008  -24.129176   -0.261803    3.150079
 134 H     1.0000    0     1.008  -22.441764   -2.828788    4.415874
 135 H     1.0000    0     1.008  -20.342959    2.525978    4.024285
 136 H     1.0000    0     1.008  -19.631004   -0.039552    2.035367
 137 H     1.0000    0     1.008  -18.737466   -0.120546    5.233275
 138 H     1.0000    0     1.008  -26.233121    2.405092    9.130363
 139 H     1.0000    0     1.008  -27.181821    1.708180    6.012806
 140 H     1.0000    0     1.008  -22.610460    4.965180    7.352263
 141 H     1.0000    0     1.008  -25.643943    6.148262    6.652705
 142 H     1.0000    0     1.008  -23.931907    4.537232    4.308746
 143 H     1.0000    0     1.008  -29.207891   -5.516829   12.314552
 144 H     1.0000    0     1.008  -36.770820   -9.008835   14.846426
 145 H     1.0000    0     1.008  -32.825261   -7.171133   13.546218
 146 H     1.0000    0     1.008  -38.342203  -15.935872   13.489716
 147 H     1.0000    0     1.008  -46.956028   -8.932414   18.068711
 148 H     1.0000    0     1.008  -44.076785   -7.190975   17.697682
 149 H     1.0000    0     1.008  -45.387764  -10.610283   22.181020
 150 H     1.0000    0     1.008  -45.443454   -7.273235   22.212181
 151 H     1.0000    0     1.008  -42.542894   -8.881410   21.814734

--------------------------------
INTERNAL COORDINATES (ANGSTROEM)
--------------------------------
 S      0   0   0     0.000000000000     0.00000000     0.00000000
 C      1   0   0     1.762321835562     0.00000000     0.00000000
 S      2   1   0     1.632716772407   123.56431078     0.00000000
 N      2   1   3     1.356082929028   111.12483872   179.33843091
 C      4   2   1     1.449935273693   122.60774371   178.85486797
 C      5   4   2     1.523432069342   111.15303486   277.29402261
 C      4   2   1     1.380239314105   116.59448212     0.58432557
 O      7   4   2     1.211719001130   123.60685489   180.05717805
 C      7   4   2     1.471771463815   110.58442108   359.73998032
 C      9   7   4     1.355719242137   118.66997371   179.30167453
 C     10   9   7     1.423579136578   132.17470951   180.66098309
 C     11  10   9     1.419574228457   125.19304784   358.07601084
 N     12  11  10     1.327698046696   126.97170845   358.79982545
 S     13  12  11     1.607778377669   109.59467500   180.44693126
 N     14  13  12     1.606858912164    97.72052097   359.92144438
 C     15  14  13     1.331881223721   109.43866106     0.09462341
 C     16  15  14     1.422934637255   127.45969724   179.25651315
 C     17  16  15     1.392485406961   115.81811653   181.12986618
 C     18  17  16     1.385723704567   123.08195319   359.38889733
 C     17  16  15     1.426326728138   121.83258966     0.57381712
 C     20  17  16     1.384171913456   127.99876289     4.15805723
 C     21  20  17     1.389538508031   112.41138612   181.37186094
 C     22  21  20     1.385413665661   113.09778485   359.44462849
 S     23  22  21     1.714126226711   112.61904790     0.16336057
 C     23  22  21     1.426443179170   110.72236305   178.61120025
 C     25  23  22     1.417225354028   107.10429467   359.44780776
 C     22  21  20     1.506465310885   136.45606933   179.13033588
 C     27  22  21     1.536912332763   110.79871334   304.17394336
 C     28  27  22     1.538867327907   114.24737230   308.65737579
 C     29  28  27     1.535266653777   110.38099111   145.56072257
 C     30  29  28     1.524660315775   113.21911486   284.57333525
 C     29  28  27     1.535813244278   111.23051280   268.63855329
 C     32  29  28     1.524091496236   112.78963062   157.99426385
 C     27  22  21     1.548623162038   107.31095976    66.89845355
 C     34  27  22     1.541109310919   116.26654847   184.66224725
 C     35  34  27     1.541040746671   111.73992890   101.78533932
 C     36  35  34     1.525697220749   113.41174071   222.61187632
 C     35  34  27     1.535852429044   108.92302729   226.30144027
 C     38  35  34     1.523679562310   114.12453459   174.22612334
 C     26  25  23     1.376163517610   119.50401347   180.33247744
 C     40  26  25     1.393369719959   117.88549188     0.20901054
 C     41  40  26     1.414890379817   122.42211553     0.71578224
 C     42  41  40     1.375136104318   119.79817650   358.21959329
 C     42  41  40     1.515168584977   111.01511846   178.72509949
 C     44  42  41     1.538885569138   114.21371506   125.63256169
 C     45  44  42     1.538198714438   115.01345066   289.26431760
 C     46  45  44     1.540827318391   112.69552698    76.18357697
 C     47  46  45     1.524610737631   112.92380714   233.32598683
 C     46  45  44     1.535753272404   109.02367085   200.21223785
 C     49  46  45     1.523993695623   113.09311336   170.41523917
 C     44  42  41     1.551067955603   111.79948674   252.52440539
 C     51  44  42     1.542000855058   117.90692709   298.30786550
 C     52  51  44     1.539652334717   110.31895590    95.94681889
 C     53  52  51     1.526198077479   115.14499916   210.84791223
 C     52  51  44     1.537942478053   107.46373907   218.96531190
 C     55  52  51     1.523552481472   115.46730229   178.51149150
 C     44  42  41     1.507717936684   100.79020711     4.49199649
 C     57  44  42     1.388233499596   110.45276200   355.50120805
 S     58  57  44     1.715195549260   112.82539913   181.63368482
 C     59  58  57     1.750780067313    90.12125370     0.40736568
 C     57  44  42     1.387462450159   136.66853404   178.63843728
 C     60  59  58     1.425372370786   120.19481583   179.61234064
 C     62  60  59     1.420902616825   120.83563498     0.32405548
 N     63  62  60     1.329824894864   126.55830822     0.60763964
 S     64  63  62     1.609021383233   108.96338072   180.02932764
 N     65  64  63     1.608840650220    98.02311995     0.00000000
 C     66  65  64     1.330775311050   109.13619139   359.97419908
 C     67  66  65     1.425715997806   126.98315681   179.88096759
 C     68  67  66     1.393996964487   115.55735810   179.77744571
 C     69  68  67     1.388293659461   122.99895520     0.29313758
 C     68  67  66     1.424545743878   116.78880102   359.73766587
 C     71  68  67     1.361234886932   133.44319480   181.03830092
 S     72  71  68     1.764487223133   117.70860445   179.78270444
 C     73  72  71     1.751072690610    92.43085699   180.43763906
 S     74  73  72     1.632729338562   124.53057163   179.66416576
 N     74  73  72     1.356227593511   109.86552816     0.09564045
 C     76  74  73     1.450361991539   121.80188602   181.21386133
 C     77  76  74     1.523425112501   111.20448831    83.22558412
 C     76  74  73     1.386366198412   118.04439706   359.62351074
 O     79  76  74     1.214621778909   121.38999626   180.09467665
 H      5   4   2     1.092468852508   106.48094129   156.91285317
 H      5   4   2     1.092502824573   108.00279949    38.57473469
 H      6   5   4     1.087567852642   110.25396426   300.75301823
 H      6   5   4     1.085965835604   109.57248794   181.00423017
 H      6   5   4     1.087370447456   110.26815452    61.34738130
 H     10   9   7     1.086442790302   113.01771687     0.15402466
 H     18  17  16     1.080442254264   118.25456893   179.61283925
 H     19  18  17     1.080031270195   118.51687026   180.36169213
 H     21  20  17     1.073366990409   121.52977825     0.79896095
 H     28  27  22     1.090212355966   106.89123079    69.44603883
 H     28  27  22     1.089775842180   109.73200256   185.91190492
 H     29  28  27     1.094663263383   108.88262906    27.46765056
 H     30  29  28     1.091109443731   108.93734000   164.10539227
 H     30  29  28     1.092778443647   109.17672449    47.08593517
 H     31  30  29     1.086857603783   111.64753734    62.87745189
 H     31  30  29     1.087742215923   110.26699388   182.91389760
 H     31  30  29     1.088112059073   110.45468447   302.67667621
 H     32  29  28     1.090636400364   109.29531928    37.75518133
 H     32  29  28     1.092868204771   109.12917076   280.16364886
 H     33  32  29     1.088096559916   110.15324883   300.07657061
 H     33  32  29     1.087745312194   110.35265506   180.54435934
 H     33  32  29     1.087171506755   111.49226847    60.36807988
 H     34  27  22     1.093084239617   106.64747857    62.37876861
 H     34  27  22     1.091836327936   107.88781949   308.01855402
 H     35  34  27     1.090697604197   108.97910428   342.81373461
 H     36  35  34     1.091898359006   109.39381710   100.16394054
 H     36  35  34     1.091354238137   109.73000776   343.13429194
 H     37  36  35     1.088267757677   110.50138886    62.43751682
 H     37  36  35     1.088015622085   110.17926169   181.72124902
 H     37  36  35     1.085972118657   111.50517698   301.98271360
 H     38  35  34     1.093337562558   108.15520745    53.79028093
 H     38  35  34     1.092975760070   109.11838800   296.88437331
 H     39  38  35     1.088131329941   110.53314907   304.58099927
 H     39  38  35     1.087951196883   109.90207709   185.30904057
 H     39  38  35     1.086472928379   111.36120580    65.69397549
 H     40  26  25     1.078583408968   122.97693159   179.98055554
 H     43  42  41     1.078307784447   122.27081250   182.57770888
 H     45  44  42     1.092546502992   107.16444040   168.97542112
 H     45  44  42     1.090832628500   109.59914445    52.71458718
 H     46  45  44     1.094714410155   107.89916628   316.45448645
 H     47  46  45     1.091813990980   109.53601398   111.57857227
 H     47  46  45     1.089606632414   109.96377455   354.37095726
 H     48  47  46     1.087228563780   111.02524715   301.41539828
 H     48  47  46     1.088440559792   110.30000689   181.33544555
 H     48  47  46     1.087802711203   110.52295861    61.72450728
 H     49  46  45     1.092934933882   108.95877647    49.99647748
 H     49  46  45     1.092786444416   109.29766867   292.82718437
 H     50  49  46     1.088111936613   110.35227074   301.80293551
 H     50  49  46     1.087757530013   110.20132609   182.23235764
 H     50  49  46     1.086542358999   111.33285103    62.28010826
 H     51  44  42     1.092277162903   106.04139517   175.65688837
 H     51  44  42     1.092959396913   107.95951422    61.57397502
 H     52  51  44     1.092735596473   109.66525013   335.90537791
 H     53  52  51     1.092538944844   108.78807059    87.87228972
 H     53  52  51     1.092168490023   108.70346047   331.48083476
 H     54  53  52     1.084545106900   112.07196913   300.58200243
 H     54  53  52     1.088577084501   109.66758451   180.58408253
 H     54  53  52     1.087143626252   110.99773981    61.61757570
 H     55  52  51     1.093380940798   107.91163968    57.61034920
 H     55  52  51     1.093093386907   108.68731890   301.30257733
 H     56  55  52     1.087788822750   110.73367317   307.88451827
 H     56  55  52     1.088217550722   109.66816983   188.58270553
 H     56  55  52     1.086048439481   111.31895948    69.38182228
 H     61  57  44     1.074495076117   124.53173520   356.87382583
 H     69  68  67     1.077165741239   118.59688126   180.10712596
 H     70  69  68     1.078432550557   117.81053788   179.88212882
 H     71  68  67     1.085418997162   112.03976475     0.74484928
 H     77  76  74     1.092311105409   107.96469820   321.91491954
 H     77  76  74     1.092509087651   106.52357162   203.61610715
 H     78  77  76     1.087376735175   110.28786070   298.91258901
 H     78  77  76     1.085934092521   109.53720731   179.29482198
 H     78  77  76     1.087565649926   110.28728474    59.53998383

---------------------------
INTERNAL COORDINATES (A.U.)
---------------------------
 S      0   0   0     0.000000000000     0.00000000     0.00000000
 C      1   0   0     3.330305629042     0.00000000     0.00000000
 S      2   1   0     3.085387554110   123.56431078     0.00000000
 N      2   1   3     2.562625350748   111.12483872   179.33843091
 C      4   2   1     2.739980579192   122.60774371   178.85486797
 C      5   4   2     2.878869394690   111.15303486   277.29402261
 C      4   2   1     2.608274302929   116.59448212     0.58432557
 O      7   4   2     2.289817063405   123.60685489   180.05717805
 C      7   4   2     2.781244998331   110.58442108   359.73998032
 C      9   7   4     2.561938082126   118.66997371   179.30167453
 C     10   9   7     2.690174698096   132.17470951   180.66098309
 C     11  10   9     2.682606518557   125.19304784   358.07601084
 N     12  11  10     2.508985696797   126.97170845   358.79982545
 S     13  12  11     3.038260817835   109.59467500   180.44693126
 N     14  13  12     3.036523279840    97.72052097   359.92144438
 C     15  14  13     2.516890755744   109.43866106     0.09462341
 C     16  15  14     2.688956770883   127.45969724   179.25651315
 C     17  16  15     2.631416064639   115.81811653   181.12986618
 C     18  17  16     2.618638298915   123.08195319   359.38889733
 C     17  16  15     2.695366893672   121.83258966     0.57381712
 C     20  17  16     2.615705838697   127.99876289     4.15805723
 C     21  20  17     2.625847232715   112.41138612   181.37186094
 C     22  21  20     2.618052410291   113.09778485   359.44462849
 S     23  22  21     3.239229127456   112.61904790     0.16336057
 C     23  22  21     2.695586954231   110.72236305   178.61120025
 C     25  23  22     2.678167789163   107.10429467   359.44780776
 C     22  21  20     2.846806867825   136.45606933   179.13033588
 C     27  22  21     2.904343400769   110.79871334   304.17394336
 C     28  27  22     2.908037806184   114.24737230   308.65737579
 C     29  28  27     2.901233518180   110.38099111   145.56072257
 C     30  29  28     2.881190444073   113.21911486   284.57333525
 C     29  28  27     2.902266424535   111.23051280   268.63855329
 C     32  29  28     2.880115530925   112.78963062   157.99426385
 C     27  22  21     2.926473660899   107.31095976    66.89845355
 C     34  27  22     2.912274540072   116.26654847   184.66224725
 C     35  34  27     2.912144972422   111.73992890   101.78533932
 C     36  35  34     2.883149910500   113.41174071   222.61187632
 C     35  34  27     2.902340473011   108.92302729   226.30144027
 C     38  35  34     2.879337088618   114.12453459   174.22612334
 C     26  25  23     2.600572163776   119.50401347   180.33247744
 C     40  26  25     2.633087174022   117.88549188     0.20901054
 C     41  40  26     2.673755327375   122.42211553     0.71578224
 C     42  41  40     2.598630634029   119.79817650   358.21959329
 C     42  41  40     2.863253672327   111.01511846   178.72509949
 C     44  42  41     2.908072277114   114.21371506   125.63256169
 C     45  44  42     2.906774309838   115.01345066   289.26431760
 C     46  45  44     2.911741651423   112.69552698    76.18357697
 C     47  46  45     2.881096754958   112.92380714   233.32598683
 C     46  45  44     2.902153094117   109.02367085   200.21223785
 C     49  46  45     2.879930714551   113.09311336   170.41523917
 C     44  42  41     2.931093651192   111.79948674   252.52440539
 C     51  44  42     2.913959314332   117.90692709   298.30786550
 C     52  51  44     2.909521254068   110.31895590    95.94681889
 C     53  52  51     2.884096392552   115.14499916   210.84791223
 C     52  51  44     2.906290093244   107.46373907   218.96531190
 C     55  52  51     2.879096940639   115.46730229   178.51149150
 C     44  42  41     2.849173987534   100.79020711     4.49199649
 C     57  44  42     2.623381124171   110.45276200   355.50120805
 S     58  57  44     3.241249854221   112.82539913   181.63368482
 C     59  58  57     3.308494847950    90.12125370     0.40736568
 C     57  44  42     2.621924051899   136.66853404   178.63843728
 C     60  59  58     2.693563419644   120.19481583   179.61234064
 C     62  60  59     2.685116808771   120.83563498     0.32405548
 N     63  62  60     2.513004857364   126.55830822     0.60763964
 S     64  63  62     3.040609757933   108.96338072   180.02932764
 N     65  64  63     3.040268222035    98.02311995     0.00000000
 C     66  65  64     2.514800883668   109.13619139   359.97419908
 C     67  66  65     2.694212780604   126.98315681   179.88096759
 C     68  67  66     2.634272494399   115.55735810   179.77744571
 C     69  68  67     2.623494809841   122.99895520     0.29313758
 C     68  67  66     2.692001321172   116.78880102   359.73766587
 C     71  68  67     2.572361140240   133.44319480   181.03830092
 S     72  71  68     3.334397618525   117.70860445   179.78270444
 C     73  72  71     3.309047825841    92.43085699   180.43763906
 S     74  73  72     3.085411300700   124.53057163   179.66416576
 N     74  73  72     2.562898727002   109.86552816     0.09564045
 C     76  74  73     2.740786959057   121.80188602   181.21386133
 C     77  76  74     2.878856248166   111.20448831    83.22558412
 C     76  74  73     2.619852436325   118.04439706   359.62351074
 O     79  76  74     2.295302518434   121.38999626   180.09467665
 H      5   4   2     2.064466941079   106.48094129   156.91285317
 H      5   4   2     2.064531138978   108.00279949    38.57473469
 H      6   5   4     2.055205393550   110.25396426   300.75301823
 H      6   5   4     2.052178020087   109.57248794   181.00423017
 H      6   5   4     2.054832351811   110.26815452    61.34738130
 H     10   9   7     2.053079333845   113.01771687     0.15402466
 H     18  17  16     2.041739964076   118.25456893   179.61283925
 H     19  18  17     2.040963316741   118.51687026   180.36169213
 H     21  20  17     2.028369653065   121.52977825     0.79896095
 H     28  27  22     2.060202780592   106.89123079    69.44603883
 H     28  27  22     2.059377889084   109.73200256   185.91190492
 H     29  28  27     2.068613776658   108.88262906    27.46765056
 H     30  29  28     2.061898030788   108.93734000   164.10539227
 H     30  29  28     2.065051983546   109.17672449    47.08593517
 H     31  30  29     2.053863217719   111.64753734    62.87745189
 H     31  30  29     2.055534892398   110.26699388   182.91389760
 H     31  30  29     2.056233794665   110.45468447   302.67667621
 H     32  29  28     2.061004108375   109.29531928    37.75518133
 H     32  29  28     2.065221607488   109.12917076   280.16364886
 H     33  32  29     2.056204505502   110.15324883   300.07657061
 H     33  32  29     2.055540743503   110.35265506   180.54435934
 H     33  32  29     2.054456408370   111.49226847    60.36807988
 H     34  27  22     2.065629854182   106.64747857    62.37876861
 H     34  27  22     2.063271642865   107.88781949   308.01855402
 H     35  34  27     2.061119766855   108.97910428   342.81373461
 H     36  35  34     2.063388864599   109.39381710   100.16394054
 H     36  35  34     2.062360625174   109.73000776   343.13429194
 H     37  36  35     2.056528022387   110.50138886    62.43751682
 H     37  36  35     2.056051555168   110.17926169   181.72124902
 H     37  36  35     2.052189893336   111.50517698   301.98271360
 H     38  35  34     2.066108565163   108.15520745    53.79028093
 H     38  35  34     2.065424857546   109.11838800   296.88437331
 H     39  38  35     2.056270211329   110.53314907   304.58099927
 H     39  38  35     2.055929809181   109.90207709   185.30904057
 H     39  38  35     2.053136286555   111.36120580    65.69397549
 H     40  26  25     2.038227255540   122.97693159   179.98055554
 H     43  42  41     2.037706400681   122.27081250   182.57770888
 H     45  44  42     2.064613679228   107.16444040   168.97542112
 H     45  44  42     2.061374925810   109.59914445    52.71458718
 H     46  45  44     2.068710430049   107.89916628   316.45448645
 H     47  46  45     2.063229432136   109.53601398   111.57857227
 H     47  46  45     2.059058128966   109.96377455   354.37095726
 H     48  47  46     2.054564230521   111.02524715   301.41539828
 H     48  47  46     2.056854571059   110.30000689   181.33544555
 H     48  47  46     2.055649211910   110.52295861    61.72450728
 H     49  46  45     2.065347707233   108.95877647    49.99647748
 H     49  46  45     2.065067102808   109.29766867   292.82718437
 H     50  49  46     2.056233563250   110.35227074   301.80293551
 H     50  49  46     2.055563831835   110.20132609   182.23235764
 H     50  49  46     2.053267491414   111.33285103    62.28010826
 H     51  44  42     2.064104700224   106.04139517   175.65688837
 H     51  44  42     2.065393935661   107.95951422    61.57397502
 H     52  51  44     2.064971014122   109.66525013   335.90537791
 H     53  52  51     2.064599396398   108.78807059    87.87228972
 H     53  52  51     2.063899338243   108.70346047   331.48083476
 H     54  53  52     2.049493231925   112.07196913   300.58200243
 H     54  53  52     2.057112565369   109.66758451   180.58408253
 H     54  53  52     2.054403721854   110.99773981    61.61757570
 H     55  52  51     2.066190538157   107.91163968    57.61034920
 H     55  52  51     2.065647140055   108.68731890   301.30257733
 H     56  55  52     2.055622966538   110.73367317   307.88451827
 H     56  55  52     2.056433144992   109.66816983   188.58270553
 H     56  55  52     2.052334118792   111.31895948    69.38182228
 H     61  57  44     2.030501426108   124.53173520   356.87382583
 H     69  68  67     2.035548251785   118.59688126   180.10712596
 H     70  69  68     2.037942174458   117.81053788   179.88212882
 H     71  68  67     2.051144645191   112.03976475     0.74484928
 H     77  76  74     2.064168842264   107.96469820   321.91491954
 H     77  76  74     2.064542974481   106.52357162   203.61610715
 H     78  77  76     2.054844233878   110.28786070   298.91258901
 H     78  77  76     2.052118034354   109.53720731   179.29482198
 H     78  77  76     2.055201231021   110.28728474    59.53998383

---------------------
BASIS SET INFORMATION
---------------------
There are 5 groups of distinct atoms

 Group   1 Type S   : 14s9p3d1f contracted to 5s5p2d1f pattern {73211/51111/21/1}
 Group   2 Type C   : 11s6p2d1f contracted to 5s3p2d1f pattern {62111/411/11/1}
 Group   3 Type N   : 11s6p2d1f contracted to 5s3p2d1f pattern {62111/411/11/1}
 Group   4 Type O   : 11s6p2d1f contracted to 5s3p2d1f pattern {62111/411/11/1}
 Group   5 Type H   : 5s1p contracted to 3s1p pattern {311/1}

Atom   0S    basis set group =>   1
Atom   1C    basis set group =>   2
Atom   2S    basis set group =>   1
Atom   3N    basis set group =>   3
Atom   4C    basis set group =>   2
Atom   5C    basis set group =>   2
Atom   6C    basis set group =>   2
Atom   7O    basis set group =>   4
Atom   8C    basis set group =>   2
Atom   9C    basis set group =>   2
Atom  10C    basis set group =>   2
Atom  11C    basis set group =>   2
Atom  12N    basis set group =>   3
Atom  13S    basis set group =>   1
Atom  14N    basis set group =>   3
Atom  15C    basis set group =>   2
Atom  16C    basis set group =>   2
Atom  17C    basis set group =>   2
Atom  18C    basis set group =>   2
Atom  19C    basis set group =>   2
Atom  20C    basis set group =>   2
Atom  21C    basis set group =>   2
Atom  22C    basis set group =>   2
Atom  23S    basis set group =>   1
Atom  24C    basis set group =>   2
Atom  25C    basis set group =>   2
Atom  26C    basis set group =>   2
Atom  27C    basis set group =>   2
Atom  28C    basis set group =>   2
Atom  29C    basis set group =>   2
Atom  30C    basis set group =>   2
Atom  31C    basis set group =>   2
Atom  32C    basis set group =>   2
Atom  33C    basis set group =>   2
Atom  34C    basis set group =>   2
Atom  35C    basis set group =>   2
Atom  36C    basis set group =>   2
Atom  37C    basis set group =>   2
Atom  38C    basis set group =>   2
Atom  39C    basis set group =>   2
Atom  40C    basis set group =>   2
Atom  41C    basis set group =>   2
Atom  42C    basis set group =>   2
Atom  43C    basis set group =>   2
Atom  44C    basis set group =>   2
Atom  45C    basis set group =>   2
Atom  46C    basis set group =>   2
Atom  47C    basis set group =>   2
Atom  48C    basis set group =>   2
Atom  49C    basis set group =>   2
Atom  50C    basis set group =>   2
Atom  51C    basis set group =>   2
Atom  52C    basis set group =>   2
Atom  53C    basis set group =>   2
Atom  54C    basis set group =>   2
Atom  55C    basis set group =>   2
Atom  56C    basis set group =>   2
Atom  57C    basis set group =>   2
Atom  58S    basis set group =>   1
Atom  59C    basis set group =>   2
Atom  60C    basis set group =>   2
Atom  61C    basis set group =>   2
Atom  62C    basis set group =>   2
Atom  63N    basis set group =>   3
Atom  64S    basis set group =>   1
Atom  65N    basis set group =>   3
Atom  66C    basis set group =>   2
Atom  67C    basis set group =>   2
Atom  68C    basis set group =>   2
Atom  69C    basis set group =>   2
Atom  70C    basis set group =>   2
Atom  71C    basis set group =>   2
Atom  72S    basis set group =>   1
Atom  73C    basis set group =>   2
Atom  74S    basis set group =>   1
Atom  75N    basis set group =>   3
Atom  76C    basis set group =>   2
Atom  77C    basis set group =>   2
Atom  78C    basis set group =>   2
Atom  79O    basis set group =>   4
Atom  80H    basis set group =>   5
Atom  81H    basis set group =>   5
Atom  82H    basis set group =>   5
Atom  83H    basis set group =>   5
Atom  84H    basis set group =>   5
Atom  85H    basis set group =>   5
Atom  86H    basis set group =>   5
Atom  87H    basis set group =>   5
Atom  88H    basis set group =>   5
Atom  89H    basis set group =>   5
Atom  90H    basis set group =>   5
Atom  91H    basis set group =>   5
Atom  92H    basis set group =>   5
Atom  93H    basis set group =>   5
Atom  94H    basis set group =>   5
Atom  95H    basis set group =>   5
Atom  96H    basis set group =>   5
Atom  97H    basis set group =>   5
Atom  98H    basis set group =>   5
Atom  99H    basis set group =>   5
Atom 100H    basis set group =>   5
Atom 101H    basis set group =>   5
Atom 102H    basis set group =>   5
Atom 103H    basis set group =>   5
Atom 104H    basis set group =>   5
Atom 105H    basis set group =>   5
Atom 106H    basis set group =>   5
Atom 107H    basis set group =>   5
Atom 108H    basis set group =>   5
Atom 109H    basis set group =>   5
Atom 110H    basis set group =>   5
Atom 111H    basis set group =>   5
Atom 112H    basis set group =>   5
Atom 113H    basis set group =>   5
Atom 114H    basis set group =>   5
Atom 115H    basis set group =>   5
Atom 116H    basis set group =>   5
Atom 117H    basis set group =>   5
Atom 118H    basis set group =>   5
Atom 119H    basis set group =>   5
Atom 120H    basis set group =>   5
Atom 121H    basis set group =>   5
Atom 122H    basis set group =>   5
Atom 123H    basis set group =>   5
Atom 124H    basis set group =>   5
Atom 125H    basis set group =>   5
Atom 126H    basis set group =>   5
Atom 127H    basis set group =>   5
Atom 128H    basis set group =>   5
Atom 129H    basis set group =>   5
Atom 130H    basis set group =>   5
Atom 131H    basis set group =>   5
Atom 132H    basis set group =>   5
Atom 133H    basis set group =>   5
Atom 134H    basis set group =>   5
Atom 135H    basis set group =>   5
Atom 136H    basis set group =>   5
Atom 137H    basis set group =>   5
Atom 138H    basis set group =>   5
Atom 139H    basis set group =>   5
Atom 140H    basis set group =>   5
Atom 141H    basis set group =>   5
Atom 142H    basis set group =>   5
Atom 143H    basis set group =>   5
Atom 144H    basis set group =>   5
Atom 145H    basis set group =>   5
Atom 146H    basis set group =>   5
Atom 147H    basis set group =>   5
Atom 148H    basis set group =>   5
Atom 149H    basis set group =>   5
Atom 150H    basis set group =>   5
Atom 151H    basis set group =>   5
---------------------------------
AUXILIARY/J BASIS SET INFORMATION
---------------------------------
There are 5 groups of distinct atoms

 Group   1 Type S   : 14s5p5d2f1g contracted to 8s4p3d1f1g pattern {71111111/2111/311/2/1}
 Group   2 Type C   : 12s5p4d2f1g contracted to 6s4p3d1f1g pattern {711111/2111/211/2/1}
 Group   3 Type N   : 12s5p4d2f1g contracted to 6s4p3d1f1g pattern {711111/2111/211/2/1}
 Group   4 Type O   : 12s5p4d2f1g contracted to 6s4p3d1f1g pattern {711111/2111/211/2/1}
 Group   5 Type H   : 5s2p1d contracted to 3s1p1d pattern {311/2/1}

Atom   0S    basis set group =>   1
Atom   1C    basis set group =>   2
Atom   2S    basis set group =>   1
Atom   3N    basis set group =>   3
Atom   4C    basis set group =>   2
Atom   5C    basis set group =>   2
Atom   6C    basis set group =>   2
Atom   7O    basis set group =>   4
Atom   8C    basis set group =>   2
Atom   9C    basis set group =>   2
Atom  10C    basis set group =>   2
Atom  11C    basis set group =>   2
Atom  12N    basis set group =>   3
Atom  13S    basis set group =>   1
Atom  14N    basis set group =>   3
Atom  15C    basis set group =>   2
Atom  16C    basis set group =>   2
Atom  17C    basis set group =>   2
Atom  18C    basis set group =>   2
Atom  19C    basis set group =>   2
Atom  20C    basis set group =>   2
Atom  21C    basis set group =>   2
Atom  22C    basis set group =>   2
Atom  23S    basis set group =>   1
Atom  24C    basis set group =>   2
Atom  25C    basis set group =>   2
Atom  26C    basis set group =>   2
Atom  27C    basis set group =>   2
Atom  28C    basis set group =>   2
Atom  29C    basis set group =>   2
Atom  30C    basis set group =>   2
Atom  31C    basis set group =>   2
Atom  32C    basis set group =>   2
Atom  33C    basis set group =>   2
Atom  34C    basis set group =>   2
Atom  35C    basis set group =>   2
Atom  36C    basis set group =>   2
Atom  37C    basis set group =>   2
Atom  38C    basis set group =>   2
Atom  39C    basis set group =>   2
Atom  40C    basis set group =>   2
Atom  41C    basis set group =>   2
Atom  42C    basis set group =>   2
Atom  43C    basis set group =>   2
Atom  44C    basis set group =>   2
Atom  45C    basis set group =>   2
Atom  46C    basis set group =>   2
Atom  47C    basis set group =>   2
Atom  48C    basis set group =>   2
Atom  49C    basis set group =>   2
Atom  50C    basis set group =>   2
Atom  51C    basis set group =>   2
Atom  52C    basis set group =>   2
Atom  53C    basis set group =>   2
Atom  54C    basis set group =>   2
Atom  55C    basis set group =>   2
Atom  56C    basis set group =>   2
Atom  57C    basis set group =>   2
Atom  58S    basis set group =>   1
Atom  59C    basis set group =>   2
Atom  60C    basis set group =>   2
Atom  61C    basis set group =>   2
Atom  62C    basis set group =>   2
Atom  63N    basis set group =>   3
Atom  64S    basis set group =>   1
Atom  65N    basis set group =>   3
Atom  66C    basis set group =>   2
Atom  67C    basis set group =>   2
Atom  68C    basis set group =>   2
Atom  69C    basis set group =>   2
Atom  70C    basis set group =>   2
Atom  71C    basis set group =>   2
Atom  72S    basis set group =>   1
Atom  73C    basis set group =>   2
Atom  74S    basis set group =>   1
Atom  75N    basis set group =>   3
Atom  76C    basis set group =>   2
Atom  77C    basis set group =>   2
Atom  78C    basis set group =>   2
Atom  79O    basis set group =>   4
Atom  80H    basis set group =>   5
Atom  81H    basis set group =>   5
Atom  82H    basis set group =>   5
Atom  83H    basis set group =>   5
Atom  84H    basis set group =>   5
Atom  85H    basis set group =>   5
Atom  86H    basis set group =>   5
Atom  87H    basis set group =>   5
Atom  88H    basis set group =>   5
Atom  89H    basis set group =>   5
Atom  90H    basis set group =>   5
Atom  91H    basis set group =>   5
Atom  92H    basis set group =>   5
Atom  93H    basis set group =>   5
Atom  94H    basis set group =>   5
Atom  95H    basis set group =>   5
Atom  96H    basis set group =>   5
Atom  97H    basis set group =>   5
Atom  98H    basis set group =>   5
Atom  99H    basis set group =>   5
Atom 100H    basis set group =>   5
Atom 101H    basis set group =>   5
Atom 102H    basis set group =>   5
Atom 103H    basis set group =>   5
Atom 104H    basis set group =>   5
Atom 105H    basis set group =>   5
Atom 106H    basis set group =>   5
Atom 107H    basis set group =>   5
Atom 108H    basis set group =>   5
Atom 109H    basis set group =>   5
Atom 110H    basis set group =>   5
Atom 111H    basis set group =>   5
Atom 112H    basis set group =>   5
Atom 113H    basis set group =>   5
Atom 114H    basis set group =>   5
Atom 115H    basis set group =>   5
Atom 116H    basis set group =>   5
Atom 117H    basis set group =>   5
Atom 118H    basis set group =>   5
Atom 119H    basis set group =>   5
Atom 120H    basis set group =>   5
Atom 121H    basis set group =>   5
Atom 122H    basis set group =>   5
Atom 123H    basis set group =>   5
Atom 124H    basis set group =>   5
Atom 125H    basis set group =>   5
Atom 126H    basis set group =>   5
Atom 127H    basis set group =>   5
Atom 128H    basis set group =>   5
Atom 129H    basis set group =>   5
Atom 130H    basis set group =>   5
Atom 131H    basis set group =>   5
Atom 132H    basis set group =>   5
Atom 133H    basis set group =>   5
Atom 134H    basis set group =>   5
Atom 135H    basis set group =>   5
Atom 136H    basis set group =>   5
Atom 137H    basis set group =>   5
Atom 138H    basis set group =>   5
Atom 139H    basis set group =>   5
Atom 140H    basis set group =>   5
Atom 141H    basis set group =>   5
Atom 142H    basis set group =>   5
Atom 143H    basis set group =>   5
Atom 144H    basis set group =>   5
Atom 145H    basis set group =>   5
Atom 146H    basis set group =>   5
Atom 147H    basis set group =>   5
Atom 148H    basis set group =>   5
Atom 149H    basis set group =>   5
Atom 150H    basis set group =>   5
Atom 151H    basis set group =>   5
------------------------------------------------------------------------------
                           ORCA GTO INTEGRAL CALCULATION
                           -- RI-GTO INTEGRALS CHOSEN --
------------------------------------------------------------------------------

                         BASIS SET STATISTICS AND STARTUP INFO

Gaussian basis set:
 # of primitive gaussian shells          ... 2088
 # of primitive gaussian functions       ... 4392
 # of contracted shells                  ... 1184
 # of contracted basis functions         ... 2960
 Highest angular momentum                ...    3
 Maximum contraction depth               ...    7
Auxiliary gaussian basis set:
 # of primitive gaussian shells          ... 2520
 # of primitive gaussian functions       ... 6808
 # of contracted shells                  ... 1576
 # of contracted aux-basis functions     ... 4728
 Highest angular momentum                ...    4
 Maximum contraction depth               ...    7
Ratio of auxiliary to basis functions    ...  1.60
Integral package used                  ... LIBINT
 One Electron integrals                  ... done
 Ordering auxiliary basis shells         ... done
 Integral threshhold             Thresh  ...  2.500e-11
 Primitive cut-off               TCut    ...  2.500e-12
 Pre-screening matrix                    ... done
 Shell pair data                         ... 
 Ordering of the shell pairs             ... done (   0.056 sec) 227570 of 701520 pairs
 Determination of significant pairs      ... done (   0.002 sec)
 Creation of shell pair data             ... done (   0.028 sec)
 Storage of shell pair data              ... done (   0.035 sec)
 Shell pair data done in (   0.121 sec)
 Computing two index integrals           ... done
 Cholesky decomposition of the V-matrix  ... done


Timings:
 Total evaluation time                   ...  10.768 sec (  0.179 min)
 One electron matrix time                ...   4.306 sec (  0.072 min) = 40.0%
 Schwartz matrix evaluation time         ...   4.818 sec (  0.080 min) = 44.7%
 Two index repulsion integral time       ...   0.614 sec (  0.010 min) =  5.7%
 Cholesky decomposition of V             ...   0.889 sec (  0.015 min) =  8.3%
 Three index repulsion integral time     ...   0.000 sec (  0.000 min) =  0.0%

-------------------------------------------------------------------------------
                                 ORCA SCF
-------------------------------------------------------------------------------

------------
SCF SETTINGS
------------
Hamiltonian:
 Density Functional     Method          .... DFT(GTOs)
 Exchange Functional    Exchange        .... B88
   X-Alpha parameter    XAlpha          ....  0.666667
   Becke's b parameter  XBeta           ....  0.004200
 Correlation Functional Correlation     .... LYP
 LDA part of GGA corr.  LDAOpt          .... VWN-5
 Gradients option       PostSCFGGA      .... off
 Hybrid DFT is turned on
   Fraction HF Exchange ScalHFX         ....  0.200000
   Scaling of DF-GGA-X  ScalDFX         ....  0.720000
   Scaling of DF-GGA-C  ScalDFC         ....  0.810000
   Scaling of DF-LDA-C  ScalLDAC        ....  1.000000
   Perturbative correction              ....  0.000000
   Density functional embedding theory  .... OFF
   NL short-range parameter             ....  4.800000
 RI-approximation to the Coulomb term is turned on
   Number of auxiliary basis functions  .... 4728
   RIJ-COSX (HFX calculated with COS-X)).... on


General Settings:
 Integral files         IntName         .... EH-IDTBR
 Hartree-Fock type      HFTyp           .... RHF
 Total Charge           Charge          ....    0
 Multiplicity           Mult            ....    1
 Number of Electrons    NEL             ....  642
 Basis Dimension        Dim             .... 2960
 Nuclear Repulsion      ENuc            ....  15121.5304370999 Eh

Convergence Acceleration:
 DIIS                   CNVDIIS         .... on
   Start iteration      DIISMaxIt       ....    12
   Startup error        DIISStart       ....  0.200000
   # of expansion vecs  DIISMaxEq       ....     5
   Bias factor          DIISBfac        ....   1.050
   Max. coefficient     DIISMaxC        ....  10.000
 Newton-Raphson         CNVNR           .... off
 SOSCF                  CNVSOSCF        .... on
   Start iteration      SOSCFMaxIt      ....   150
   Startup grad/error   SOSCFStart      ....  0.003300
 Level Shifting         CNVShift        .... on
   Level shift para.    LevelShift      ....    0.2500
   Turn off err/grad.   ShiftErr        ....    0.0010
 Zerner damping         CNVZerner       .... off
 Static damping         CNVDamp         .... on
   Fraction old density DampFac         ....    0.7000
   Max. Damping (<1)    DampMax         ....    0.9800
   Min. Damping (>=0)   DampMin         ....    0.0000
   Turn off err/grad.   DampErr         ....    0.1000
 Fernandez-Rico         CNVRico         .... off

SCF Procedure:
 Maximum # iterations   MaxIter         ....   125
 SCF integral mode      SCFMode         .... Direct
   Integral package                     .... LIBINT
 Reset frequency        DirectResetFreq ....    20
 Integral Threshold     Thresh          ....  2.500e-11 Eh
 Primitive CutOff       TCut            ....  2.500e-12 Eh

Convergence Tolerance:
 Convergence Check Mode ConvCheckMode   .... Total+1el-Energy
 Convergence forced     ConvForced      .... 1
 Energy Change          TolE            ....  1.000e-08 Eh
 1-El. energy change                    ....  1.000e-05 Eh
 Orbital Gradient       TolG            ....  1.000e-05
 Orbital Rotation angle TolX            ....  1.000e-05
 DIIS Error             TolErr          ....  5.000e-07


Diagonalization of the overlap matrix:
Smallest eigenvalue                        ... 1.589e-06
Time for diagonalization                   ...    5.959 sec
Threshold for overlap eigenvalues          ... 1.000e-08
Number of eigenvalues below threshold      ... 0
Time for construction of square roots      ...    1.888 sec
Total time needed                          ...    7.871 sec

-------------------
DFT GRID GENERATION
-------------------

General Integration Accuracy     IntAcc      ...  4.670
Radial Grid Type                 RadialGrid  ... Gauss-Chebyshev
Angular Grid (max. acc.)         AngularGrid ... Lebedev-302
Angular grid pruning method      GridPruning ... 3 (G Style)
Weight generation scheme         WeightScheme... Becke
Basis function cutoff            BFCut       ...    1.0000e-11
Integration weight cutoff        WCut        ...    1.0000e-14
Grids for H and He will be reduced by one unit

# of grid points (after initial pruning)     ... 746400 (   3.2 sec)
# of grid points (after weights+screening)   ... 621607 (  58.8 sec)
nearest neighbour list constructed           ...    0.0 sec
Grid point re-assignment to atoms done       ...    0.1 sec
Grid point division into batches done        ...    2.0 sec
Reduced shell lists constructed in   25.2 sec

Total number of grid points                  ...   621607
Total number of batches                      ...     9791
Average number of points per batch           ...       63
Average number of grid points per atom       ...     4090
Average number of shells per batch           ...   200.30 (16.92%)
Average number of basis functions per batch  ...   462.73 (15.63%)
Average number of large shells per batch     ...   112.79 (56.31%)
Average number of large basis fcns per batch ...   267.67 (57.85%)
Maximum spatial batch extension              ...  21.84, 21.15, 26.84 au
Average spatial batch extension              ...   1.97,  2.00,  2.08 au

Time for grid setup =   87.265 sec

------------------------------
INITIAL GUESS: MODEL POTENTIAL
------------------------------
Loading Hartree-Fock densities                     ... done
Calculating cut-offs                               ... done
Setting up the integral package                    ... done
Initializing the effective Hamiltonian             ... done
Starting the Coulomb interaction                   ... done (  55.3 sec)
Reading the grid                                   ... done
Mapping shells                                     ... done
Starting the XC term evaluation                    ... done (  42.9 sec)
  promolecular density results
     # of electrons  =    641.964470122
     EX              =   -607.212220854
     EC              =    -22.690093582
     EX+EC           =   -629.902314435
Transforming the Hamiltonian                       ... done (   1.9 sec)
Diagonalizing the Hamiltonian                      ... done (   5.7 sec)
Back transforming the eigenvectors                 ... done (   0.8 sec)
Now organizing SCF variables                       ... done
                      ------------------
                      INITIAL GUESS DONE ( 195.2 sec)
                      ------------------
--------------------
COSX GRID GENERATION
--------------------

General Integration Accuracy     IntAcc      ...  3.340
Radial Grid Type                 RadialGrid  ... Gauss-Chebyshev
Angular Grid (max. acc.)         AngularGrid ... Lebedev-50
Angular grid pruning method      GridPruning ... 3 (G Style)
Weight generation scheme         WeightScheme... Becke
Basis function cutoff            BFCut       ...    1.0000e-11
Integration weight cutoff        WCut        ...    1.0000e-14
Grids for H and He will be reduced by one unit

# of grid points (after initial pruning)     ...  70364 (   0.1 sec)
# of grid points (after weights+screening)   ...  61259 (   5.5 sec)
nearest neighbour list constructed           ...    0.0 sec
Grid point re-assignment to atoms done       ...    0.0 sec
Grid point division into batches done        ...    0.0 sec
Reduced shell lists constructed in    3.6 sec

Total number of grid points                  ...    61259
Total number of batches                      ...     1034
Average number of points per batch           ...       59
Average number of grid points per atom       ...      403
Average number of shells per batch           ...   241.49 (20.40%)
Average number of basis functions per batch  ...   565.35 (19.10%)
Average number of large shells per batch     ...   137.50 (56.94%)
Average number of large basis fcns per batch ...   331.93 (58.71%)
Maximum spatial batch extension              ...  20.78, 18.00, 22.64 au
Average spatial batch extension              ...   4.00,  4.03,  4.44 au

Overlap Fitting                  UseSFitting ... on
Constructing numerical overlap ... done (      3.7 sec)
Inverting numerical overlap    ... done (      0.6 sec)
Obtaining analytic overlap     ... done (      0.0 sec)
Final contraction and storage  ... done (      0.9 sec)


General Integration Accuracy     IntAcc      ...  3.670
Radial Grid Type                 RadialGrid  ... Gauss-Chebyshev
Angular Grid (max. acc.)         AngularGrid ... Lebedev-50
Angular grid pruning method      GridPruning ... 3 (G Style)
Weight generation scheme         WeightScheme... Becke
Basis function cutoff            BFCut       ...    1.0000e-11
Integration weight cutoff        WCut        ...    1.0000e-14
Grids for H and He will be reduced by one unit

# of grid points (after initial pruning)     ...  89232 (   0.2 sec)
# of grid points (after weights+screening)   ...  77355 (   7.0 sec)
nearest neighbour list constructed           ...    0.0 sec
Grid point re-assignment to atoms done       ...    0.0 sec
Grid point division into batches done        ...    0.0 sec
Reduced shell lists constructed in    4.3 sec

Total number of grid points                  ...    77355
Total number of batches                      ...     1288
Average number of points per batch           ...       60
Average number of grid points per atom       ...      509
Average number of shells per batch           ...   236.62 (19.98%)
Average number of basis functions per batch  ...   552.40 (18.66%)
Average number of large shells per batch     ...   133.98 (56.62%)
Average number of large basis fcns per batch ...   322.17 (58.32%)
Maximum spatial batch extension              ...  22.73, 20.34, 24.59 au
Average spatial batch extension              ...   3.69,  3.75,  4.12 au

Overlap Fitting                  UseSFitting ... on
Constructing numerical overlap ... done (      4.8 sec)
Inverting numerical overlap    ... done (      0.6 sec)
Obtaining analytic overlap     ... done (      0.0 sec)
Final contraction and storage  ... done (      0.9 sec)


General Integration Accuracy     IntAcc      ...  4.010
Radial Grid Type                 RadialGrid  ... Gauss-Chebyshev
Angular Grid (max. acc.)         AngularGrid ... Lebedev-110
Angular grid pruning method      GridPruning ... 3 (G Style)
Weight generation scheme         WeightScheme... Becke
Basis function cutoff            BFCut       ...    1.0000e-11
Integration weight cutoff        WCut        ...    1.0000e-14
Grids for H and He will be reduced by one unit

# of grid points (after initial pruning)     ... 166756 (   0.4 sec)
# of grid points (after weights+screening)   ... 143734 (  13.1 sec)
nearest neighbour list constructed           ...    0.0 sec
Grid point re-assignment to atoms done       ...    0.0 sec
Grid point division into batches done        ...    0.1 sec
Reduced shell lists constructed in    7.2 sec

Total number of grid points                  ...   143734
Total number of batches                      ...     2324
Average number of points per batch           ...       61
Average number of grid points per atom       ...      946
Average number of shells per batch           ...   225.55 (19.05%)
Average number of basis functions per batch  ...   526.27 (17.78%)
Average number of large shells per batch     ...   128.02 (56.76%)
Average number of large basis fcns per batch ...   307.46 (58.42%)
Maximum spatial batch extension              ...  25.81, 20.96, 29.97 au
Average spatial batch extension              ...   3.16,  3.22,  3.48 au

Overlap Fitting                  UseSFitting ... on
Constructing numerical overlap ... done (      7.5 sec)
Inverting numerical overlap    ... done (      0.6 sec)
Obtaining analytic overlap     ... done (      0.0 sec)
Final contraction and storage  ... done (      0.9 sec)

Time for X-Grid setup             =   62.558 sec
--------------
SCF ITERATIONS
--------------
[...]

------------------------
DAVIDSON-DIAGONALIZATION
------------------------

Dimension of the eigenvalue problem            ... 551551
Number of roots to be determined               ...      3
Maximum size of the expansion space            ...     15
Maximum number of iterations                   ...    100
Convergence tolerance for the residual         ...    2.500e-07
Convergence tolerance for the energies         ...    2.500e-07
Orthogonality tolerance                        ...    1.000e-14
Level Shift                                    ...    0.000e+00
Constructing the preconditioner                ... o.k.
Building the initial guess                     ... o.k.
Number of trial vectors determined             ...     15


                       ****Iteration    0****
                <<< Triplet sigma vectors requested >>>

   Memory handling for direct AO based CIS:
   Memory per vector needed      ...   260 MB
   Memory needed                 ...  2346 MB
   Memory available              ...  2000 MB
   Number of vectors per batch   ...     7
   Number of batches             ...     2
   Time for densities:    24.317
   Time for K (COSX):  4266.673
   Time for XC-Integration:    76.430
   Time for Sigma-Completion:  1058.320
   Time for densities:     7.305
   Time for K (COSX):  4216.755
   Time for XC-Integration:    21.519
   Time for Sigma-Completion:   304.021
   Size of expansion space: 9
   Lowest Energy          :     0.042316464801
   Maximum Energy change  :     0.070349839915 (vector 2)
   Maximum residual norm  :     0.000629663763

                       ****Iteration    1****
   Time for densities:    10.882
   Time for K (COSX):  4470.910
   Time for XC-Integration:    37.098
   Time for Sigma-Completion:   457.106
   Size of expansion space: 12
   Lowest Energy          :     0.039198627652
   Maximum Energy change  :     0.003533745408 (vector 1)
   Maximum residual norm  :     0.000037426379

                       ****Iteration    2****
   Time for densities:    11.129
   Time for K (COSX):  4755.507
   Time for XC-Integration:    40.678
   Time for Sigma-Completion:   443.905
   Size of expansion space: 15
   Lowest Energy          :     0.039102163444
   Maximum Energy change  :     0.000300842400 (vector 2)
   Maximum residual norm  :     0.000004778462
   Rebuilding the expansion space

                       ****Iteration    3****
   Time for densities:    25.510
   Time for K (COSX):  5007.419
   Time for XC-Integration:    77.125
   Time for Sigma-Completion:   902.980
   Size of expansion space: 6
   Lowest Energy          :     0.039099525274
   Maximum Energy change  :     0.000031765443 (vector 2)
   Maximum residual norm  :     0.000000447489

                       ****Iteration    4****
   Time for densities:    12.212
   Time for K (COSX):  4534.025
   Time for XC-Integration:    40.512
   Time for Sigma-Completion:   226.225
   Size of expansion space: 9
   Lowest Energy          :     0.039099384150
   Maximum Energy change  :     0.000006941385 (vector 2)
   Maximum residual norm  :     0.000000100152

      *** CONVERGENCE OF RESIDUAL NORM REACHED ***

Storing the converged CI vectors               ... EH-IDTBR.cis3

                 *** DAVIDSON DONE ***

------------------------------------
TD-DFT/TDA EXCITED STATES (TRIPLETS)
------------------------------------

the weight of the individual excitations are printed if larger than 1.0e-02

STATE  1:  E=   0.039099 au      1.064 eV     8581.3 cm**-1
   319a -> 322a  :     0.107387 (c=  0.32770030)
   320a -> 321a  :     0.853329 (c= -0.92375812)

STATE  2:  E=   0.044897 au      1.222 eV     9853.7 cm**-1
   319a -> 321a  :     0.296717 (c=  0.54471693)
   320a -> 322a  :     0.653939 (c= -0.80866470)

STATE  3:  E=   0.066835 au      1.819 eV    14668.5 cm**-1
   316a -> 322a  :     0.080965 (c= -0.28454405)
   319a -> 321a  :     0.563434 (c=  0.75062234)
   320a -> 322a  :     0.306268 (c=  0.55341455)

------------------------------
TD-DFT/TDA SPIN-ORBIT COUPLING
------------------------------

Calculating the spin-orbit integrals:             

Loading the effective charges         ... done
Entering the SOC calc. section        ... 
------------------------------------------------------------------------------
                         ORCA SPIN-ORBIT COUPLING CALCULATION
------------------------------------------------------------------------------

GBW file                                    ... EH-IDTBR.gbw
Input density                               ... EH-IDTBR.cisp0
Output integrals                            ... EH-IDTBR.cis
Operator type                               ... Mean-field/Effective potential
   One-Electron Terms                       ... 1
   Coulomb Contribution                     ... 2
   Exchange Contribution                    ... 3
   Correlation Contribution                 ... 0
   Maximum number of centers                ... 4
Setting up the integration grid             ... done
Evaluating density on the grid              ... (NumEl=  641.999692) done
Evaluating Coulomb term semi-analytically   ... done
One-Center Exchange (+SOO)                  ... done
Evaluating the spin-orbit operator          ... done
Transforming the SOC integrals              ... done
Constructing the SOC matrix:                ... done
Diagonalizing the SOC matrix:               ... done

      --------------------------------------------------------------------------------
                      CALCULATED SOCME BETWEEN TRIPLETS AND SINGLETS                  
      --------------------------------------------------------------------------------
           Root                          <T|HSO|S>  (Re, Im) cm-1                     
         T      S             Z                     X                     Y           
      --------------------------------------------------------------------------------
         1      0    (   0.00 ,    0.12 )    (   0.00 ,    0.02 )    (  -0.00 ,   -0.42 )
         1      1    (   0.00 ,   -0.03 )    (   0.00 ,    0.07 )    (  -0.00 ,    0.00 )
         1      2    (   0.00 ,   -0.02 )    (   0.00 ,   -0.10 )    (  -0.00 ,    0.26 )
         1      3    (   0.00 ,  -11.86 )    (   0.00 ,   17.69 )    (  -0.00 ,    9.98 )
         2      0    (   0.00 ,    0.20 )    (   0.00 ,   -0.51 )    (  -0.00 ,   -0.20 )
         2      1    (   0.00 ,   -0.02 )    (   0.00 ,    0.01 )    (  -0.00 ,    0.06 )
         2      2    (   0.00 ,    0.01 )    (   0.00 ,   -0.03 )    (  -0.00 ,    0.02 )
         2      3    (   0.00 ,  -12.16 )    (   0.00 ,   18.29 )    (  -0.00 ,   10.05 )
         3      0    (   0.00 ,    0.39 )    (   0.00 ,   -1.03 )    (  -0.00 ,    0.10 )
         3      1    (   0.00 ,    0.03 )    (   0.00 ,    0.05 )    (  -0.00 ,   -0.18 )
         3      2    (   0.00 ,   -0.01 )    (   0.00 ,    0.01 )    (  -0.00 ,    0.02 )
         3      3    (   0.00 ,  -11.20 )    (   0.00 ,   16.96 )    (  -0.00 ,    9.12 )

SOC stabilization of the ground state:  -0.0001 cm-1
Eigenvalues of the SOC matrix:

   State:        cm-1         eV
     0:          0.00         0.0000
     1:       8581.26         1.0639
     2:       8581.32         1.0639
     3:       8581.32         1.0639
     4:       9853.66         1.2217
     5:       9853.73         1.2217
     6:       9853.73         1.2217
     7:      13348.86         1.6550
     8:      14668.37         1.8186
     9:      14668.54         1.8187
    10:      14668.54         1.8187
    11:      14976.73         1.8569
    12:      17589.57         2.1808

The threshold for printing is 0.0100
Eigenvectors of the SOC matrix:

             E(cm-1)  Weight      Real         Imag     : Root  Spin  Ms
 STATE  0:      0.00
                      1.00000     -0.09952      0.99504 : 0     0     0
 STATE  1:   8581.26
                      0.25437      0.41170     -0.29133 : 1     1     0
                      0.37281     -0.26087      0.55205 : 1     1    -1
                      0.37281      0.60739     -0.06236 : 1     1     1
 STATE  2:   8581.32
                      0.74535      0.36123     -0.78413 : 1     1     0
                      0.12733     -0.04284     -0.35425 : 1     1    -1
                      0.12733     -0.29708      0.19766 : 1     1     1
 STATE  3:   8581.32
                      0.49986     -0.61517     -0.34846 : 1     1    -1
                      0.49986     -0.00620     -0.70698 : 1     1     1
 STATE  4:   9853.66
                      0.25347     -0.48633      0.13019 : 2     1     0
                      0.37326      0.44112     -0.42270 : 2     1    -1
                      0.37326     -0.59330     -0.14579 : 2     1     1
 STATE  5:   9853.73
                      0.49899      0.53836      0.45734 : 2     1    -1
                      0.49899     -0.06069      0.70378 : 2     1     1
 STATE  6:   9853.73
                      0.74451     -0.13027     -0.85296 : 2     1     0
                      0.12775     -0.18712     -0.30452 : 2     1    -1
                      0.12775     -0.08769      0.34649 : 2     1     1
 STATE  7:  13348.86
                      1.00000      0.96351     -0.26765 : 1     0     0
 STATE  8:  14668.37
                      0.25273      0.44274     -0.23815 : 3     1     0
                      0.37361     -0.33691      0.51000 : 3     1    -1
                      0.37361      0.61123      0.00000 : 3     1     1
 STATE  9:  14668.54
                      0.74127      0.67468     -0.53487 : 3     1     0
                      0.12936      0.08205     -0.35019 : 3     1    -1
                      0.12936     -0.35967      0.00000 : 3     1     1
 STATE 10:  14668.54
                      0.49701      0.33398     -0.62086 : 3     1    -1
                      0.49701      0.70499      0.00000 : 3     1     1
 STATE 11:  14976.73
                      1.00000      0.91552      0.40228 : 2     0     0
 STATE 12:  17589.57
                      0.99993     -0.47353     -0.88074 : 3     0     0

-----------------------------
TD-DFT/TDA-EXCITATION SPECTRA
-----------------------------

Center of mass = (-19.8016, -7.6646,  7.2423)
Calculating the Dipole integrals                  ... done
Transforming integrals                            ... done
Calculating the Linear Momentum integrals         ... done
Transforming integrals                            ... done
Calculating angular momentum integrals            ... done
Transforming integrals                            ... done

-----------------------------------------------------------------------------
         ABSORPTION SPECTRUM VIA TRANSITION ELECTRIC DIPOLE MOMENTS
-----------------------------------------------------------------------------
State   Energy    Wavelength  fosc         T2        TX        TY        TZ  
        (cm-1)      (nm)                 (au**2)    (au)      (au)      (au) 
-----------------------------------------------------------------------------
   1   13348.9    749.1   3.063945520  75.56354  -7.87165  -2.03751   3.07395
   2   14976.7    667.7   0.001936023   0.04256   0.16410  -0.08256  -0.09386
   3   17589.3    568.5   0.000026532   0.00050   0.00671   0.02102   0.00312
   4    8581.3   1165.3   spin forbidden (mult=3)
   5    9853.7   1014.8   spin forbidden (mult=3)
   6   14668.5    681.7   spin forbidden (mult=3)

-----------------------------------------------------------------------------
         ABSORPTION SPECTRUM VIA TRANSITION VELOCITY DIPOLE MOMENTS
-----------------------------------------------------------------------------
State   Energy    Wavelength   fosc        P2         PX        PY        PZ  
        (cm-1)      (nm)                 (au**2)     (au)      (au)      (au) 
-----------------------------------------------------------------------------
   1   13348.9    749.1   0.442143355   0.04034   0.18437   0.02129  -0.07677
   2   14976.7    667.7   0.001818818   0.00019  -0.00514  -0.00840  -0.00944
   3   17589.3    568.5   0.000304669   0.00004  -0.00022   0.00361   0.00485
   4    8581.3   1165.3   spin forbidden (mult=3)
   5    9853.7   1014.8   spin forbidden (mult=3)
   6   14668.5    681.7   spin forbidden (mult=3)

-------------------------------------------------------------------
                             CD SPECTRUM
-------------------------------------------------------------------
State  Energy     Wavelength     R         MX        MY        MZ   
       (cm-1)       (nm)     (1e40*cgs)   (au)      (au)      (au)  
-------------------------------------------------------------------
   1   13348.9    749.1    -23.02745   0.01589   0.08385   0.08037
   2   14976.7    667.7     -0.56783  -0.04022   0.00343  -0.06051
   3   17589.3    568.5      1.56850  -0.14174   0.19289   0.07164
   4    8581.3   1165.3 spin forbidden
   5    9853.7   1014.8 spin forbidden
   6   14668.5    681.7 spin forbidden

-------------------------------------------
SOC CORRECTED TD-DFT/TDA-EXCITATION SPECTRA
--------------------------------------------

-----------------------------------------------------------------------------
  SOC CORRECTED ABSORPTION SPECTRUM VIA TRANSITION ELECTRIC DIPOLE MOMENTS*  
-----------------------------------------------------------------------------
State   Energy  Wavelength   fosc         T2         TX        TY        TZ  
        (cm-1)    (nm)                  (au**2)     (au)      (au)      (au) 
-----------------------------------------------------------------------------
   1    8581.3   1165.3   0.000000005   0.00000   0.00038   0.00016   0.00013
   2    8581.3   1165.3   0.000000000   0.00000   0.00002   0.00000   0.00001
   3    8581.3   1165.3   0.000000003   0.00000   0.00032   0.00006   0.00013
   4    9853.7   1014.9   0.000000001   0.00000   0.00017   0.00002   0.00009
   5    9853.7   1014.8   0.000000002   0.00000   0.00022   0.00005   0.00009
   6    9853.7   1014.8   0.000000000   0.00000   0.00001   0.00001   0.00000
   7   13348.9    749.1   3.063945503  75.56354   7.87165   2.03751   3.07395
   8   14668.4    681.7   0.000000003   0.00000   0.00015   0.00020   0.00001
   9   14668.5    681.7   0.000000000   0.00000   0.00005   0.00002   0.00002
  10   14668.5    681.7   0.000000028   0.00000   0.00071   0.00021   0.00027
  11   14976.7    667.7   0.001936024   0.04256   0.16410   0.08256   0.09386
  12   17589.6    568.5   0.000026541   0.00050   0.00671   0.02102   0.00313

-----------------------------------------------------------------------------
  SOC CORRECTED ABSORPTION SPECTRUM VIA TRANSITION VELOCITY DIPOLE MOMENTS*  
-----------------------------------------------------------------------------
State   Energy  Wavelength   fosc         P2         PX        PY        PZ  
        (cm-1)    (nm)                  (au**2)     (au)      (au)      (au) 
-----------------------------------------------------------------------------
   1    8581.3   1165.3   0.000000009   0.00000   0.00002   0.00001   0.00001
   2    8581.3   1165.3   0.000000000   0.00000   0.00000   0.00000   0.00000
   3    8581.3   1165.3   0.000000003   0.00000   0.00001   0.00000   0.00000
   4    9853.7   1014.9   0.000000005   0.00000   0.00000   0.00001   0.00001
   5    9853.7   1014.8   0.000000000   0.00000   0.00000   0.00000   0.00000
   6    9853.7   1014.8   0.000000000   0.00000   0.00000   0.00000   0.00000
   7   13348.9    749.1   0.442143347   0.04034   0.18437   0.02129   0.07677
   8   14668.4    681.7   0.000000020   0.00000   0.00000   0.00003   0.00004
   9   14668.5    681.7   0.000000000   0.00000   0.00000   0.00000   0.00000
  10   14668.5    681.7   0.000000002   0.00000   0.00001   0.00000   0.00001
  11   14976.7    667.7   0.001818818   0.00019   0.00514   0.00840   0.00944
  12   17589.6    568.5   0.000304640   0.00004   0.00022   0.00361   0.00485

-------------------------------------------------------------------
                    SOC CORRECTED CD SPECTRUM*                     
-------------------------------------------------------------------
State   Energy Wavelength       R         MX        MY        MZ   
        (cm-1)   (nm)       (1e40*sgs)   (au)      (au)      (au)  
-------------------------------------------------------------------
   1    8581.3   1165.3      0.00004   0.00036   0.00050   0.00020
   2    8581.3   1165.3      0.00000   0.00000   0.00000   0.00000
   3    8581.3   1165.3      0.00000   0.00001   0.00000   0.00001
   4    9853.7   1014.9      0.00005   0.00044   0.00060   0.00023
   5    9853.7   1014.8      0.00000   0.00000   0.00000   0.00000
   6    9853.7   1014.8      0.00000   0.00000   0.00000   0.00000
   7   13348.9    749.1     23.02760   0.01589   0.08385   0.08037
   8   14668.4    681.7      0.00006   0.00109   0.00148   0.00054
   9   14668.5    681.7      0.00000   0.00000   0.00000   0.00000
  10   14668.5    681.7      0.00000   0.00000   0.00001   0.00000
  11   14976.7    667.7      0.56782   0.04022   0.00343   0.06051
  12   17589.6    568.5      1.56922   0.14173   0.19288   0.07164

*The X,Y and Z components are the absolute values of the complex numbers

Total run time:   100897.528 sec

           *** ORCA-CIS/TD-DFT FINISHED WITHOUT ERROR ***

---------------------------
SOC CIS/TD-DFT TOTAL ENERGY
---------------------------

    E(SCF)        =  -6145.596987607 Eh
    E(SOC CIS)    =      0.039099104 Eh (SOC Root  1)
    ----------------------------- ---------
    E(tot)        =  -6145.557888502 Eh


-------------------------   --------------------
FINAL SINGLE POINT ENERGY     -6145.557888502327
-------------------------   --------------------


                            ***************************************
                            *     ORCA property calculations      *
                            ***************************************

                                    ---------------------
                                    Active property flags
                                    ---------------------
   (+) Dipole Moment


------------------------------------------------------------------------------
                       ORCA ELECTRIC PROPERTIES CALCULATION
------------------------------------------------------------------------------

Dipole Moment Calculation                       ... on
Quadrupole Moment Calculation                   ... off
Polarizability Calculation                      ... off
GBWName                                         ... EH-IDTBR.gbw
Electron density file                           ... EH-IDTBR.scfp
The origin for moment calculation is the CENTER OF MASS  = (-19.801553, -7.664580  7.242258)

-------------
DIPOLE MOMENT
-------------
                                X             Y             Z
Electronic contribution:     -2.67188     -33.83701     -12.03696
Nuclear contribution   :      2.41685      34.42957      12.48242
                        -----------------------------------------
Total Dipole Moment    :     -0.25504       0.59256       0.44546
                        -----------------------------------------
Magnitude (a.u.)       :      0.78397
Magnitude (Debye)      :      1.99270



--------------------
Rotational spectrum 
--------------------
 
Rotational constants in cm-1:     0.001770     0.000187     0.000178 
Rotational constants in MHz :    53.067978     5.593187     5.350061 

 Dipole components along the rotational axes: 
x,y,z [a.u.] :     0.273941    -0.714674     0.169735 
x,y,z [Debye]:     0.696304    -1.816556     0.431433 

 

Timings for individual modules:

Sum of individual times         ...   128907.749 sec (=2148.462 min)
GTO integral calculation        ...       11.455 sec (=   0.191 min)   0.0 %
SCF iterations                  ...    27998.545 sec (= 466.642 min)  21.7 %
CIS module                      ...   100897.750 sec (=1681.629 min)  78.3 %
                             ****ORCA TERMINATED NORMALLY****
TOTAL RUN TIME: 1 days 11 hours 48 minutes 29 seconds 858 msec
