
                                 *****************
                                 * O   R   C   A *
                                 *****************

           --- An Ab Initio, DFT and Semiempirical electronic structure package ---

                  #######################################################
                  #                        -***-                        #
                  #          Department of theory and spectroscopy      #
                  #               Directorship: Frank Neese             #
                  #        Max Planck Institute fuer Kohlenforschung    #
                  #                Kaiser Wilhelm Platz 1               #
                  #                 D-45470 Muelheim/Ruhr               #
                  #                      Germany                        #
                  #                                                     #
                  #                  All rights reserved                #
                  #                        -***-                        #
                  #######################################################


                         Program Version 4.2.0 -  RELEASE  -


 With contributions from (in alphabetic order):
   Daniel Aravena         : Magnetic Suceptibility
   Michael Atanasov       : Ab Initio Ligand Field Theory (pilot matlab implementation)
   Alexander A. Auer      : GIAO ZORA, VPT2
   Ute Becker             : Parallelization
   Giovanni Bistoni       : ED, misc. LED, open-shell LED, HFLED
   Martin Brehm           : Molecular dynamics
   Dmytro Bykov           : SCF Hessian
   Vijay G. Chilkuri      : MRCI spin determinant printing, contributions to CSF-ICE
   Dipayan Datta          : RHF DLPNO-CCSD density
   Achintya Kumar Dutta   : EOM-CC, STEOM-CC
   Dmitry Ganyushin       : Spin-Orbit,Spin-Spin,Magnetic field MRCI
   Miquel Garcia          : C-PCM Hessian, Gaussian charge scheme
   Yang Guo               : DLPNO-NEVPT2, CIM, IAO-localization
   Andreas Hansen         : Spin unrestricted coupled pair/coupled cluster methods
   Benjamin Helmich-Paris : CASSCF linear response (MC-RPA)
   Lee Huntington         : MR-EOM, pCC
   Robert Izsak           : Overlap fitted RIJCOSX, COSX-SCS-MP3, EOM
   Christian Kollmar      : KDIIS, OOCD, Brueckner-CCSD(T), CCSD density
   Simone Kossmann        : Meta GGA functionals, TD-DFT gradient, OOMP2, MP2 Hessian
   Martin Krupicka        : AUTO-CI
   Lucas Lang             : DCDCAS
   Dagmar Lenk            : GEPOL surface, SMD
   Dimitrios Liakos       : Extrapolation schemes; Compound Job, initial MDCI parallelization
   Dimitrios Manganas     : Further ROCIS development; embedding schemes
   Dimitrios Pantazis     : SARC Basis sets
   Taras Petrenko         : DFT Hessian,TD-DFT gradient, ASA, ECA, R-Raman, ABS, FL, XAS/XES, NRVS
   Peter Pinski           : DLPNO-MP2, DLPNO-MP2 Gradient
   Christoph Reimann      : Effective Core Potentials
   Marius Retegan         : Local ZFS, SOC
   Christoph Riplinger    : Optimizer, TS searches, QM/MM, DLPNO-CCSD(T), (RO)-DLPNO pert. Triples
   Tobias Risthaus        : Range-separated hybrids, TD-DFT gradient, RPA, STAB
   Michael Roemelt        : Original ROCIS implementation
   Masaaki Saitow         : Open-shell DLPNO-CCSD energy and density
   Barbara Sandhoefer     : DKH picture change effects
   Avijit Sen             : IP-ROCIS
   Kantharuban Sivalingam : CASSCF convergence, NEVPT2, FIC-MRCI
   Bernardo de Souza      : ESD, SOC TD-DFT
   Georgi Stoychev        : AutoAux, RI-MP2 NMR
   Willem Van den Heuvel  : Paramagnetic NMR
   Boris Wezisla          : Elementary symmetry handling
   Frank Wennmohs         : Technical directorship


 We gratefully acknowledge several colleagues who have allowed us to
 interface, adapt or use parts of their codes:
   Stefan Grimme, W. Hujo, H. Kruse,             : VdW corrections, initial TS optimization,
                  C. Bannwarth                     DFT functionals, gCP, sTDA/sTD-DF
   Ed Valeev, F. Pavosevic, A. Kumar             : LibInt (2-el integral package), F12 methods
   Garnet Chan, S. Sharma, J. Yang, R. Olivares  : DMRG
   Ulf Ekstrom                                   : XCFun DFT Library
   Mihaly Kallay                                 : mrcc  (arbitrary order and MRCC methods)
   Andreas Klamt, Michael Diedenhofen            : otool_cosmo (COSMO solvation model)
   Jiri Pittner, Ondrej Demel                    : Mk-CCSD
   Frank Weinhold                                : gennbo (NPA and NBO analysis)
   Christopher J. Cramer and Donald G. Truhlar   : smd solvation model
   Lars Goerigk                                  : TD-DFT with DH, B97 family of functionals
   V. Asgeirsson, H. Jonsson                     : NEB implementation
   FAccTs GmbH                                   : IRC, NEB, NEB-TS, Multilevel, MM, QM/MM, CI optimization
   S Lehtola, MJT Oliveira, MAL Marques          : LibXC Library


 Your calculation uses the libint2 library for the computation of 2-el integrals
 For citations please refer to: http://libint.valeyev.net

 Your ORCA version has been built with support for libXC version: 4.2.3
 For citations please refer to: https://tddft.org/programs/libxc/

 This ORCA versions uses:
   CBLAS   interface :  Fast vector & matrix operations
   LAPACKE interface :  Fast linear algebra routines
   SCALAPACK package :  Parallel linear algebra routines


----- Orbital basis set information -----
Your calculation utilizes the basis: def2-TZVP
   F. Weigend and R. Ahlrichs, Phys. Chem. Chem. Phys. 7, 3297 (2005).

----- AuxJ basis set information -----
Your calculation utilizes the auxiliary basis: def2/J
   F. Weigend, Phys. Chem. Chem. Phys. 8, 1057 (2006).

================================================================================
                                        WARNINGS
                       Please study these warnings very carefully!
================================================================================

INFO   : Checking CIS options ...

WARNING: (CIS/TDDFT): Spin-orbit needs TRIPLETS set to TRUE
  ===> : ajusting flags

WARNING: CIS/ROCIS methods need fully converged wavefunctions
  ===> : Setting SCFConvForced true
         You can overwrite this default with %scf ConvForced false 


INFO   : the flag for use of LIBINT has been found!

================================================================================
                                       INPUT FILE
================================================================================
NAME = EH-IDTBR.inp
|  1> # ORCA input file
|  2> # EH-IDTBR.out: Geometry 51
|  3> ! B3LYP def2-TZVP def2/J RIJCOSX Grid4 TightSCF
|  4> 
|  5> %maxcore 6000
|  6> %tddft
|  7>   maxdim 5
|  8>   nroots 3
|  9>   dosoc true
| 10>   end
| 11> %pal
| 12>   nprocs 6
| 13>   end
| 14> 
| 15> 
| 16> * xyz 0 1
| 17>    S       -1.34109        -1.21835        -2.61673
| 18>    C       -0.73298        -0.06801        -3.82128
| 19>    S       -0.87318        -0.33186        -5.43775
| 20>    N       -0.14882         1.01296        -3.20757
| 21>    C        0.48850         2.09911        -3.95376
| 22>    C        1.92050         1.76108        -4.35981
| 23>    C       -0.17512         1.03900        -1.80581
| 24>    O        0.29979         1.93857        -1.14555
| 25>    C       -0.90592        -0.15412        -1.28213
| 26>    C       -1.23629        -0.17713         0.03743
| 27>    C       -2.08680        -1.05135         0.81376
| 28>    C       -2.45939        -2.39302         0.45307
| 29>    N       -1.94848        -3.09689        -0.55565
| 30>    S       -2.67649        -4.56594        -0.55983
| 31>    N       -3.66374        -4.36218         0.73559
| 32>    C       -3.45780        -3.13565         1.21710
| 33>    C       -4.12731        -2.53384         2.34962
| 34>    C       -3.65561        -1.27361         2.71494
| 35>    C       -2.66862        -0.57223         1.98746
| 36>    C       -5.26730        -3.16670         2.98285
| 37>    C       -5.71967        -4.47812         2.85904
| 38>    C       -6.97468        -4.67632         3.46787
| 39>    C       -7.48093        -3.54001         4.07755
| 40>    S       -6.41904        -2.18672         3.91314
| 41>    C       -8.84203        -3.75996         4.52357
| 42>    C       -9.19774        -5.08316         4.12613
| 43>    C       -8.00138        -5.79591         3.46822
| 44>    C       -8.27147        -6.27458         2.01476
| 45>    C       -8.37156        -5.18469         0.93072
| 46>    C       -8.09063        -5.77587        -0.46510
| 47>    C       -6.64448        -6.22831        -0.68541
| 48>    C       -9.69884        -4.39846         0.94944
| 49>    C       -9.53416        -2.94609         0.49943
| 50>    C       -7.47105        -6.93731         4.38825
| 51>    C       -8.20828        -8.29316         4.40257
| 52>    C       -7.64607        -9.27040         3.34056
| 53>    C       -8.69527       -10.14128         2.65257
| 54>    C       -8.11752        -8.87298         5.83012
| 55>    C       -8.65089       -10.28864         6.03952
| 56>    C      -10.49750        -5.53594         4.32017
| 57>    C      -11.43649        -4.65178         4.88098
| 58>    C      -11.07046        -3.34138         5.30483
| 59>    C       -9.76274        -2.90353         5.14589
| 60>    C      -12.28525        -2.57814         5.86240
| 61>    C      -12.12261        -2.13335         7.34424
| 62>    C      -12.29124        -3.18850         8.44830
| 63>    C      -11.17633        -4.26223         8.45792
| 64>    C      -11.69174        -5.68684         8.66966
| 65>    C      -12.40773        -2.45626         9.79835
| 66>    C      -12.64245        -3.34111        11.02094
| 67>    C      -12.63476        -1.33428         4.99396
| 68>    C      -11.62746        -0.15427         5.03297
| 69>    C      -10.76488        -0.10245         3.74944
| 70>    C       -9.33909         0.42561         3.92957
| 71>    C      -12.38846         1.15170         5.33771
| 72>    C      -11.54685         2.41246         5.52996
| 73>    C      -13.37575        -3.62401         5.68701
| 74>    C      -12.85416        -4.78825         5.13387
| 75>    S      -14.04182        -6.01544         4.91015
| 76>    C      -15.30105        -4.94647         5.55562
| 77>    C      -14.75842        -3.70902         5.92378
| 78>    C      -16.68803        -5.35333         5.64407
| 79>    C      -17.12559        -6.68553         5.30656
| 80>    N      -16.34242        -7.67242         4.87164
| 81>    S      -17.29407        -8.98318         4.61953
| 82>    N      -18.73782        -8.33904         5.05982
| 83>    C      -18.52225        -7.07310         5.41862
| 84>    C      -19.53211        -6.14266         5.87489
| 85>    C      -19.06496        -4.85910         6.16975
| 86>    C      -17.70640        -4.48930         6.05783
| 87>    C      -20.87559        -6.65960         5.98148
| 88>    C      -22.09072        -6.14115         6.33078
| 89>    S      -23.52345        -7.19041         6.35244
| 90>    C      -24.60431        -5.86384         6.76605
| 91>    S      -26.22929        -6.04753         6.94351
| 92>    N      -23.88140        -4.69931         6.89654
| 93>    C      -24.51978        -3.41940         7.22094
| 94>    C      -24.84516        -3.28194         8.70364
| 95>    C      -22.49118        -4.76302         6.68933
| 96>    O      -21.77678        -3.78165         6.78938
| 97>    H        0.45660         2.97665        -3.29388
| 98>    H       -0.13310         2.28769        -4.84024
| 99>    H        2.53848         1.54472        -3.47524
|100>    H        2.37147         2.61155        -4.89468
|101>    H        1.93674         0.88738        -5.02799
|102>    H       -0.86387         0.70224         0.57486
|103>    H       -4.09138        -0.78313         3.58798
|104>    H       -2.37906         0.42125         2.33758
|105>    H       -5.17026        -5.22204         2.28698
|106>    H       -7.43622        -6.93459         1.74736
|107>    H       -9.17516        -6.90822         1.99968
|108>    H       -7.56709        -4.45801         1.12324
|109>    H       -8.34183        -5.01492        -1.22329
|110>    H       -8.78380        -6.61736        -0.64699
|111>    H       -6.34821        -7.03574         0.00403
|112>    H       -6.49682        -6.61436        -1.70693
|113>    H       -5.94198        -5.39426        -0.52699
|114>    H      -10.12812        -4.39905         1.95901
|115>    H      -10.43552        -4.91821         0.31161
|116>    H       -8.89267        -2.39512         1.20689
|117>    H      -10.50113        -2.42166         0.44766
|118>    H       -9.06134        -2.87489        -0.49438
|119>    H       -7.45318        -6.52045         5.40800
|120>    H       -6.41703        -7.12278         4.12098
|121>    H       -9.27597        -8.12490         4.17654
|122>    H       -6.88250        -9.90973         3.81795
|123>    H       -7.10302        -8.70876         2.56779
|124>    H       -9.41445        -9.51920         2.09359
|125>    H       -8.22810       -10.83531         1.93529
|126>    H       -9.27391       -10.74276         3.37072
|127>    H       -8.64432        -8.18329         6.51134
|128>    H       -7.05584        -8.84814         6.13945
|129>    H       -9.72053       -10.36946         5.78467
|130>    H       -8.53475       -10.58973         7.09311
|131>    H       -8.10639       -11.02656         5.43212
|132>    H      -10.80652        -6.53074         3.99660
|133>    H       -9.45310        -1.91377         5.47340
|134>    H      -12.87005        -1.34255         7.52139
|135>    H      -11.14076        -1.64622         7.46178
|136>    H      -13.25220        -3.70168         8.27049
|137>    H      -10.43671        -4.00416         9.23576
|138>    H      -10.62010        -4.23503         7.51177
|139>    H      -12.32206        -5.76964         9.56828
|140>    H      -10.86136        -6.40294         8.77545
|141>    H      -12.30568        -6.00568         7.81221
|142>    H      -13.22549        -1.71720         9.72476
|143>    H      -11.48730        -1.86244         9.95300
|144>    H      -13.56047        -3.94271        10.91595
|145>    H      -12.74761        -2.72666        11.92915
|146>    H      -11.80842        -4.03927        11.19267
|147>    H      -13.61889        -0.98536         5.34656
|148>    H      -12.78890        -1.66464         3.95397
|149>    H      -10.93872        -0.31095         5.87892
|150>    H      -11.29442         0.49004         2.98204
|151>    H      -10.69409        -1.11883         3.33301
|152>    H       -9.30691         1.48371         4.22672
|153>    H       -8.76056         0.31468         2.99876
|154>    H       -8.80098        -0.13936         4.70745
|155>    H      -12.97998         0.98096         6.25414
|156>    H      -13.12987         1.32491         4.53598
|157>    H      -10.72621         2.24612         6.24710
|158>    H      -12.16655         3.23537         5.92024
|159>    H      -11.09789         2.76138         4.58791
|160>    H      -15.35815        -2.90795         6.35591
|161>    H      -19.78487        -4.11343         6.50340
|162>    H      -17.45205        -3.46107         6.31824
|163>    H      -20.90792        -7.72109         5.71376
|164>    H      -25.43553        -3.35440         6.61673
|165>    H      -23.81429        -2.64353         6.89586
|166>    H      -25.55495        -4.05902         9.01865
|167>    H      -25.30727        -2.30021         8.89372
|168>    H      -23.93269        -3.36033         9.31324
|169> *
|170> 
|171>                          ****END OF INPUT****
================================================================================

                       ****************************
                       * Single Point Calculation *
                       ****************************

---------------------------------
CARTESIAN COORDINATES (ANGSTROEM)
---------------------------------
  S     -1.341090   -1.218350   -2.616730
  C     -0.732980   -0.068010   -3.821280
  S     -0.873180   -0.331860   -5.437750
  N     -0.148820    1.012960   -3.207570
  C      0.488500    2.099110   -3.953760
  C      1.920500    1.761080   -4.359810
  C     -0.175120    1.039000   -1.805810
  O      0.299790    1.938570   -1.145550
  C     -0.905920   -0.154120   -1.282130
  C     -1.236290   -0.177130    0.037430
  C     -2.086800   -1.051350    0.813760
  C     -2.459390   -2.393020    0.453070
  N     -1.948480   -3.096890   -0.555650
  S     -2.676490   -4.565940   -0.559830
  N     -3.663740   -4.362180    0.735590
  C     -3.457800   -3.135650    1.217100
  C     -4.127310   -2.533840    2.349620
  C     -3.655610   -1.273610    2.714940
  C     -2.668620   -0.572230    1.987460
  C     -5.267300   -3.166700    2.982850
  C     -5.719670   -4.478120    2.859040
  C     -6.974680   -4.676320    3.467870
  C     -7.480930   -3.540010    4.077550
  S     -6.419040   -2.186720    3.913140
  C     -8.842030   -3.759960    4.523570
  C     -9.197740   -5.083160    4.126130
  C     -8.001380   -5.795910    3.468220
  C     -8.271470   -6.274580    2.014760
  C     -8.371560   -5.184690    0.930720
  C     -8.090630   -5.775870   -0.465100
  C     -6.644480   -6.228310   -0.685410
  C     -9.698840   -4.398460    0.949440
  C     -9.534160   -2.946090    0.499430
  C     -7.471050   -6.937310    4.388250
  C     -8.208280   -8.293160    4.402570
  C     -7.646070   -9.270400    3.340560
  C     -8.695270  -10.141280    2.652570
  C     -8.117520   -8.872980    5.830120
  C     -8.650890  -10.288640    6.039520
  C    -10.497500   -5.535940    4.320170
  C    -11.436490   -4.651780    4.880980
  C    -11.070460   -3.341380    5.304830
  C     -9.762740   -2.903530    5.145890
  C    -12.285250   -2.578140    5.862400
  C    -12.122610   -2.133350    7.344240
  C    -12.291240   -3.188500    8.448300
  C    -11.176330   -4.262230    8.457920
  C    -11.691740   -5.686840    8.669660
  C    -12.407730   -2.456260    9.798350
  C    -12.642450   -3.341110   11.020940
  C    -12.634760   -1.334280    4.993960
  C    -11.627460   -0.154270    5.032970
  C    -10.764880   -0.102450    3.749440
  C     -9.339090    0.425610    3.929570
  C    -12.388460    1.151700    5.337710
  C    -11.546850    2.412460    5.529960
  C    -13.375750   -3.624010    5.687010
  C    -12.854160   -4.788250    5.133870
  S    -14.041820   -6.015440    4.910150
  C    -15.301050   -4.946470    5.555620
  C    -14.758420   -3.709020    5.923780
  C    -16.688030   -5.353330    5.644070
  C    -17.125590   -6.685530    5.306560
  N    -16.342420   -7.672420    4.871640
  S    -17.294070   -8.983180    4.619530
  N    -18.737820   -8.339040    5.059820
  C    -18.522250   -7.073100    5.418620
  C    -19.532110   -6.142660    5.874890
  C    -19.064960   -4.859100    6.169750
  C    -17.706400   -4.489300    6.057830
  C    -20.875590   -6.659600    5.981480
  C    -22.090720   -6.141150    6.330780
  S    -23.523450   -7.190410    6.352440
  C    -24.604310   -5.863840    6.766050
  S    -26.229290   -6.047530    6.943510
  N    -23.881400   -4.699310    6.896540
  C    -24.519780   -3.419400    7.220940
  C    -24.845160   -3.281940    8.703640
  C    -22.491180   -4.763020    6.689330
  O    -21.776780   -3.781650    6.789380
  H      0.456600    2.976650   -3.293880
  H     -0.133100    2.287690   -4.840240
  H      2.538480    1.544720   -3.475240
  H      2.371470    2.611550   -4.894680
  H      1.936740    0.887380   -5.027990
  H     -0.863870    0.702240    0.574860
  H     -4.091380   -0.783130    3.587980
  H     -2.379060    0.421250    2.337580
  H     -5.170260   -5.222040    2.286980
  H     -7.436220   -6.934590    1.747360
  H     -9.175160   -6.908220    1.999680
  H     -7.567090   -4.458010    1.123240
  H     -8.341830   -5.014920   -1.223290
  H     -8.783800   -6.617360   -0.646990
  H     -6.348210   -7.035740    0.004030
  H     -6.496820   -6.614360   -1.706930
  H     -5.941980   -5.394260   -0.526990
  H    -10.128120   -4.399050    1.959010
  H    -10.435520   -4.918210    0.311610
  H     -8.892670   -2.395120    1.206890
  H    -10.501130   -2.421660    0.447660
  H     -9.061340   -2.874890   -0.494380
  H     -7.453180   -6.520450    5.408000
  H     -6.417030   -7.122780    4.120980
  H     -9.275970   -8.124900    4.176540
  H     -6.882500   -9.909730    3.817950
  H     -7.103020   -8.708760    2.567790
  H     -9.414450   -9.519200    2.093590
  H     -8.228100  -10.835310    1.935290
  H     -9.273910  -10.742760    3.370720
  H     -8.644320   -8.183290    6.511340
  H     -7.055840   -8.848140    6.139450
  H     -9.720530  -10.369460    5.784670
  H     -8.534750  -10.589730    7.093110
  H     -8.106390  -11.026560    5.432120
  H    -10.806520   -6.530740    3.996600
  H     -9.453100   -1.913770    5.473400
  H    -12.870050   -1.342550    7.521390
  H    -11.140760   -1.646220    7.461780
  H    -13.252200   -3.701680    8.270490
  H    -10.436710   -4.004160    9.235760
  H    -10.620100   -4.235030    7.511770
  H    -12.322060   -5.769640    9.568280
  H    -10.861360   -6.402940    8.775450
  H    -12.305680   -6.005680    7.812210
  H    -13.225490   -1.717200    9.724760
  H    -11.487300   -1.862440    9.953000
  H    -13.560470   -3.942710   10.915950
  H    -12.747610   -2.726660   11.929150
  H    -11.808420   -4.039270   11.192670
  H    -13.618890   -0.985360    5.346560
  H    -12.788900   -1.664640    3.953970
  H    -10.938720   -0.310950    5.878920
  H    -11.294420    0.490040    2.982040
  H    -10.694090   -1.118830    3.333010
  H     -9.306910    1.483710    4.226720
  H     -8.760560    0.314680    2.998760
  H     -8.800980   -0.139360    4.707450
  H    -12.979980    0.980960    6.254140
  H    -13.129870    1.324910    4.535980
  H    -10.726210    2.246120    6.247100
  H    -12.166550    3.235370    5.920240
  H    -11.097890    2.761380    4.587910
  H    -15.358150   -2.907950    6.355910
  H    -19.784870   -4.113430    6.503400
  H    -17.452050   -3.461070    6.318240
  H    -20.907920   -7.721090    5.713760
  H    -25.435530   -3.354400    6.616730
  H    -23.814290   -2.643530    6.895860
  H    -25.554950   -4.059020    9.018650
  H    -25.307270   -2.300210    8.893720
  H    -23.932690   -3.360330    9.313240

----------------------------
CARTESIAN COORDINATES (A.U.)
----------------------------
  NO LB      ZA    FRAG     MASS         X           Y           Z
   0 S    16.0000    0    32.060   -2.534293   -2.302348   -4.944903
   1 C     6.0000    0    12.011   -1.385131   -0.128520   -7.221173
   2 S    16.0000    0    32.060   -1.650071   -0.627125  -10.275858
   3 N     7.0000    0    14.007   -0.281229    1.914217   -6.061429
   4 C     6.0000    0    12.011    0.923131    3.966743   -7.471524
   5 C     6.0000    0    12.011    3.629219    3.327959   -8.238847
   6 C     6.0000    0    12.011   -0.330929    1.963425   -3.412486
   7 O     8.0000    0    15.999    0.566521    3.663366   -2.164776
   8 C     6.0000    0    12.011   -1.711941   -0.291245   -2.422875
   9 C     6.0000    0    12.011   -2.336250   -0.334727    0.070732
  10 C     6.0000    0    12.011   -3.943480   -1.986764    1.537784
  11 C     6.0000    0    12.011   -4.647574   -4.522152    0.856178
  12 N     7.0000    0    14.007   -3.682094   -5.852274   -1.050026
  13 S    16.0000    0    32.060   -5.057833   -8.628376   -1.057925
  14 N     7.0000    0    14.007   -6.923465   -8.243326    1.390064
  15 C     6.0000    0    12.011   -6.534295   -5.925520    2.299986
  16 C     6.0000    0    12.011   -7.799486   -4.788264    4.440138
  17 C     6.0000    0    12.011   -6.908102   -2.406774    5.130493
  18 C     6.0000    0    12.011   -5.042961   -1.081358    3.755755
  19 C     6.0000    0    12.011   -9.953754   -5.984196    5.636770
  20 C     6.0000    0    12.011  -10.808610   -8.462420    5.402803
  21 C     6.0000    0    12.011  -13.180235   -8.836964    6.553325
  22 C     6.0000    0    12.011  -14.136909   -6.689649    7.705453
  23 S    16.0000    0    32.060  -12.130228   -4.132302    7.394763
  24 C     6.0000    0    12.011  -16.709015   -7.105295    8.548308
  25 C     6.0000    0    12.011  -17.381210   -9.605780    7.797256
  26 C     6.0000    0    12.011  -15.120417  -10.952683    6.553986
  27 C     6.0000    0    12.011  -15.630813  -11.857238    3.807345
  28 C     6.0000    0    12.011  -15.819956   -9.797644    1.758806
  29 C     6.0000    0    12.011  -15.289075  -10.914812   -0.878912
  30 C     6.0000    0    12.011  -12.556248  -11.769800   -1.295237
  31 C     6.0000    0    12.011  -18.328151   -8.311885    1.794182
  32 C     6.0000    0    12.011  -18.016951   -5.567303    0.943786
  33 C     6.0000    0    12.011  -14.118238  -13.109616    8.292591
  34 C     6.0000    0    12.011  -15.511401  -15.671801    8.319652
  35 C     6.0000    0    12.011  -14.448978  -17.518517    6.312744
  36 C     6.0000    0    12.011  -16.431679  -19.164242    5.012631
  37 C     6.0000    0    12.011  -15.339890  -16.767502   11.017330
  38 C     6.0000    0    12.011  -16.347813  -19.442712   11.413039
  39 C     6.0000    0    12.011  -19.837400  -10.461410    8.163938
  40 C     6.0000    0    12.011  -21.611834   -8.790590    9.223715
  41 C     6.0000    0    12.011  -20.920138   -6.314293   10.024676
  42 C     6.0000    0    12.011  -18.448905   -5.486877    9.724323
  43 C     6.0000    0    12.011  -23.215758   -4.871979   11.078330
  44 C     6.0000    0    12.011  -22.908413   -4.031447   13.878602
  45 C     6.0000    0    12.011  -23.227077   -6.025392   15.964973
  46 C     6.0000    0    12.011  -21.120203   -8.054447   15.983152
  47 C     6.0000    0    12.011  -22.094187  -10.746570   16.383283
  48 C     6.0000    0    12.011  -23.447212   -4.641659   18.516198
  49 C     6.0000    0    12.011  -23.890768   -6.313783   20.826558
  50 C     6.0000    0    12.011  -23.876236   -2.521424    9.437217
  51 C     6.0000    0    12.011  -21.972715   -0.291528    9.510935
  52 C     6.0000    0    12.011  -20.342675   -0.193602    7.085415
  53 C     6.0000    0    12.011  -17.648322    0.804286    7.425811
  54 C     6.0000    0    12.011  -23.410797    2.176398   10.086810
  55 C     6.0000    0    12.011  -21.820384    4.558889   10.450110
  56 C     6.0000    0    12.011  -25.276504   -6.848386   10.746891
  57 C     6.0000    0    12.011  -24.290842   -9.048481    9.701608
  58 S    16.0000    0    32.060  -26.535194  -11.367534    9.278839
  59 C     6.0000    0    12.011  -28.914794   -9.347474   10.498600
  60 C     6.0000    0    12.011  -27.889372   -7.009032   11.194322
  61 C     6.0000    0    12.011  -31.535806  -10.116328   10.665747
  62 C     6.0000    0    12.011  -32.362675  -12.633821   10.027945
  63 N     7.0000    0    14.007  -30.882698  -14.498773    9.206065
  64 S    16.0000    0    32.060  -32.681056  -16.975750    8.729647
  65 N     7.0000    0    14.007  -35.409348  -15.758502    9.561674
  66 C     6.0000    0    12.011  -35.001980  -13.366222   10.239708
  67 C     6.0000    0    12.011  -36.910339  -11.607945   11.101933
  68 C     6.0000    0    12.011  -36.027553   -9.182368   11.659138
  69 C     6.0000    0    12.011  -33.460247   -8.483548   11.447640
  70 C     6.0000    0    12.011  -39.449148  -12.584820   11.303359
  71 C     6.0000    0    12.011  -41.745411  -11.605092   11.963440
  72 S    16.0000    0    32.060  -44.452878  -13.587906   12.004372
  73 C     6.0000    0    12.011  -46.495408  -11.081052   12.785982
  74 S    16.0000    0    32.060  -49.566175  -11.428175   13.121332
  75 N     7.0000    0    14.007  -45.129306   -8.880409   13.032572
  76 C     6.0000    0    12.011  -46.335669   -6.461730   13.645599
  77 C     6.0000    0    12.011  -46.950548   -6.201968   16.447496
  78 C     6.0000    0    12.011  -42.502171   -9.000803   12.641002
  79 O     8.0000    0    15.999  -41.152150   -7.146283   12.830069
  80 H     1.0000    0     1.008    0.862849    5.625053   -6.224531
  81 H     1.0000    0     1.008   -0.251523    4.323108   -9.146728
  82 H     1.0000    0     1.008    4.797032    2.919098   -6.567252
  83 H     1.0000    0     1.008    4.481429    4.935114   -9.249605
  84 H     1.0000    0     1.008    3.659908    1.676905   -9.501524
  85 H     1.0000    0     1.008   -1.632478    1.327041    1.086328
  86 H     1.0000    0     1.008   -7.731588   -1.479901    6.780300
  87 H     1.0000    0     1.008   -4.495772    0.796047    4.417386
  88 H     1.0000    0     1.008   -9.770375   -9.868225    4.321766
  89 H     1.0000    0     1.008  -14.052419  -13.104476    3.302032
  90 H     1.0000    0     1.008  -17.338540  -13.054644    3.778848
  91 H     1.0000    0     1.008  -14.299728   -8.424418    2.122616
  92 H     1.0000    0     1.008  -15.763774   -9.476825   -2.311683
  93 H     1.0000    0     1.008  -16.598976  -12.504998   -1.222634
  94 H     1.0000    0     1.008  -11.996378  -13.295622    0.007616
  95 H     1.0000    0     1.008  -12.277211  -12.499329   -3.225630
  96 H     1.0000    0     1.008  -11.228715  -10.193674   -0.995867
  97 H     1.0000    0     1.008  -19.139373   -8.313000    3.701992
  98 H     1.0000    0     1.008  -19.720275   -9.294070    0.588858
  99 H     1.0000    0     1.008  -16.804711   -4.526121    2.280692
 100 H     1.0000    0     1.008  -19.844260   -4.576274    0.845955
 101 H     1.0000    0     1.008  -17.123451   -5.432755   -0.934243
 102 H     1.0000    0     1.008  -14.084469  -12.321865   10.219639
 103 H     1.0000    0     1.008  -12.126429  -13.460104    7.787524
 104 H     1.0000    0     1.008  -17.529043  -15.353836    7.892517
 105 H     1.0000    0     1.008  -13.006040  -18.726676    7.214880
 106 H     1.0000    0     1.008  -13.422763  -16.457171    4.852420
 107 H     1.0000    0     1.008  -17.790732  -17.988681    3.956312
 108 H     1.0000    0     1.008  -15.548856  -20.475768    3.657168
 109 H     1.0000    0     1.008  -17.525150  -20.300874    6.369738
 110 H     1.0000    0     1.008  -16.335397  -15.464177   12.304649
 111 H     1.0000    0     1.008  -13.333605  -16.720561   11.601879
 112 H     1.0000    0     1.008  -18.369140  -19.595440   10.931442
 113 H     1.0000    0     1.008  -16.128340  -20.011690   13.404035
 114 H     1.0000    0     1.008  -15.318857  -20.837179   10.265219
 115 H     1.0000    0     1.008  -20.421363  -12.341310    7.552479
 116 H     1.0000    0     1.008  -17.863770   -3.616501   10.343227
 117 H     1.0000    0     1.008  -24.320870   -2.537052   14.213367
 118 H     1.0000    0     1.008  -21.052985   -3.110905   14.100721
 119 H     1.0000    0     1.008  -25.043029   -6.995161   15.628961
 120 H     1.0000    0     1.008  -19.722524   -7.566766   17.453057
 121 H     1.0000    0     1.008  -20.069081   -8.003047   14.195188
 122 H     1.0000    0     1.008  -23.285319  -10.903039   18.081429
 123 H     1.0000    0     1.008  -20.524996  -12.099803   16.583197
 124 H     1.0000    0     1.008  -23.254365  -11.349090   14.762937
 125 H     1.0000    0     1.008  -24.992554   -3.245038   18.377133
 126 H     1.0000    0     1.008  -21.707851   -3.519502   18.808444
 127 H     1.0000    0     1.008  -25.625575   -7.450642   20.628156
 128 H     1.0000    0     1.008  -24.089492   -5.152641   22.542827
 129 H     1.0000    0     1.008  -22.314680   -7.633114   21.151081
 130 H     1.0000    0     1.008  -25.735972   -1.862061   10.103534
 131 H     1.0000    0     1.008  -24.167519   -3.145714    7.471920
 132 H     1.0000    0     1.008  -20.671185   -0.587610   11.109549
 133 H     1.0000    0     1.008  -21.343361    0.926041    5.635239
 134 H     1.0000    0     1.008  -20.208901   -2.114282    6.298476
 135 H     1.0000    0     1.008  -17.587511    2.803806    7.987343
 136 H     1.0000    0     1.008  -16.555059    0.594659    5.666835
 137 H     1.0000    0     1.008  -16.631442   -0.263352    8.895791
 138 H     1.0000    0     1.008  -24.528607    1.853746   11.818612
 139 H     1.0000    0     1.008  -24.811858    2.503717    8.571760
 140 H     1.0000    0     1.008  -20.269599    4.244552   11.805308
 141 H     1.0000    0     1.008  -22.991447    6.113963   11.187632
 142 H     1.0000    0     1.008  -20.971973    5.218252    8.669893
 143 H     1.0000    0     1.008  -29.022697   -5.495229   12.010929
 144 H     1.0000    0     1.008  -37.387986   -7.773256   12.289645
 145 H     1.0000    0     1.008  -32.979595   -6.540474   11.939743
 146 H     1.0000    0     1.008  -39.510243  -14.590746   10.797442
 147 H     1.0000    0     1.008  -48.066186   -6.338897   12.503808
 148 H     1.0000    0     1.008  -45.002486   -4.995548   13.031287
 149 H     1.0000    0     1.008  -48.291857   -7.670436   17.042779
 150 H     1.0000    0     1.008  -47.823809   -4.346767   16.806695
 151 H     1.0000    0     1.008  -45.226230   -6.350103   17.599473

--------------------------------
INTERNAL COORDINATES (ANGSTROEM)
--------------------------------
 S      0   0   0     0.000000000000     0.00000000     0.00000000
 C      1   0   0     1.773138626899     0.00000000     0.00000000
 S      2   1   0     1.643851612342   122.31923160     0.00000000
 N      2   1   3     1.373455135998   110.66593951   180.47520213
 C      4   2   1     1.463795792110   122.77852855   177.52561278
 C      5   4   2     1.526356735301   112.31863145   277.36762479
 C      4   2   1     1.402248504795   116.95684779   357.96031175
 O      7   4   2     1.212727900479   123.41384260   180.33951002
 C      7   4   2     1.493935981493   110.16707792   358.17723729
 C      9   7   4     1.360482410985   118.18299396   191.42886950
 C     10   9   7     1.445792563752   132.36752996   169.64311754
 C     11  10   9     1.438401534030   125.57260176    22.16141384
 N     12  11  10     1.331907670749   125.69549782     9.12880170
 S     13  12  11     1.639549918423   107.76509858   179.56505340
 N     14  13  12     1.641430375161    98.84875270   359.55908390
 C     15  14  13     1.333656254287   107.83195596     0.00000000
 C     16  15  14     1.446727502538   126.42266978   179.38996924
 C     17  16  15     1.394323938438   115.12024491   175.21164361
 C     11  10   9     1.394862780635   119.30772360   205.45010545
 C     17  16  15     1.449506541068   121.62242407   350.89959342
 C     20  17  16     1.392763421906   128.88170083    15.06281945
 C     21  20  17     1.408902874225   112.54252955   188.99932115
 C     22  21  20     1.385351645251   113.59718192   358.93847206
 S     23  22  21     1.728014711830   112.08169609     0.12742497
 C     23  22  21     1.449104914387   110.74416046   172.29932827
 C     25  23  22     1.426655668933   106.81134246   358.04054738
 C     22  21  20     1.519076950190   134.89643827   169.30040719
 C     27  22  21     1.553904613739   110.13872078   312.46838425
 C     28  27  22     1.540461275657   116.84466845   319.10037549
 C     29  28  27     1.541664337559   110.73164774   157.95847584
 C     30  29  28     1.531204843318   114.56208454   291.83072739
 C     29  28  27     1.542783280211   114.07415016   284.43015487
 C     32  29  28     1.529381286468   112.81453265   148.00914206
 C     27  22  21     1.559005795307   108.04841073    75.93487059
 C     34  27  22     1.543386652074   119.08832508   189.41130461
 C     35  34  27     1.548852265970   111.99524368    89.90727606
 C     36  35  34     1.527279560035   114.78969176   217.49600039
 C     35  34  27     1.543479061244   108.08966982   213.84778148
 C     38  35  34     1.527227930762   117.03224243   186.49614551
 C     26  25  23     1.389977448594   119.76098318   185.51863072
 C     40  26  25     1.406395741532   118.37245792     1.44299232
 C     41  40  26     1.425052610748   121.68186184   357.07024435
 C     42  41  40     1.388202486851   119.86384164     1.12159717
 C     42  41  40     1.539199255002   111.16146380   179.26477537
 C     44  42  41     1.555679819018   113.84833533   120.05002015
 C     45  44  42     1.536465451287   118.46635235   283.39941282
 C     46  45  44     1.547905993722   113.68963313    67.45793522
 C     47  46  45     1.529704202714   113.84014306   222.89728283
 C     46  45  44     1.540253336370   108.15927633   192.85543574
 C     49  46  45     1.527343873854   115.96507647   177.48980693
 C     44  42  41     1.556770045093   111.79652211   244.18352482
 C     51  44  42     1.551966066059   116.60046969   290.62018629
 C     52  51  44     1.547313423227   111.49606348   103.92912081
 C     53  52  51     1.531068680563   115.66411123   212.03981254
 C     52  51  44     1.541929021875   109.18492333   231.11479828
 C     55  52  51     1.527999748757   116.86371717   175.14255879
 C     44  42  41     1.521116681586   100.55023249   359.62114395
 C     57  44  42     1.390494431956   110.64871960     0.51906395
 S     58  57  44     1.722376907097   112.92820787   179.96594285
 C     59  58  57     1.773411563823    90.73726811     0.70486578
 C     60  59  58     1.400454071007   110.68159407   359.43947068
 C     60  59  58     1.448127060206   122.20539139   178.59967310
 C     62  60  59     1.442265091341   122.39786568     4.65322051
 N     63  62  60     1.332840023184   125.59343240   359.21502783
 S     64  63  62     1.639295260836   107.52481050   180.24377758
 N     65  64  63     1.641092832901    98.95223312   359.86655746
 C     66  65  64     1.333346147293   107.61539376     0.04872925
 C     67  66  65     1.446968598865   125.62921336   179.94173934
 C     68  67  66     1.397389643478   115.07912865   181.19400131
 C     62  60  59     1.398149718521   122.82427237   184.84374906
 C     68  67  66     1.443442725604   116.26858328     1.92831586
 C     71  68  67     1.366507156732   135.28732903   181.59541078
 S     72  71  68     1.775987318677   119.75714295   181.26691256
 C     73  72  71     1.760431633606    93.03659085   183.13681029
 S     74  73  72     1.644929806436   123.21114490   178.54886723
 N     74  73  72     1.376864782431   109.70905945   359.04179067
 C     76  74  73     1.466606284079   122.04208171   179.17638585
 C     77  76  74     1.524193782299   112.75527347    79.02441610
 C     76  74  73     1.407020467726   117.80845328     0.05102226
 O     79  76  74     1.217975549590   122.07049096   180.25910092
 H      5   4   2     1.098424178539   105.89715647   155.63024358
 H      5   4   2     1.098997619106   106.99291791    39.07990312
 H      6   5   4     1.100533968081   110.88732176   301.10636310
 H      6   5   4     1.101253412571   110.02122408   181.45145415
 H      6   5   4     1.100036335764   110.56894393    61.99412989
 H     10   9   7     1.095818989706   112.30793727   357.19815394
 H     18  17  16     1.092092013019   118.71085911   182.50056619
 H     19  11  10     1.092442913108   118.13105782   353.81347479
 H     21  20  17     1.087437795049   121.79039455     4.97359664
 H     28  27  22     1.097614924552   106.31006256    79.26229397
 H     28  27  22     1.103803728975   109.38497035   193.22566167
 H     29  28  27     1.101044846362   107.24339592    42.55427874
 H     30  29  28     1.103176512894   108.43677227   170.28220929
 H     30  29  28     1.105293644739   109.06615996    55.73110581
 H     31  30  29     1.102291536482   112.35192304    62.03130500
 H     31  30  29     1.101971500766   111.31181699   181.61550673
 H     31  30  29     1.101926743890   110.96347812   302.23057094
 H     32  29  28     1.097047515562   110.33679062    26.77434498
 H     32  29  28     1.104384260029   109.08844133   271.10282767
 H     33  32  29     1.102532091415   110.39019087   295.59063815
 H     33  32  29     1.101243814375   111.80941798   175.78868711
 H     33  32  29     1.102853801961   111.87747352    54.94039571
 H     34  27  22     1.101808358563   105.94463503    65.80370314
 H     34  27  22     1.103082288046   107.76744904   312.91145064
 H     35  34  27     1.104247673577   109.03205206   330.61245728
 H     36  35  34     1.104392686457   108.65229858    94.08122764
 H     36  35  34     1.098870449598   109.82192218   339.79268485
 H     37  36  35     1.103024042893   110.76932668    62.36667053
 H     37  36  35     1.102005466502   111.16728500   181.89886777
 H     37  36  35     1.101063968396   112.25361333   302.55195072
 H     38  35  34     1.103291087837   107.94835941    62.96505336
 H     38  35  34     1.106104198030   107.85786791   309.11789533
 H     39  38  35     1.102547107610   112.02877854   300.07229379
 H     39  38  35     1.101905429608   110.33895021   180.14835984
 H     39  38  35     1.099973152581   111.91648743    61.11027965
 H     40  26  25     1.090787763637   121.37133623   177.97064802
 H     43  42  41     1.087549809112   121.38424634   180.88191765
 H     45  44  42     1.102457852301   106.69443448   161.92451347
 H     45  44  42     1.102334210210   108.72545488    48.40698086
 H     46  45  44     1.103818023997   107.40173375   308.30184545
 H     47  46  45     1.103935204122   108.95277561    99.41930374
 H     47  46  45     1.097875892531   110.02177898   344.58659456
 H     48  47  46     1.100762030050   112.08542679   306.75361578
 H     48  47  46     1.101599599900   111.38960392   185.97842178
 H     48  47  46     1.101726722786   110.45960481    66.13315318
 H     49  46  45     1.104697510317   108.39995435    54.43238869
 H     49  46  45     1.106223395070   108.34897511   300.49076984
 H     50  49  46     1.102590667700   111.58203496   301.83052910
 H     50  49  46     1.101568351125   110.57785400   182.02975665
 H     50  49  46     1.101146956314   112.07108271    62.36011278
 H     51  44  42     1.102081568351   105.96009964   168.74765189
 H     51  44  42     1.102032698834   108.56161480    55.51949896
 H     52  51  44     1.102062980278   108.47095761   346.30376420
 H     53  52  51     1.104698950710   109.08561684    87.35301898
 H     53  52  51     1.100660471444   108.58880608   333.13019360
 H     54  53  52     1.099504108633   113.01422438   294.57057354
 H     54  53  52     1.101548765103   110.78958043   173.14278705
 H     54  53  52     1.101748958429   111.16378102    54.59842470
 H     55  52  51     1.104034421067   107.30720313    53.03391189
 H     55  52  51     1.105649802198   108.68258337   299.42917086
 H     56  55  52     1.102455797209   111.55205561   309.93439871
 H     56  55  52     1.101602213369   110.55422127   190.34910472
 H     56  55  52     1.100349240241   112.25036595    70.68447537
 H     61  60  59     1.090011722276   122.71171256   180.78154540
 H     69  68  67     1.088860174448   118.20730723   179.10084123
 H     70  62  60     1.090763138129   118.90500030     0.53723761
 H     71  68  67     1.095207855797   110.88714906     1.53011577
 H     77  76  74     1.099041758351   107.01941153   317.21365685
 H     77  76  74     1.097892254914   105.75555701   200.73505461
 H     78  77  76     1.098583847779   110.67519335   298.31374727
 H     78  77  76     1.101576076084   109.74181321   179.14915034
 H     78  77  76     1.100163012012   110.82608861    59.44587780

---------------------------
INTERNAL COORDINATES (A.U.)
---------------------------
 S      0   0   0     0.000000000000     0.00000000     0.00000000
 C      1   0   0     3.350746402316     0.00000000     0.00000000
 S      2   1   0     3.106429352132   122.31923160     0.00000000
 N      2   1   3     2.595454064264   110.66593951   180.47520213
 C      4   2   1     2.766173163075   122.77852855   177.52561278
 C      5   4   2     2.884396212386   112.31863145   277.36762479
 C      4   2   1     2.649865645763   116.95684779   357.96031175
 O      7   4   2     2.291723606870   123.41384260   180.33951002
 C      7   4   2     2.823129866633   110.16707792   358.17723729
 C      9   7   4     2.570939166779   118.18299396   191.42886950
 C     10   9   7     2.732151991951   132.36752996   169.64311754
 C     11  10   9     2.718184969929   125.57260176    22.16141384
 N     12  11  10     2.516940733385   125.69549782     9.12880170
 S     13  12  11     3.098300328712   107.76509858   179.56505340
 N     14  13  12     3.101853876953    98.84875270   359.55908390
 C     15  14  13     2.520245077394   107.83195596     0.00000000
 C     16  15  14     2.733918770209   126.42266978   179.38996924
 C     17  16  15     2.634890385617   115.12024491   175.21164361
 C     11  10   9     2.635908649799   119.30772360   205.45010545
 C     17  16  15     2.739170391947   121.62242407   350.89959342
 C     20  17  16     2.631941436746   128.88170083    15.06281945
 C     21  20  17     2.662440581580   112.54252955   188.99932115
 C     22  21  20     2.617935208702   113.59718192   358.93847206
 S     23  22  21     3.265474560745   112.08169609     0.12742497
 C     23  22  21     2.738411427510   110.74416046   172.29932827
 C     25  23  22     2.695988501690   106.81134246   358.04054738
 C     22  21  20     2.870639412212   134.89643827   169.30040719
 C     27  22  21     2.936454158204   110.13872078   312.46838425
 C     28  27  22     2.911049930903   116.84466845   319.10037549
 C     29  28  27     2.913323388419   110.73164774   157.95847584
 C     30  29  28     2.893557808805   114.56208454   291.83072739
 C     29  28  27     2.915437883592   114.07415016   284.43015487
 C     32  29  28     2.890111785770   112.81453265   148.00914206
 C     27  22  21     2.946093994326   108.04841073    75.93487059
 C     34  27  22     2.916578091169   119.08832508   189.41130461
 C     35  34  27     2.926906604586   111.99524368    89.90727606
 C     36  35  34     2.886140098401   114.78969176   217.49600039
 C     35  34  27     2.916752719194   108.08966982   213.84778148
 C     38  35  34     2.886042533216   117.03224243   186.49614551
 C     26  25  23     2.626676710169   119.76098318   185.51863072
 C     40  26  25     2.657702787409   118.37245792     1.44299232
 C     41  40  26     2.692959160743   121.68186184   357.07024435
 C     42  41  40     2.623322518577   119.86384164     1.12159717
 C     42  41  40     2.908665057490   111.16146380   179.26477537
 C     44  42  41     2.939808810012   113.84833533   120.05002015
 C     45  44  42     2.903498917165   118.46635235   283.39941282
 C     46  45  44     2.925118409190   113.68963313    67.45793522
 C     47  46  45     2.890722009037   113.84014306   222.89728283
 C     46  45  44     2.910656982598   108.15927633   192.85543574
 C     49  46  45     2.886261633907   115.96507647   177.48980693
 C     44  42  41     2.941869038719   111.79652211   244.18352482
 C     51  44  42     2.932790833991   116.60046969   290.62018629
 C     52  51  44     2.923998613240   111.49606348   103.92912081
 C     53  52  51     2.893300498488   115.66411123   212.03981254
 C     52  51  44     2.913823569289   109.18492333   231.11479828
 C     55  52  51     2.887501057850   116.86371717   175.14255879
 C     44  42  41     2.874493945937   100.55023249   359.62114395
 C     57  44  42     2.627653667139   110.64871960     0.51906395
 S     58  57  44     3.254820653803   112.92820787   179.96594285
 C     59  58  57     3.351262178354    90.73726811     0.70486578
 C     60  59  58     2.646474657338   110.68159407   359.43947068
 C     60  59  58     2.736563550909   122.20539139   178.59967310
 C     62  60  59     2.725486035149   122.39786568     4.65322051
 N     63  62  60     2.518702624146   125.59343240   359.21502783
 S     64  63  62     3.097819095615   107.52481050   180.24377758
 N     65  64  63     3.101216014524    98.95223312   359.86655746
 C     66  65  64     2.519659060102   107.61539376     0.04872925
 C     67  66  65     2.734374376238   125.62921336   179.94173934
 C     68  67  66     2.640683728552   115.07912865   181.19400131
 C     62  60  59     2.642120062224   122.82427237   184.84374906
 C     68  67  66     2.727711441393   116.26858328     1.92831586
 C     71  68  67     2.582324286267   135.28732903   181.59541078
 S     72  71  68     3.356129649616   119.75714295   181.26691256
 C     73  72  71     3.326733665007    93.03659085   183.13681029
 S     74  73  72     3.108466843687   123.21114490   178.54886723
 N     74  73  72     2.601897362237   109.70905945   359.04179067
 C     76  74  73     2.771484223197   122.04208171   179.17638585
 C     77  76  74     2.880308823571   112.75527347    79.02441610
 C     76  74  73     2.658883348824   117.80845328     0.05102226
 O     79  76  74     2.301640226538   122.07049096   180.25910092
 H      5   4   2     2.075720876317   105.89715647   155.63024358
 H      5   4   2     2.076804521941   106.99291791    39.07990312
 H      6   5   4     2.079707800751   110.88732176   301.10636310
 H      6   5   4     2.081067353806   110.02122408   181.45145415
 H      6   5   4     2.078767411955   110.56894393    61.99412989
 H     10   9   7     2.070797782894   112.30793727   357.19815394
 H     18  17  16     2.063754817649   118.71085911   182.50056619
 H     19  11  10     2.064417922717   118.13105782   353.81347479
 H     21  20  17     2.054959620317   121.79039455     4.97359664
 H     28  27  22     2.074191607909   106.31006256    79.26229397
 H     28  27  22     2.085886753365   109.38497035   193.22566167
 H     29  28  27     2.080673220789   107.24339592    42.55427874
 H     30  29  28     2.084701486743   108.43677227   170.28220929
 H     30  29  28     2.088702286120   109.06615996    55.73110581
 H     31  30  29     2.083029123690   112.35192304    62.03130500
 H     31  30  29     2.082424343834   111.31181699   181.61550673
 H     31  30  29     2.082339765596   110.96347812   302.23057094
 H     32  29  28     2.073119360310   110.33679062    26.77434498
 H     32  29  28     2.086983798068   109.08844133   271.10282767
 H     33  32  29     2.083483706634   110.39019087   295.59063815
 H     33  32  29     2.081049215844   111.80941798   175.78868711
 H     33  32  29     2.084091651460   111.87747352    54.94039571
 H     34  27  22     2.082116049750   105.94463503    65.80370314
 H     34  27  22     2.084523427585   107.76744904   312.91145064
 H     35  34  27     2.086725687080   109.03205206   330.61245728
 H     36  35  34     2.086999721710   108.65229858    94.08122764
 H     36  35  34     2.076564206399   109.82192218   339.79268485
 H     37  36  35     2.084413360198   110.76932668    62.36667053
 H     37  36  35     2.082488529773   111.16728500   181.89886777
 H     37  36  35     2.080709356197   112.25361333   302.55195072
 H     38  35  34     2.084918002008   107.94835941    62.96505336
 H     38  35  34     2.090234009858   107.85786791   309.11789533
 H     39  38  35     2.083512083131   112.02877854   300.07229379
 H     39  38  35     2.082299487440   110.33895021   180.14835984
 H     39  38  35     2.078648013045   111.91648743    61.11027965
 H     40  26  25     2.061290143506   121.37133623   177.97064802
 H     43  42  41     2.055171296220   121.38424634   180.88191765
 H     45  44  42     2.083343415040   106.69443448   161.92451347
 H     45  44  42     2.083109765350   108.72545488    48.40698086
 H     46  45  44     2.085913767040   107.40173375   308.30184545
 H     47  46  45     2.086135205385   108.95277561    99.41930374
 H     47  46  45     2.074684765917   110.02177898   344.58659456
 H     48  47  46     2.080138775414   112.08542679   306.75361578
 H     48  47  46     2.081721553048   111.38960392   185.97842178
 H     48  47  46     2.081961780487   110.45960481    66.13315318
 H     49  46  45     2.087575755323   108.39995435    54.43238869
 H     49  46  45     2.090459259619   108.34897511   300.49076984
 H     50  49  46     2.083594399771   111.58203496   301.83052910
 H     50  49  46     2.081662501421   110.57785400   182.02975665
 H     50  49  46     2.080866180635   112.07108271    62.36011278
 H     51  44  42     2.082632341427   105.96009964   168.74765189
 H     51  44  42     2.082539991423   108.56161480    55.51949896
 H     52  51  44     2.082597215059   108.47095761   346.30376420
 H     53  52  51     2.087578477272   109.08561684    87.35301898
 H     53  52  51     2.079946857462   108.58880608   333.13019360
 H     54  53  52     2.077761648437   113.01422438   294.57057354
 H     54  53  52     2.081625489204   110.78958043   173.14278705
 H     54  53  52     2.082003799764   111.16378102    54.59842470
 H     55  52  51     2.086322698238   107.30720313    53.03391189
 H     55  52  51     2.089375326178   108.68258337   299.42917086
 H     56  55  52     2.083339531479   111.55205561   309.93439871
 H     56  55  52     2.081726491789   110.55422127   190.34910472
 H     56  55  52     2.079358715725   112.25036595    70.68447537
 H     61  60  59     2.059823637866   122.71171256   180.78154540
 H     69  68  67     2.057647527841   118.20730723   179.10084123
 H     70  62  60     2.061243608039   118.90500030     0.53723761
 H     71  68  67     2.069642907176   110.88714906     1.53011577
 H     77  76  74     2.076887933027   107.01941153   317.21365685
 H     77  76  74     2.074715686341   105.75555701   200.73505461
 H     78  77  76     2.076022607451   110.67519335   298.31374727
 H     78  77  76     2.081677099478   109.74181321   179.14915034
 H     78  77  76     2.079006795373   110.82608861    59.44587780

---------------------
BASIS SET INFORMATION
---------------------
There are 5 groups of distinct atoms

 Group   1 Type S   : 14s9p3d1f contracted to 5s5p2d1f pattern {73211/51111/21/1}
 Group   2 Type C   : 11s6p2d1f contracted to 5s3p2d1f pattern {62111/411/11/1}
 Group   3 Type N   : 11s6p2d1f contracted to 5s3p2d1f pattern {62111/411/11/1}
 Group   4 Type O   : 11s6p2d1f contracted to 5s3p2d1f pattern {62111/411/11/1}
 Group   5 Type H   : 5s1p contracted to 3s1p pattern {311/1}

Atom   0S    basis set group =>   1
Atom   1C    basis set group =>   2
Atom   2S    basis set group =>   1
Atom   3N    basis set group =>   3
Atom   4C    basis set group =>   2
Atom   5C    basis set group =>   2
Atom   6C    basis set group =>   2
Atom   7O    basis set group =>   4
Atom   8C    basis set group =>   2
Atom   9C    basis set group =>   2
Atom  10C    basis set group =>   2
Atom  11C    basis set group =>   2
Atom  12N    basis set group =>   3
Atom  13S    basis set group =>   1
Atom  14N    basis set group =>   3
Atom  15C    basis set group =>   2
Atom  16C    basis set group =>   2
Atom  17C    basis set group =>   2
Atom  18C    basis set group =>   2
Atom  19C    basis set group =>   2
Atom  20C    basis set group =>   2
Atom  21C    basis set group =>   2
Atom  22C    basis set group =>   2
Atom  23S    basis set group =>   1
Atom  24C    basis set group =>   2
Atom  25C    basis set group =>   2
Atom  26C    basis set group =>   2
Atom  27C    basis set group =>   2
Atom  28C    basis set group =>   2
Atom  29C    basis set group =>   2
Atom  30C    basis set group =>   2
Atom  31C    basis set group =>   2
Atom  32C    basis set group =>   2
Atom  33C    basis set group =>   2
Atom  34C    basis set group =>   2
Atom  35C    basis set group =>   2
Atom  36C    basis set group =>   2
Atom  37C    basis set group =>   2
Atom  38C    basis set group =>   2
Atom  39C    basis set group =>   2
Atom  40C    basis set group =>   2
Atom  41C    basis set group =>   2
Atom  42C    basis set group =>   2
Atom  43C    basis set group =>   2
Atom  44C    basis set group =>   2
Atom  45C    basis set group =>   2
Atom  46C    basis set group =>   2
Atom  47C    basis set group =>   2
Atom  48C    basis set group =>   2
Atom  49C    basis set group =>   2
Atom  50C    basis set group =>   2
Atom  51C    basis set group =>   2
Atom  52C    basis set group =>   2
Atom  53C    basis set group =>   2
Atom  54C    basis set group =>   2
Atom  55C    basis set group =>   2
Atom  56C    basis set group =>   2
Atom  57C    basis set group =>   2
Atom  58S    basis set group =>   1
Atom  59C    basis set group =>   2
Atom  60C    basis set group =>   2
Atom  61C    basis set group =>   2
Atom  62C    basis set group =>   2
Atom  63N    basis set group =>   3
Atom  64S    basis set group =>   1
Atom  65N    basis set group =>   3
Atom  66C    basis set group =>   2
Atom  67C    basis set group =>   2
Atom  68C    basis set group =>   2
Atom  69C    basis set group =>   2
Atom  70C    basis set group =>   2
Atom  71C    basis set group =>   2
Atom  72S    basis set group =>   1
Atom  73C    basis set group =>   2
Atom  74S    basis set group =>   1
Atom  75N    basis set group =>   3
Atom  76C    basis set group =>   2
Atom  77C    basis set group =>   2
Atom  78C    basis set group =>   2
Atom  79O    basis set group =>   4
Atom  80H    basis set group =>   5
Atom  81H    basis set group =>   5
Atom  82H    basis set group =>   5
Atom  83H    basis set group =>   5
Atom  84H    basis set group =>   5
Atom  85H    basis set group =>   5
Atom  86H    basis set group =>   5
Atom  87H    basis set group =>   5
Atom  88H    basis set group =>   5
Atom  89H    basis set group =>   5
Atom  90H    basis set group =>   5
Atom  91H    basis set group =>   5
Atom  92H    basis set group =>   5
Atom  93H    basis set group =>   5
Atom  94H    basis set group =>   5
Atom  95H    basis set group =>   5
Atom  96H    basis set group =>   5
Atom  97H    basis set group =>   5
Atom  98H    basis set group =>   5
Atom  99H    basis set group =>   5
Atom 100H    basis set group =>   5
Atom 101H    basis set group =>   5
Atom 102H    basis set group =>   5
Atom 103H    basis set group =>   5
Atom 104H    basis set group =>   5
Atom 105H    basis set group =>   5
Atom 106H    basis set group =>   5
Atom 107H    basis set group =>   5
Atom 108H    basis set group =>   5
Atom 109H    basis set group =>   5
Atom 110H    basis set group =>   5
Atom 111H    basis set group =>   5
Atom 112H    basis set group =>   5
Atom 113H    basis set group =>   5
Atom 114H    basis set group =>   5
Atom 115H    basis set group =>   5
Atom 116H    basis set group =>   5
Atom 117H    basis set group =>   5
Atom 118H    basis set group =>   5
Atom 119H    basis set group =>   5
Atom 120H    basis set group =>   5
Atom 121H    basis set group =>   5
Atom 122H    basis set group =>   5
Atom 123H    basis set group =>   5
Atom 124H    basis set group =>   5
Atom 125H    basis set group =>   5
Atom 126H    basis set group =>   5
Atom 127H    basis set group =>   5
Atom 128H    basis set group =>   5
Atom 129H    basis set group =>   5
Atom 130H    basis set group =>   5
Atom 131H    basis set group =>   5
Atom 132H    basis set group =>   5
Atom 133H    basis set group =>   5
Atom 134H    basis set group =>   5
Atom 135H    basis set group =>   5
Atom 136H    basis set group =>   5
Atom 137H    basis set group =>   5
Atom 138H    basis set group =>   5
Atom 139H    basis set group =>   5
Atom 140H    basis set group =>   5
Atom 141H    basis set group =>   5
Atom 142H    basis set group =>   5
Atom 143H    basis set group =>   5
Atom 144H    basis set group =>   5
Atom 145H    basis set group =>   5
Atom 146H    basis set group =>   5
Atom 147H    basis set group =>   5
Atom 148H    basis set group =>   5
Atom 149H    basis set group =>   5
Atom 150H    basis set group =>   5
Atom 151H    basis set group =>   5
---------------------------------
AUXILIARY/J BASIS SET INFORMATION
---------------------------------
There are 5 groups of distinct atoms

 Group   1 Type S   : 14s5p5d2f1g contracted to 8s4p3d1f1g pattern {71111111/2111/311/2/1}
 Group   2 Type C   : 12s5p4d2f1g contracted to 6s4p3d1f1g pattern {711111/2111/211/2/1}
 Group   3 Type N   : 12s5p4d2f1g contracted to 6s4p3d1f1g pattern {711111/2111/211/2/1}
 Group   4 Type O   : 12s5p4d2f1g contracted to 6s4p3d1f1g pattern {711111/2111/211/2/1}
 Group   5 Type H   : 5s2p1d contracted to 3s1p1d pattern {311/2/1}

Atom   0S    basis set group =>   1
Atom   1C    basis set group =>   2
Atom   2S    basis set group =>   1
Atom   3N    basis set group =>   3
Atom   4C    basis set group =>   2
Atom   5C    basis set group =>   2
Atom   6C    basis set group =>   2
Atom   7O    basis set group =>   4
Atom   8C    basis set group =>   2
Atom   9C    basis set group =>   2
Atom  10C    basis set group =>   2
Atom  11C    basis set group =>   2
Atom  12N    basis set group =>   3
Atom  13S    basis set group =>   1
Atom  14N    basis set group =>   3
Atom  15C    basis set group =>   2
Atom  16C    basis set group =>   2
Atom  17C    basis set group =>   2
Atom  18C    basis set group =>   2
Atom  19C    basis set group =>   2
Atom  20C    basis set group =>   2
Atom  21C    basis set group =>   2
Atom  22C    basis set group =>   2
Atom  23S    basis set group =>   1
Atom  24C    basis set group =>   2
Atom  25C    basis set group =>   2
Atom  26C    basis set group =>   2
Atom  27C    basis set group =>   2
Atom  28C    basis set group =>   2
Atom  29C    basis set group =>   2
Atom  30C    basis set group =>   2
Atom  31C    basis set group =>   2
Atom  32C    basis set group =>   2
Atom  33C    basis set group =>   2
Atom  34C    basis set group =>   2
Atom  35C    basis set group =>   2
Atom  36C    basis set group =>   2
Atom  37C    basis set group =>   2
Atom  38C    basis set group =>   2
Atom  39C    basis set group =>   2
Atom  40C    basis set group =>   2
Atom  41C    basis set group =>   2
Atom  42C    basis set group =>   2
Atom  43C    basis set group =>   2
Atom  44C    basis set group =>   2
Atom  45C    basis set group =>   2
Atom  46C    basis set group =>   2
Atom  47C    basis set group =>   2
Atom  48C    basis set group =>   2
Atom  49C    basis set group =>   2
Atom  50C    basis set group =>   2
Atom  51C    basis set group =>   2
Atom  52C    basis set group =>   2
Atom  53C    basis set group =>   2
Atom  54C    basis set group =>   2
Atom  55C    basis set group =>   2
Atom  56C    basis set group =>   2
Atom  57C    basis set group =>   2
Atom  58S    basis set group =>   1
Atom  59C    basis set group =>   2
Atom  60C    basis set group =>   2
Atom  61C    basis set group =>   2
Atom  62C    basis set group =>   2
Atom  63N    basis set group =>   3
Atom  64S    basis set group =>   1
Atom  65N    basis set group =>   3
Atom  66C    basis set group =>   2
Atom  67C    basis set group =>   2
Atom  68C    basis set group =>   2
Atom  69C    basis set group =>   2
Atom  70C    basis set group =>   2
Atom  71C    basis set group =>   2
Atom  72S    basis set group =>   1
Atom  73C    basis set group =>   2
Atom  74S    basis set group =>   1
Atom  75N    basis set group =>   3
Atom  76C    basis set group =>   2
Atom  77C    basis set group =>   2
Atom  78C    basis set group =>   2
Atom  79O    basis set group =>   4
Atom  80H    basis set group =>   5
Atom  81H    basis set group =>   5
Atom  82H    basis set group =>   5
Atom  83H    basis set group =>   5
Atom  84H    basis set group =>   5
Atom  85H    basis set group =>   5
Atom  86H    basis set group =>   5
Atom  87H    basis set group =>   5
Atom  88H    basis set group =>   5
Atom  89H    basis set group =>   5
Atom  90H    basis set group =>   5
Atom  91H    basis set group =>   5
Atom  92H    basis set group =>   5
Atom  93H    basis set group =>   5
Atom  94H    basis set group =>   5
Atom  95H    basis set group =>   5
Atom  96H    basis set group =>   5
Atom  97H    basis set group =>   5
Atom  98H    basis set group =>   5
Atom  99H    basis set group =>   5
Atom 100H    basis set group =>   5
Atom 101H    basis set group =>   5
Atom 102H    basis set group =>   5
Atom 103H    basis set group =>   5
Atom 104H    basis set group =>   5
Atom 105H    basis set group =>   5
Atom 106H    basis set group =>   5
Atom 107H    basis set group =>   5
Atom 108H    basis set group =>   5
Atom 109H    basis set group =>   5
Atom 110H    basis set group =>   5
Atom 111H    basis set group =>   5
Atom 112H    basis set group =>   5
Atom 113H    basis set group =>   5
Atom 114H    basis set group =>   5
Atom 115H    basis set group =>   5
Atom 116H    basis set group =>   5
Atom 117H    basis set group =>   5
Atom 118H    basis set group =>   5
Atom 119H    basis set group =>   5
Atom 120H    basis set group =>   5
Atom 121H    basis set group =>   5
Atom 122H    basis set group =>   5
Atom 123H    basis set group =>   5
Atom 124H    basis set group =>   5
Atom 125H    basis set group =>   5
Atom 126H    basis set group =>   5
Atom 127H    basis set group =>   5
Atom 128H    basis set group =>   5
Atom 129H    basis set group =>   5
Atom 130H    basis set group =>   5
Atom 131H    basis set group =>   5
Atom 132H    basis set group =>   5
Atom 133H    basis set group =>   5
Atom 134H    basis set group =>   5
Atom 135H    basis set group =>   5
Atom 136H    basis set group =>   5
Atom 137H    basis set group =>   5
Atom 138H    basis set group =>   5
Atom 139H    basis set group =>   5
Atom 140H    basis set group =>   5
Atom 141H    basis set group =>   5
Atom 142H    basis set group =>   5
Atom 143H    basis set group =>   5
Atom 144H    basis set group =>   5
Atom 145H    basis set group =>   5
Atom 146H    basis set group =>   5
Atom 147H    basis set group =>   5
Atom 148H    basis set group =>   5
Atom 149H    basis set group =>   5
Atom 150H    basis set group =>   5
Atom 151H    basis set group =>   5


           ************************************************************
           *        Program running with 6 parallel MPI-processes     *
           *              working on a common directory               *
           ************************************************************
------------------------------------------------------------------------------
                           ORCA GTO INTEGRAL CALCULATION
                           -- RI-GTO INTEGRALS CHOSEN --
------------------------------------------------------------------------------

                         BASIS SET STATISTICS AND STARTUP INFO

Gaussian basis set:
 # of primitive gaussian shells          ... 2088
 # of primitive gaussian functions       ... 4392
 # of contracted shells                  ... 1184
 # of contracted basis functions         ... 2960
 Highest angular momentum                ...    3
 Maximum contraction depth               ...    7
Auxiliary gaussian basis set:
 # of primitive gaussian shells          ... 2520
 # of primitive gaussian functions       ... 6808
 # of contracted shells                  ... 1576
 # of contracted aux-basis functions     ... 4728
 Highest angular momentum                ...    4
 Maximum contraction depth               ...    7
Ratio of auxiliary to basis functions    ...  1.60
Integral package used                  ... LIBINT
 One Electron integrals                  ... done
 Ordering auxiliary basis shells         ... done
 Integral threshhold             Thresh  ...  2.500e-11
 Primitive cut-off               TCut    ...  2.500e-12
 Pre-screening matrix                    ... done
 Shell pair data                         ... 
 Ordering of the shell pairs             ... done (   0.052 sec) 222992 of 701520 pairs
 Determination of significant pairs      ... done (   0.001 sec)
 Creation of shell pair data             ... done (   0.018 sec)
 Storage of shell pair data              ... done (   0.205 sec)
 Shell pair data done in (   0.276 sec)
 Computing two index integrals           ... done
 Cholesky decomposition of the V-matrix  ... done


Timings:
 Total evaluation time                   ...  10.167 sec (  0.169 min)
 One electron matrix time                ...   3.664 sec (  0.061 min) = 36.0%
 Schwartz matrix evaluation time         ...   4.353 sec (  0.073 min) = 42.8%
 Two index repulsion integral time       ...   0.385 sec (  0.006 min) =  3.8%
 Cholesky decomposition of V             ...   1.471 sec (  0.025 min) = 14.5%
 Three index repulsion integral time     ...   0.000 sec (  0.000 min) =  0.0%



           ************************************************************
           *        Program running with 6 parallel MPI-processes     *
           *              working on a common directory               *
           ************************************************************
-------------------------------------------------------------------------------
                                 ORCA SCF
-------------------------------------------------------------------------------

------------
SCF SETTINGS
------------
Hamiltonian:
 Density Functional     Method          .... DFT(GTOs)
 Exchange Functional    Exchange        .... B88
   X-Alpha parameter    XAlpha          ....  0.666667
   Becke's b parameter  XBeta           ....  0.004200
 Correlation Functional Correlation     .... LYP
 LDA part of GGA corr.  LDAOpt          .... VWN-5
 Gradients option       PostSCFGGA      .... off
 Hybrid DFT is turned on
   Fraction HF Exchange ScalHFX         ....  0.200000
   Scaling of DF-GGA-X  ScalDFX         ....  0.720000
   Scaling of DF-GGA-C  ScalDFC         ....  0.810000
   Scaling of DF-LDA-C  ScalLDAC        ....  1.000000
   Perturbative correction              ....  0.000000
   Density functional embedding theory  .... OFF
   NL short-range parameter             ....  4.800000
 RI-approximation to the Coulomb term is turned on
   Number of auxiliary basis functions  .... 4728
   RIJ-COSX (HFX calculated with COS-X)).... on


General Settings:
 Integral files         IntName         .... EH-IDTBR
 Hartree-Fock type      HFTyp           .... RHF
 Total Charge           Charge          ....    0
 Multiplicity           Mult            ....    1
 Number of Electrons    NEL             ....  642
 Basis Dimension        Dim             .... 2960
 Nuclear Repulsion      ENuc            ....  14995.8838180463 Eh

Convergence Acceleration:
 DIIS                   CNVDIIS         .... on
   Start iteration      DIISMaxIt       ....    12
   Startup error        DIISStart       ....  0.200000
   # of expansion vecs  DIISMaxEq       ....     5
   Bias factor          DIISBfac        ....   1.050
   Max. coefficient     DIISMaxC        ....  10.000
 Newton-Raphson         CNVNR           .... off
 SOSCF                  CNVSOSCF        .... on
   Start iteration      SOSCFMaxIt      ....   150
   Startup grad/error   SOSCFStart      ....  0.003300
 Level Shifting         CNVShift        .... on
   Level shift para.    LevelShift      ....    0.2500
   Turn off err/grad.   ShiftErr        ....    0.0010
 Zerner damping         CNVZerner       .... off
 Static damping         CNVDamp         .... on
   Fraction old density DampFac         ....    0.7000
   Max. Damping (<1)    DampMax         ....    0.9800
   Min. Damping (>=0)   DampMin         ....    0.0000
   Turn off err/grad.   DampErr         ....    0.1000
 Fernandez-Rico         CNVRico         .... off

SCF Procedure:
 Maximum # iterations   MaxIter         ....   125
 SCF integral mode      SCFMode         .... Direct
   Integral package                     .... LIBINT
 Reset frequency        DirectResetFreq ....    20
 Integral Threshold     Thresh          ....  2.500e-11 Eh
 Primitive CutOff       TCut            ....  2.500e-12 Eh

Convergence Tolerance:
 Convergence Check Mode ConvCheckMode   .... Total+1el-Energy
 Convergence forced     ConvForced      .... 1
 Energy Change          TolE            ....  1.000e-08 Eh
 1-El. energy change                    ....  1.000e-05 Eh
 Orbital Gradient       TolG            ....  1.000e-05
 Orbital Rotation angle TolX            ....  1.000e-05
 DIIS Error             TolErr          ....  5.000e-07


Diagonalization of the overlap matrix:
Smallest eigenvalue                        ... 2.345e-06
Time for diagonalization                   ...    3.176 sec
Threshold for overlap eigenvalues          ... 1.000e-08
Number of eigenvalues below threshold      ... 0
Time for construction of square roots      ...    2.668 sec
Total time needed                          ...    5.851 sec

-------------------
DFT GRID GENERATION
-------------------

General Integration Accuracy     IntAcc      ...  4.670
Radial Grid Type                 RadialGrid  ... Gauss-Chebyshev
Angular Grid (max. acc.)         AngularGrid ... Lebedev-302
Angular grid pruning method      GridPruning ... 3 (G Style)
Weight generation scheme         WeightScheme... Becke
Basis function cutoff            BFCut       ...    1.0000e-11
Integration weight cutoff        WCut        ...    1.0000e-14
Grids for H and He will be reduced by one unit

# of grid points (after initial pruning)     ... 746400 (   0.0 sec)
# of grid points (after weights+screening)   ... 623048 (  15.5 sec)
nearest neighbour list constructed           ...    0.0 sec
Grid point re-assignment to atoms done       ...    0.1 sec
Grid point division into batches done        ...    2.1 sec
Reduced shell lists constructed in    4.2 sec

Total number of grid points                  ...   623048
Total number of batches                      ...     9816
Average number of points per batch           ...       63
Average number of grid points per atom       ...     4099
Average number of shells per batch           ...   176.51 (14.91%)
Average number of basis functions per batch  ...   436.03 (14.73%)
Average number of large shells per batch     ...   103.90 (58.86%)
Average number of large basis fcns per batch ...   268.79 (61.65%)
Maximum spatial batch extension              ...  21.12, 18.20, 23.18 au
Average spatial batch extension              ...   0.32,  0.30,  0.30 au

Time for grid setup =   20.576 sec

------------------------------
INITIAL GUESS: MODEL POTENTIAL
------------------------------
Loading Hartree-Fock densities                     ... done
Calculating cut-offs                               ... done
Setting up the integral package                    ... done
Initializing the effective Hamiltonian             ... done
Starting the Coulomb interaction                   ... done (   8.6 sec)
Reading the grid                                   ... done
Mapping shells                                     ... done
Starting the XC term evaluation                    ... done (   5.8 sec)
  promolecular density results
     # of electrons  =    641.965543745
     EX              =   -606.712831003
     EC              =    -22.638694169
     EX+EC           =   -629.351525172
Transforming the Hamiltonian                       ... done (   2.5 sec)
Diagonalizing the Hamiltonian                      ... done (   2.9 sec)
Back transforming the eigenvectors                 ... done (   1.3 sec)
Now organizing SCF variables                       ... done
                      ------------------
                      INITIAL GUESS DONE (  42.0 sec)
                      ------------------
--------------------
COSX GRID GENERATION
--------------------

General Integration Accuracy     IntAcc      ...  3.340
Radial Grid Type                 RadialGrid  ... Gauss-Chebyshev
Angular Grid (max. acc.)         AngularGrid ... Lebedev-50
Angular grid pruning method      GridPruning ... 3 (G Style)
Weight generation scheme         WeightScheme... Becke
Basis function cutoff            BFCut       ...    1.0000e-11
Integration weight cutoff        WCut        ...    1.0000e-14
Grids for H and He will be reduced by one unit

# of grid points (after initial pruning)     ...  70364 (   0.0 sec)
# of grid points (after weights+screening)   ...  61424 (   1.5 sec)
nearest neighbour list constructed           ...    0.0 sec
Grid point re-assignment to atoms done       ...    0.0 sec
Grid point division into batches done        ...    0.0 sec
Reduced shell lists constructed in    0.3 sec

Total number of grid points                  ...    61424
Total number of batches                      ...     1039
Average number of points per batch           ...       59
Average number of grid points per atom       ...      404
Average number of shells per batch           ...   203.41 (17.18%)
Average number of basis functions per batch  ...   505.63 (17.08%)
Average number of large shells per batch     ...   119.66 (58.83%)
Average number of large basis fcns per batch ...   313.57 (62.02%)
Maximum spatial batch extension              ...  18.66, 16.82, 18.75 au
Average spatial batch extension              ...   0.72,  0.61,  0.63 au

Overlap Fitting                  UseSFitting ... on
Constructing numerical overlap ... done (      1.0 sec)
Inverting numerical overlap    ... done (      0.9 sec)
Obtaining analytic overlap     ... done (      0.0 sec)
Final contraction and storage  ... done (      5.4 sec)


General Integration Accuracy     IntAcc      ...  3.670
Radial Grid Type                 RadialGrid  ... Gauss-Chebyshev
Angular Grid (max. acc.)         AngularGrid ... Lebedev-50
Angular grid pruning method      GridPruning ... 3 (G Style)
Weight generation scheme         WeightScheme... Becke
Basis function cutoff            BFCut       ...    1.0000e-11
Integration weight cutoff        WCut        ...    1.0000e-14
Grids for H and He will be reduced by one unit

# of grid points (after initial pruning)     ...  89232 (   0.0 sec)
# of grid points (after weights+screening)   ...  77539 (   1.8 sec)
nearest neighbour list constructed           ...    0.0 sec
Grid point re-assignment to atoms done       ...    0.0 sec
Grid point division into batches done        ...    0.0 sec
Reduced shell lists constructed in    0.4 sec

Total number of grid points                  ...    77539
Total number of batches                      ...     1287
Average number of points per batch           ...       60
Average number of grid points per atom       ...      510
Average number of shells per batch           ...   205.66 (17.37%)
Average number of basis functions per batch  ...   508.95 (17.19%)
Average number of large shells per batch     ...   120.83 (58.75%)
Average number of large basis fcns per batch ...   315.38 (61.97%)
Maximum spatial batch extension              ...  18.30, 17.44, 20.28 au
Average spatial batch extension              ...   0.66,  0.58,  0.58 au

Overlap Fitting                  UseSFitting ... on
Constructing numerical overlap ... done (      1.2 sec)
Inverting numerical overlap    ... done (      0.8 sec)
Obtaining analytic overlap     ... done (      0.0 sec)
Final contraction and storage  ... done (      5.4 sec)


General Integration Accuracy     IntAcc      ...  4.010
Radial Grid Type                 RadialGrid  ... Gauss-Chebyshev
Angular Grid (max. acc.)         AngularGrid ... Lebedev-110
Angular grid pruning method      GridPruning ... 3 (G Style)
Weight generation scheme         WeightScheme... Becke
Basis function cutoff            BFCut       ...    1.0000e-11
Integration weight cutoff        WCut        ...    1.0000e-14
Grids for H and He will be reduced by one unit

# of grid points (after initial pruning)     ... 166756 (   0.0 sec)
# of grid points (after weights+screening)   ... 144074 (   3.7 sec)
nearest neighbour list constructed           ...    0.0 sec
Grid point re-assignment to atoms done       ...    0.0 sec
Grid point division into batches done        ...    0.1 sec
Reduced shell lists constructed in    0.7 sec

Total number of grid points                  ...   144074
Total number of batches                      ...     2329
Average number of points per batch           ...       61
Average number of grid points per atom       ...      948
Average number of shells per batch           ...   189.53 (16.01%)
Average number of basis functions per batch  ...   472.27 (15.96%)
Average number of large shells per batch     ...   111.89 (59.04%)
[...]
   320a -> 322a  :     0.043170 (c=  0.20777379)
   320a -> 323a  :     0.035770 (c=  0.18912947)
   320a -> 324a  :     0.047361 (c= -0.21762597)


                  ********************************
                  * Entering triplet calculation *
                  ********************************

------------------------
DAVIDSON-DIAGONALIZATION
------------------------

Dimension of the eigenvalue problem            ... 551551
Number of roots to be determined               ...      3
Maximum size of the expansion space            ...     15
Maximum number of iterations                   ...    100
Convergence tolerance for the residual         ...    2.500e-07
Convergence tolerance for the energies         ...    2.500e-07
Orthogonality tolerance                        ...    1.000e-14
Level Shift                                    ...    0.000e+00
Constructing the preconditioner                ... o.k.
Building the initial guess                     ... o.k.
Number of trial vectors determined             ...     15


                       ****Iteration    0****
                <<< Triplet sigma vectors requested >>>

   Memory handling for direct AO based CIS:
   Memory per vector needed      ...   260 MB
   Memory needed                 ...  2346 MB
   Memory available              ...  6000 MB
   Number of vectors per batch   ...    23
   Number of batches             ...     1
   Time for densities:    20.867
   Time for K (COSX):   543.947
   Time for XC-Integration:    16.641
   Time for Sigma-Completion:    36.808
   Size of expansion space: 9
   Lowest Energy          :     0.046036539076
   Maximum Energy change  :     0.074074038075 (vector 2)
   Maximum residual norm  :     0.000607000162

                       ****Iteration    1****
   Time for densities:     6.955
   Time for K (COSX):   422.827
   Time for XC-Integration:     5.997
   Time for Sigma-Completion:    12.520
   Size of expansion space: 12
   Lowest Energy          :     0.042598466922
   Maximum Energy change  :     0.003830625762 (vector 2)
   Maximum residual norm  :     0.000042690124

                       ****Iteration    2****
   Time for densities:     6.957
   Time for K (COSX):   425.480
   Time for XC-Integration:     6.263
   Time for Sigma-Completion:    12.462
   Size of expansion space: 15
   Lowest Energy          :     0.042477996947
   Maximum Energy change  :     0.000417603075 (vector 2)
   Maximum residual norm  :     0.000006723327
   Rebuilding the expansion space

                       ****Iteration    3****
   Time for densities:    13.917
   Time for K (COSX):   424.353
   Time for XC-Integration:    12.244
   Time for Sigma-Completion:    24.661
   Size of expansion space: 6
   Lowest Energy          :     0.042474468209
   Maximum Energy change  :     0.000044994616 (vector 2)
   Maximum residual norm  :     0.000000712284

                       ****Iteration    4****
   Time for densities:     6.966
   Time for K (COSX):   428.261
   Time for XC-Integration:     6.147
   Time for Sigma-Completion:    12.569
   Size of expansion space: 9
   Lowest Energy          :     0.042474264672
   Maximum Energy change  :     0.000009974290 (vector 2)
   Maximum residual norm  :     0.000000158085

      *** CONVERGENCE OF RESIDUAL NORM REACHED ***

Storing the converged CI vectors               ... EH-IDTBR.cis3

                 *** DAVIDSON DONE ***

------------------------------------
TD-DFT/TDA EXCITED STATES (TRIPLETS)
------------------------------------

the weight of the individual excitations are printed if larger than 1.0e-02

STATE  1:  E=   0.042474 au      1.156 eV     9322.0 cm**-1
   319a -> 322a  :     0.100353 (c=  0.31678566)
   320a -> 321a  :     0.821492 (c= -0.90636176)
   320a -> 322a  :     0.025460 (c=  0.15956284)

STATE  2:  E=   0.048137 au      1.310 eV    10564.9 cm**-1
   319a -> 321a  :     0.263341 (c=  0.51316749)
   319a -> 322a  :     0.015074 (c=  0.12277707)
   320a -> 321a  :     0.022818 (c= -0.15105765)
   320a -> 322a  :     0.643420 (c= -0.80213445)

STATE  3:  E=   0.069771 au      1.899 eV    15312.9 cm**-1
   316a -> 322a  :     0.084198 (c= -0.29016855)
   317a -> 322a  :     0.016420 (c=  0.12813961)
   319a -> 321a  :     0.506766 (c=  0.71187510)
   319a -> 322a  :     0.030979 (c=  0.17600900)
   320a -> 322a  :     0.286278 (c=  0.53504920)

------------------------------
TD-DFT/TDA SPIN-ORBIT COUPLING
------------------------------

Calculating the spin-orbit integrals:             

Loading the effective charges         ... done
Entering the SOC calc. section        ... 
------------------------------------------------------------------------------
                         ORCA SPIN-ORBIT COUPLING CALCULATION
------------------------------------------------------------------------------

GBW file                                    ... EH-IDTBR.gbw
Input density                               ... EH-IDTBR.cisp0
Output integrals                            ... EH-IDTBR.cis
Operator type                               ... Mean-field/Effective potential
   One-Electron Terms                       ... 1
   Coulomb Contribution                     ... 2
   Exchange Contribution                    ... 3
   Correlation Contribution                 ... 0
   Maximum number of centers                ... 4
Setting up the integration grid             ... done
Evaluating density on the grid              ... (NumEl=  642.000336) done
Evaluating Coulomb term semi-analytically   ... done
One-Center Exchange (+SOO)                  ... done
Evaluating the spin-orbit operator          ... done
Transforming the SOC integrals              ... done
Constructing the SOC matrix:                ... done
Diagonalizing the SOC matrix:               ... done

      --------------------------------------------------------------------------------
                      CALCULATED SOCME BETWEEN TRIPLETS AND SINGLETS                  
      --------------------------------------------------------------------------------
           Root                          <T|HSO|S>  (Re, Im) cm-1                     
         T      S             Z                     X                     Y           
      --------------------------------------------------------------------------------
         1      0    (   0.00 ,    0.65 )    (   0.00 ,    0.91 )    (  -0.00 ,   -1.73 )
         1      1    (   0.00 ,    0.05 )    (   0.00 ,   -0.13 )    (  -0.00 ,    0.26 )
         1      2    (   0.00 ,   -0.16 )    (   0.00 ,   -0.31 )    (  -0.00 ,    1.05 )
         1      3    (   0.00 ,    5.67 )    (   0.00 ,    2.16 )    (  -0.00 ,   -0.24 )
         2      0    (   0.00 ,    1.58 )    (   0.00 ,   -0.47 )    (  -0.00 ,   -3.14 )
         2      1    (   0.00 ,    0.06 )    (   0.00 ,    0.02 )    (  -0.00 ,   -0.04 )
         2      2    (   0.00 ,    0.01 )    (   0.00 ,   -0.15 )    (  -0.00 ,    0.44 )
         2      3    (   0.00 ,    9.97 )    (   0.00 ,   -0.41 )    (  -0.00 ,   -0.10 )
         3      0    (   0.00 ,    3.52 )    (   0.00 ,   -1.00 )    (  -0.00 ,   -1.71 )
         3      1    (   0.00 ,   -0.55 )    (   0.00 ,   -0.31 )    (  -0.00 ,    0.73 )
         3      2    (   0.00 ,   -0.06 )    (   0.00 ,    0.10 )    (  -0.00 ,    0.07 )
         3      3    (   0.00 ,   11.23 )    (   0.00 ,   -0.23 )    (  -0.00 ,    0.25 )

SOC stabilization of the ground state:  -0.0027 cm-1
Eigenvalues of the SOC matrix:

   State:        cm-1         eV
     0:          0.00         0.0000
     1:       9322.02         1.1558
     2:       9322.03         1.1558
     3:       9322.03         1.1558
     4:      10564.89         1.3099
     5:      10564.90         1.3099
     6:      10564.90         1.3099
     7:      13690.47         1.6974
     8:      15312.89         1.8986
     9:      15312.93         1.8986
    10:      15312.93         1.8986
    11:      15459.44         1.9167
    12:      18620.92         2.3087

The threshold for printing is 0.0100
Eigenvectors of the SOC matrix:

             E(cm-1)  Weight      Real         Imag     : Root  Spin  Ms
 STATE  0:      0.00
                      1.00000     -0.86311     -0.50501 : 0     0     0
 STATE  1:   9322.02
                      0.88615      0.57339      0.74657 : 1     1     0
                      0.05693      0.15009      0.18547 : 1     1    -1
                      0.05693     -0.14048     -0.19285 : 1     1     1
 STATE  2:   9322.03
                      0.10455     -0.11327     -0.30286 : 1     1     0
                      0.44772      0.42599      0.51600 : 1     1    -1
                      0.44772     -0.01715     -0.66890 : 1     1     1
 STATE  3:   9322.03
                      0.49535     -0.44941     -0.54165 : 1     1    -1
                      0.49535     -0.06629     -0.70068 : 1     1     1
 STATE  4:  10564.89
                      0.99812     -0.94589     -0.32159 : 2     1     0
 STATE  5:  10564.90
                      0.49919      0.39489     -0.58588 : 2     1    -1
                      0.49919      0.01406      0.70639 : 2     1     1
 STATE  6:  10564.90
                      0.49987      0.40646     -0.57850 : 2     1    -1
                      0.49987     -0.00127     -0.70701 : 2     1     1
 STATE  7:  13690.47
                      1.00000      0.92151     -0.38835 : 1     0     0
 STATE  8:  15312.89
                      0.99825     -0.44302     -0.89553 : 3     1     0
 STATE  9:  15312.93
                      0.49995      0.64707     -0.28504 : 3     1    -1
                      0.49995     -0.70707      0.00000 : 3     1     1
 STATE 10:  15312.93
                      0.49919      0.64682     -0.28428 : 3     1    -1
                      0.49919      0.70653      0.00000 : 3     1     1
 STATE 11:  15459.44
                      1.00000      0.58682      0.80971 : 2     0     0
 STATE 12:  18620.92
                      0.99999     -0.73420      0.67892 : 3     0     0

-----------------------------
TD-DFT/TDA-EXCITATION SPECTRA
-----------------------------

Center of mass = (-20.2507, -7.3810,  6.6141)
Calculating the Dipole integrals                  ... done
Transforming integrals                            ... done
Calculating the Linear Momentum integrals         ... done
Transforming integrals                            ... done
Calculating angular momentum integrals            ... done
Transforming integrals                            ... done

-----------------------------------------------------------------------------
         ABSORPTION SPECTRUM VIA TRANSITION ELECTRIC DIPOLE MOMENTS
-----------------------------------------------------------------------------
State   Energy    Wavelength  fosc         T2        TX        TY        TZ  
        (cm-1)      (nm)                 (au**2)    (au)      (au)      (au) 
-----------------------------------------------------------------------------
   1   13690.5    730.4   2.372634906  57.05428   6.85410   1.76249  -2.63993
   2   15459.4    646.9   0.101732515   2.16642  -1.44290  -0.07906  -0.27966
   3   18620.9    537.0   0.116208540   2.05454  -0.95310   0.37577  -1.00246
   4    9322.0   1072.7   spin forbidden (mult=3)
   5   10564.9    946.5   spin forbidden (mult=3)
   6   15312.9    653.0   spin forbidden (mult=3)

-----------------------------------------------------------------------------
         ABSORPTION SPECTRUM VIA TRANSITION VELOCITY DIPOLE MOMENTS
-----------------------------------------------------------------------------
State   Energy    Wavelength   fosc        P2         PX        PY        PZ  
        (cm-1)      (nm)                 (au**2)     (au)      (au)      (au) 
-----------------------------------------------------------------------------
   1   13690.5    730.4   0.393083383   0.03678  -0.17164  -0.02609   0.08148
   2   15459.4    646.9   0.019340661   0.00204   0.03778  -0.00078  -0.02481
   3   18620.9    537.0   0.010065671   0.00128  -0.00425  -0.02759  -0.02240
   4    9322.0   1072.7   spin forbidden (mult=3)
   5   10564.9    946.5   spin forbidden (mult=3)
   6   15312.9    653.0   spin forbidden (mult=3)

-------------------------------------------------------------------
                             CD SPECTRUM
-------------------------------------------------------------------
State  Energy     Wavelength     R         MX        MY        MZ   
       (cm-1)       (nm)     (1e40*cgs)   (au)      (au)      (au)  
-------------------------------------------------------------------
   1   13690.5    730.4    -244.23559  -0.12554   0.58076   0.25802
   2   15459.4    646.9     58.13508  -0.07248  -0.01570  -0.06256
   3   18620.9    537.0     75.30510  -0.06021  -0.06971  -0.12823
   4    9322.0   1072.7 spin forbidden
   5   10564.9    946.5 spin forbidden
   6   15312.9    653.0 spin forbidden

-------------------------------------------
SOC CORRECTED TD-DFT/TDA-EXCITATION SPECTRA
--------------------------------------------

-----------------------------------------------------------------------------
  SOC CORRECTED ABSORPTION SPECTRUM VIA TRANSITION ELECTRIC DIPOLE MOMENTS*  
-----------------------------------------------------------------------------
State   Energy  Wavelength   fosc         T2         TX        TY        TZ  
        (cm-1)    (nm)                  (au**2)     (au)      (au)      (au) 
-----------------------------------------------------------------------------
   1    9322.0   1072.7   0.000000114   0.00000   0.00199   0.00015   0.00023
   2    9322.0   1072.7   0.000000020   0.00000   0.00077   0.00018   0.00029
   3    9322.0   1072.7   0.000000002   0.00000   0.00019   0.00014   0.00004
   4   10564.9    946.5   0.000000090   0.00000   0.00126   0.00036   0.00103
   5   10564.9    946.5   0.000000027   0.00000   0.00085   0.00019   0.00030
   6   10564.9    946.5   0.000000028   0.00000   0.00088   0.00007   0.00031
   7   13690.5    730.4   2.372635019  57.05427   6.85410   1.76249   2.63993
   8   15312.9    653.0   0.000000925   0.00002   0.00031   0.00175   0.00409
   9   15312.9    653.0   0.000000057   0.00000   0.00105   0.00001   0.00034
  10   15312.9    653.0   0.000000132   0.00000   0.00165   0.00027   0.00020
  11   15459.4    646.9   0.101732337   2.16641   1.44290   0.07906   0.27966
  12   18620.9    537.0   0.116209470   2.05455   0.95311   0.37576   1.00247

-----------------------------------------------------------------------------
  SOC CORRECTED ABSORPTION SPECTRUM VIA TRANSITION VELOCITY DIPOLE MOMENTS*  
-----------------------------------------------------------------------------
State   Energy  Wavelength   fosc         P2         PX        PY        PZ  
        (cm-1)    (nm)                  (au**2)     (au)      (au)      (au) 
-----------------------------------------------------------------------------
   1    9322.0   1072.7   0.000000043   0.00000   0.00004   0.00003   0.00000
   2    9322.0   1072.7   0.000000023   0.00000   0.00004   0.00001   0.00001
   3    9322.0   1072.7   0.000000000   0.00000   0.00000   0.00000   0.00000
   4   10564.9    946.5   0.000000032   0.00000   0.00002   0.00004   0.00001
   5   10564.9    946.5   0.000000001   0.00000   0.00001   0.00000   0.00000
   6   10564.9    946.5   0.000000005   0.00000   0.00002   0.00000   0.00001
   7   13690.5    730.4   0.393083271   0.03678   0.17164   0.02609   0.08148
   8   15312.9    653.0   0.000000150   0.00000   0.00006   0.00010   0.00005
   9   15312.9    653.0   0.000000005   0.00000   0.00002   0.00000   0.00001
  10   15312.9    653.0   0.000000017   0.00000   0.00004   0.00000   0.00002
  11   15459.4    646.9   0.019340630   0.00204   0.03778   0.00078   0.02481
  12   18620.9    537.0   0.010065503   0.00128   0.00425   0.02759   0.02240

-------------------------------------------------------------------
                    SOC CORRECTED CD SPECTRUM*                     
-------------------------------------------------------------------
State   Energy Wavelength       R         MX        MY        MZ   
        (cm-1)   (nm)       (1e40*sgs)   (au)      (au)      (au)  
-------------------------------------------------------------------
   1    9322.0   1072.7      0.00006   0.00006   0.00005   0.00006
   2    9322.0   1072.7      0.00000   0.00002   0.00008   0.00002
   3    9322.0   1072.7      0.00000   0.00001   0.00002   0.00000
   4   10564.9    946.5      0.00012   0.00009   0.00001   0.00013
   5   10564.9    946.5      0.00000   0.00000   0.00001   0.00000
   6   10564.9    946.5      0.00000   0.00001   0.00005   0.00001
   7   13690.5    730.4    244.23531   0.12554   0.58076   0.25802
   8   15312.9    653.0      0.00061   0.00020   0.00011   0.00035
   9   15312.9    653.0      0.00004   0.00007   0.00004   0.00002
  10   15312.9    653.0      0.00001   0.00000   0.00011   0.00010
  11   15459.4    646.9     58.13509   0.07248   0.01570   0.06256
  12   18620.9    537.0     75.30520   0.06021   0.06971   0.12823

*The X,Y and Z components are the absolute values of the complex numbers

Total run time:    13027.958 sec

           *** ORCA-CIS/TD-DFT FINISHED WITHOUT ERROR ***

---------------------------
SOC CIS/TD-DFT TOTAL ENERGY
---------------------------

    E(SCF)        =  -6145.601928974 Eh
    E(SOC CIS)    =      0.042474246 Eh (SOC Root  1)
    ----------------------------- ---------
    E(tot)        =  -6145.559454728 Eh


-------------------------   --------------------
FINAL SINGLE POINT ENERGY     -6145.559454728393
-------------------------   --------------------


                            ***************************************
                            *     ORCA property calculations      *
                            ***************************************

                                    ---------------------
                                    Active property flags
                                    ---------------------
   (+) Dipole Moment


------------------------------------------------------------------------------
                       ORCA ELECTRIC PROPERTIES CALCULATION
------------------------------------------------------------------------------

Dipole Moment Calculation                       ... on
Quadrupole Moment Calculation                   ... off
Polarizability Calculation                      ... off
GBWName                                         ... EH-IDTBR.gbw
Electron density file                           ... EH-IDTBR.scfp
The origin for moment calculation is the CENTER OF MASS  = (-20.250719, -7.380959  6.614074)

-------------
DIPOLE MOMENT
-------------
                                X             Y             Z
Electronic contribution:    -27.66704     -17.72883     -49.31525
Nuclear contribution   :     28.58301      18.06070      50.74845
                        -----------------------------------------
Total Dipole Moment    :      0.91597       0.33187       1.43320
                        -----------------------------------------
Magnitude (a.u.)       :      1.73298
Magnitude (Debye)      :      4.40487



--------------------
Rotational spectrum 
--------------------
 
Rotational constants in cm-1:     0.001275     0.000194     0.000189 
Rotational constants in MHz :    38.220476     5.817167     5.655027 

 Dipole components along the rotational axes: 
x,y,z [a.u.] :    -0.362235    -0.148028     1.688217 
x,y,z [Debye]:    -0.920728    -0.376257     4.291107 

 

Timings for individual modules:

Sum of individual times         ...    17175.762 sec (= 286.263 min)
GTO integral calculation        ...       14.542 sec (=   0.242 min)   0.1 %
SCF iterations                  ...     4130.609 sec (=  68.843 min)  24.0 %
CIS module                      ...    13030.611 sec (= 217.177 min)  75.9 %
                             ****ORCA TERMINATED NORMALLY****
TOTAL RUN TIME: 0 days 4 hours 46 minutes 21 seconds 747 msec
