
                                 *****************
                                 * O   R   C   A *
                                 *****************

           --- An Ab Initio, DFT and Semiempirical electronic structure package ---

                  #######################################################
                  #                        -***-                        #
                  #          Department of theory and spectroscopy      #
                  #               Directorship: Frank Neese             #
                  #        Max Planck Institute fuer Kohlenforschung    #
                  #                Kaiser Wilhelm Platz 1               #
                  #                 D-45470 Muelheim/Ruhr               #
                  #                      Germany                        #
                  #                                                     #
                  #                  All rights reserved                #
                  #                        -***-                        #
                  #######################################################


                         Program Version 4.2.0 -  RELEASE  -


 With contributions from (in alphabetic order):
   Daniel Aravena         : Magnetic Suceptibility
   Michael Atanasov       : Ab Initio Ligand Field Theory (pilot matlab implementation)
   Alexander A. Auer      : GIAO ZORA, VPT2
   Ute Becker             : Parallelization
   Giovanni Bistoni       : ED, misc. LED, open-shell LED, HFLED
   Martin Brehm           : Molecular dynamics
   Dmytro Bykov           : SCF Hessian
   Vijay G. Chilkuri      : MRCI spin determinant printing, contributions to CSF-ICE
   Dipayan Datta          : RHF DLPNO-CCSD density
   Achintya Kumar Dutta   : EOM-CC, STEOM-CC
   Dmitry Ganyushin       : Spin-Orbit,Spin-Spin,Magnetic field MRCI
   Miquel Garcia          : C-PCM Hessian, Gaussian charge scheme
   Yang Guo               : DLPNO-NEVPT2, CIM, IAO-localization
   Andreas Hansen         : Spin unrestricted coupled pair/coupled cluster methods
   Benjamin Helmich-Paris : CASSCF linear response (MC-RPA)
   Lee Huntington         : MR-EOM, pCC
   Robert Izsak           : Overlap fitted RIJCOSX, COSX-SCS-MP3, EOM
   Christian Kollmar      : KDIIS, OOCD, Brueckner-CCSD(T), CCSD density
   Simone Kossmann        : Meta GGA functionals, TD-DFT gradient, OOMP2, MP2 Hessian
   Martin Krupicka        : AUTO-CI
   Lucas Lang             : DCDCAS
   Dagmar Lenk            : GEPOL surface, SMD
   Dimitrios Liakos       : Extrapolation schemes; Compound Job, initial MDCI parallelization
   Dimitrios Manganas     : Further ROCIS development; embedding schemes
   Dimitrios Pantazis     : SARC Basis sets
   Taras Petrenko         : DFT Hessian,TD-DFT gradient, ASA, ECA, R-Raman, ABS, FL, XAS/XES, NRVS
   Peter Pinski           : DLPNO-MP2, DLPNO-MP2 Gradient
   Christoph Reimann      : Effective Core Potentials
   Marius Retegan         : Local ZFS, SOC
   Christoph Riplinger    : Optimizer, TS searches, QM/MM, DLPNO-CCSD(T), (RO)-DLPNO pert. Triples
   Tobias Risthaus        : Range-separated hybrids, TD-DFT gradient, RPA, STAB
   Michael Roemelt        : Original ROCIS implementation
   Masaaki Saitow         : Open-shell DLPNO-CCSD energy and density
   Barbara Sandhoefer     : DKH picture change effects
   Avijit Sen             : IP-ROCIS
   Kantharuban Sivalingam : CASSCF convergence, NEVPT2, FIC-MRCI
   Bernardo de Souza      : ESD, SOC TD-DFT
   Georgi Stoychev        : AutoAux, RI-MP2 NMR
   Willem Van den Heuvel  : Paramagnetic NMR
   Boris Wezisla          : Elementary symmetry handling
   Frank Wennmohs         : Technical directorship


 We gratefully acknowledge several colleagues who have allowed us to
 interface, adapt or use parts of their codes:
   Stefan Grimme, W. Hujo, H. Kruse,             : VdW corrections, initial TS optimization,
                  C. Bannwarth                     DFT functionals, gCP, sTDA/sTD-DF
   Ed Valeev, F. Pavosevic, A. Kumar             : LibInt (2-el integral package), F12 methods
   Garnet Chan, S. Sharma, J. Yang, R. Olivares  : DMRG
   Ulf Ekstrom                                   : XCFun DFT Library
   Mihaly Kallay                                 : mrcc  (arbitrary order and MRCC methods)
   Andreas Klamt, Michael Diedenhofen            : otool_cosmo (COSMO solvation model)
   Jiri Pittner, Ondrej Demel                    : Mk-CCSD
   Frank Weinhold                                : gennbo (NPA and NBO analysis)
   Christopher J. Cramer and Donald G. Truhlar   : smd solvation model
   Lars Goerigk                                  : TD-DFT with DH, B97 family of functionals
   V. Asgeirsson, H. Jonsson                     : NEB implementation
   FAccTs GmbH                                   : IRC, NEB, NEB-TS, Multilevel, MM, QM/MM, CI optimization
   S Lehtola, MJT Oliveira, MAL Marques          : LibXC Library


 Your calculation uses the libint2 library for the computation of 2-el integrals
 For citations please refer to: http://libint.valeyev.net

 Your ORCA version has been built with support for libXC version: 4.2.3
 For citations please refer to: https://tddft.org/programs/libxc/

 This ORCA versions uses:
   CBLAS   interface :  Fast vector & matrix operations
   LAPACKE interface :  Fast linear algebra routines
   SCALAPACK package :  Parallel linear algebra routines


----- Orbital basis set information -----
Your calculation utilizes the basis: def2-TZVP
   F. Weigend and R. Ahlrichs, Phys. Chem. Chem. Phys. 7, 3297 (2005).

----- AuxJ basis set information -----
Your calculation utilizes the auxiliary basis: def2/J
   F. Weigend, Phys. Chem. Chem. Phys. 8, 1057 (2006).

================================================================================
                                        WARNINGS
                       Please study these warnings very carefully!
================================================================================

INFO   : Checking CIS options ...

WARNING: (CIS/TDDFT): Spin-orbit needs TRIPLETS set to TRUE
  ===> : ajusting flags

WARNING: CIS/ROCIS methods need fully converged wavefunctions
  ===> : Setting SCFConvForced true
         You can overwrite this default with %scf ConvForced false 


INFO   : the flag for use of LIBINT has been found!

================================================================================
                                       INPUT FILE
================================================================================
NAME = FDICTF.inp
|  1> # ORCA input file
|  2> # FDICTF.out: Geometry 32
|  3> ! B3LYP def2-TZVP def2/J RIJCOSX Grid4 TightSCF
|  4> 
|  5> %maxcore 6000
|  6> %tddft
|  7>   maxdim 5
|  8>   nroots 3
|  9>   dosoc true
| 10>   end
| 11> %pal
| 12>   nprocs 6
| 13>   end
| 14> 
| 15> 
| 16> * xyz 0 1
| 17>    C        0.11292        -1.35880         0.97510
| 18>    O        0.66676        -1.74807         1.98245
| 19>    C        0.09486         0.02634         0.43875
| 20>    C        0.67159         1.16585         0.98525
| 21>    C        0.46650         2.38536         0.33084
| 22>    C       -0.30174         2.43556        -0.84065
| 23>    C       -0.86213         1.28146        -1.40256
| 24>    C       -0.65740         0.05803        -0.75454
| 25>    C       -1.06983        -1.32988        -1.09519
| 26>    C       -1.46891        -1.74451        -2.35758
| 27>    C       -1.53834        -3.11750        -2.73930
| 28>    N       -1.60343        -4.22873        -3.07537
| 29>    C       -1.76301        -0.82447        -3.41254
| 30>    N       -2.03664        -0.08402        -4.26595
| 31>    C       -0.76482        -2.16248         0.05678
| 32>    C       -1.20959        -3.37790         0.52969
| 33>    C       -2.32565        -4.17594         0.18121
| 34>    C       -3.42699        -3.89711        -0.64411
| 35>    C       -4.37907        -4.91588        -0.63337
| 36>    C       -4.04182        -5.97780         0.20535
| 37>    S       -2.52778        -5.74654         0.98241
| 38>    C       -5.08405        -6.97750         0.19572
| 39>    C       -6.09838        -6.51584        -0.70018
| 40>    C       -5.70111        -5.17322        -1.33861
| 41>    C       -6.64851        -3.98855        -0.99422
| 42>    C       -8.09644        -4.01248        -1.48048
| 43>    C       -5.37651        -5.31830        -2.85794
| 44>    C       -6.44452        -5.88856        -3.78948
| 45>    C       -7.23010        -7.29839        -0.90674
| 46>    C       -7.34561        -8.51328        -0.20939
| 47>    C       -6.34900        -8.94743         0.70120
| 48>    C       -5.20037        -8.18900         0.89477
| 49>    C       -6.73039       -10.29129         1.31775
| 50>    C       -5.65655       -11.37507         1.05370
| 51>    C       -5.36555       -11.64065        -0.42203
| 52>    C       -7.05234       -10.17427         2.83597
| 53>    C       -5.88962        -9.85476         3.76962
| 54>    C       -8.03436       -10.59525         0.58886
| 55>    C       -8.38457        -9.53887        -0.28543
| 56>    C       -9.54638        -9.59699        -1.07418
| 57>    C      -10.34546       -10.73139        -0.98751
| 58>    C      -10.00611       -11.77066        -0.07148
| 59>    C       -8.84797       -11.71291         0.71744
| 60>    C      -11.04641       -12.76670        -0.16731
| 61>    C      -12.00555       -12.39887        -1.11453
| 62>    C      -11.63545       -11.06707        -1.75216
| 63>    C      -11.35582       -11.31474        -3.26291
| 64>    C      -10.92192       -10.10450        -4.08487
| 65>    C      -12.69508        -9.96412        -1.49772
| 66>    C      -14.08423       -10.22356        -2.07702
| 67>    C      -13.00733       -13.36492        -1.25805
| 68>    C      -12.82229       -14.48027        -0.41799
| 69>    S      -11.36798       -14.28337         0.56717
| 70>    C      -13.77208       -15.52588        -0.28958
| 71>    C      -13.84466       -16.69625         0.42938
| 72>    C      -12.89737       -17.52414         1.16066
| 73>    C      -11.55816       -17.70788         0.86074
| 74>    C      -10.70305       -18.54625         1.64122
| 75>    N       -9.99779       -19.20981         2.28394
| 76>    C      -10.96493       -17.19164        -0.33110
| 77>    N      -10.47521       -16.81778        -1.31648
| 78>    C      -13.67907       -18.35236         2.11699
| 79>    C      -13.29053       -19.22058         3.14497
| 80>    C      -14.28534       -19.91886         3.84157
| 81>    C      -15.64348       -19.77486         3.52369
| 82>    C      -16.03779       -18.91174         2.49555
| 83>    C      -15.05077       -18.21214         1.81364
| 84>    C      -15.21949       -17.23692         0.70564
| 85>    O      -16.25758       -16.90713         0.16959
| 86>    H        1.25587         1.09028         1.90428
| 87>    H        0.90126         3.30180         0.73596
| 88>    H       -0.47081         3.39497        -1.33497
| 89>    H       -1.44366         1.35562        -2.31848
| 90>    H       -0.64176        -3.70717         1.41023
| 91>    H       -3.53108        -2.96100        -1.18689
| 92>    H       -6.15875        -3.07731        -1.37982
| 93>    H       -6.64613        -3.88920         0.10380
| 94>    H       -8.17879        -3.92478        -2.57268
| 95>    H       -8.64592        -3.16448        -1.04351
| 96>    H       -8.62080        -4.92707        -1.16835
| 97>    H       -4.47624        -5.94792        -2.93722
| 98>    H       -5.06378        -4.32306        -3.21615
| 99>    H       -6.71843        -6.91848        -3.51687
|100>    H       -6.04520        -5.91991        -4.81560
|101>    H       -7.36476        -5.29154        -3.81366
|102>    H       -8.00999        -6.99197        -1.60291
|103>    H       -4.39958        -8.51866         1.55871
|104>    H       -5.98416       -12.30593         1.54899
|105>    H       -4.72668       -11.07265         1.56168
|106>    H       -6.26182       -11.99683        -0.95212
|107>    H       -4.58370       -12.40670        -0.53918
|108>    H       -5.01591       -10.72837        -0.92978
|109>    H       -7.50965       -11.12927         3.14606
|110>    H       -7.83870        -9.41077         2.95508
|111>    H       -5.08062       -10.59692         3.69799
|112>    H       -6.24411        -9.85221         4.81263
|113>    H       -5.45767        -8.86271         3.56816
|114>    H       -9.80545        -8.77001        -1.73678
|115>    H       -8.59814       -12.52730         1.40145
|116>    H      -12.26546       -11.75134        -3.70627
|117>    H      -10.58713       -12.10165        -3.33328
|118>    H      -11.65742        -9.28608        -4.04736
|119>    H      -10.80063       -10.39464        -5.14017
|120>    H       -9.95513        -9.70450        -3.74594
|121>    H      -12.29932        -9.01572        -1.89499
|122>    H      -12.77473        -9.82257        -0.40765
|123>    H      -14.74886        -9.36940        -1.87305
|124>    H      -14.55115       -11.10935        -1.62152
|125>    H      -14.06272       -10.37303        -3.16824
|126>    H      -13.85969       -13.30254        -1.93525
|127>    H      -14.72318       -15.29824        -0.78962
|128>    H      -12.24651       -19.35914         3.42001
|129>    H      -13.99025       -20.58921         4.65233
|130>    H      -16.39218       -20.33822         4.08436
|131>    H      -17.08474       -18.77550         2.21518
|132> *
|133> 
|134>                          ****END OF INPUT****
================================================================================

                       ****************************
                       * Single Point Calculation *
                       ****************************

---------------------------------
CARTESIAN COORDINATES (ANGSTROEM)
---------------------------------
  C      0.112920   -1.358800    0.975100
  O      0.666760   -1.748070    1.982450
  C      0.094860    0.026340    0.438750
  C      0.671590    1.165850    0.985250
  C      0.466500    2.385360    0.330840
  C     -0.301740    2.435560   -0.840650
  C     -0.862130    1.281460   -1.402560
  C     -0.657400    0.058030   -0.754540
  C     -1.069830   -1.329880   -1.095190
  C     -1.468910   -1.744510   -2.357580
  C     -1.538340   -3.117500   -2.739300
  N     -1.603430   -4.228730   -3.075370
  C     -1.763010   -0.824470   -3.412540
  N     -2.036640   -0.084020   -4.265950
  C     -0.764820   -2.162480    0.056780
  C     -1.209590   -3.377900    0.529690
  C     -2.325650   -4.175940    0.181210
  C     -3.426990   -3.897110   -0.644110
  C     -4.379070   -4.915880   -0.633370
  C     -4.041820   -5.977800    0.205350
  S     -2.527780   -5.746540    0.982410
  C     -5.084050   -6.977500    0.195720
  C     -6.098380   -6.515840   -0.700180
  C     -5.701110   -5.173220   -1.338610
  C     -6.648510   -3.988550   -0.994220
  C     -8.096440   -4.012480   -1.480480
  C     -5.376510   -5.318300   -2.857940
  C     -6.444520   -5.888560   -3.789480
  C     -7.230100   -7.298390   -0.906740
  C     -7.345610   -8.513280   -0.209390
  C     -6.349000   -8.947430    0.701200
  C     -5.200370   -8.189000    0.894770
  C     -6.730390  -10.291290    1.317750
  C     -5.656550  -11.375070    1.053700
  C     -5.365550  -11.640650   -0.422030
  C     -7.052340  -10.174270    2.835970
  C     -5.889620   -9.854760    3.769620
  C     -8.034360  -10.595250    0.588860
  C     -8.384570   -9.538870   -0.285430
  C     -9.546380   -9.596990   -1.074180
  C    -10.345460  -10.731390   -0.987510
  C    -10.006110  -11.770660   -0.071480
  C     -8.847970  -11.712910    0.717440
  C    -11.046410  -12.766700   -0.167310
  C    -12.005550  -12.398870   -1.114530
  C    -11.635450  -11.067070   -1.752160
  C    -11.355820  -11.314740   -3.262910
  C    -10.921920  -10.104500   -4.084870
  C    -12.695080   -9.964120   -1.497720
  C    -14.084230  -10.223560   -2.077020
  C    -13.007330  -13.364920   -1.258050
  C    -12.822290  -14.480270   -0.417990
  S    -11.367980  -14.283370    0.567170
  C    -13.772080  -15.525880   -0.289580
  C    -13.844660  -16.696250    0.429380
  C    -12.897370  -17.524140    1.160660
  C    -11.558160  -17.707880    0.860740
  C    -10.703050  -18.546250    1.641220
  N     -9.997790  -19.209810    2.283940
  C    -10.964930  -17.191640   -0.331100
  N    -10.475210  -16.817780   -1.316480
  C    -13.679070  -18.352360    2.116990
  C    -13.290530  -19.220580    3.144970
  C    -14.285340  -19.918860    3.841570
  C    -15.643480  -19.774860    3.523690
  C    -16.037790  -18.911740    2.495550
  C    -15.050770  -18.212140    1.813640
  C    -15.219490  -17.236920    0.705640
  O    -16.257580  -16.907130    0.169590
  H      1.255870    1.090280    1.904280
  H      0.901260    3.301800    0.735960
  H     -0.470810    3.394970   -1.334970
  H     -1.443660    1.355620   -2.318480
  H     -0.641760   -3.707170    1.410230
  H     -3.531080   -2.961000   -1.186890
  H     -6.158750   -3.077310   -1.379820
  H     -6.646130   -3.889200    0.103800
  H     -8.178790   -3.924780   -2.572680
  H     -8.645920   -3.164480   -1.043510
  H     -8.620800   -4.927070   -1.168350
  H     -4.476240   -5.947920   -2.937220
  H     -5.063780   -4.323060   -3.216150
  H     -6.718430   -6.918480   -3.516870
  H     -6.045200   -5.919910   -4.815600
  H     -7.364760   -5.291540   -3.813660
  H     -8.009990   -6.991970   -1.602910
  H     -4.399580   -8.518660    1.558710
  H     -5.984160  -12.305930    1.548990
  H     -4.726680  -11.072650    1.561680
  H     -6.261820  -11.996830   -0.952120
  H     -4.583700  -12.406700   -0.539180
  H     -5.015910  -10.728370   -0.929780
  H     -7.509650  -11.129270    3.146060
  H     -7.838700   -9.410770    2.955080
  H     -5.080620  -10.596920    3.697990
  H     -6.244110   -9.852210    4.812630
  H     -5.457670   -8.862710    3.568160
  H     -9.805450   -8.770010   -1.736780
  H     -8.598140  -12.527300    1.401450
  H    -12.265460  -11.751340   -3.706270
  H    -10.587130  -12.101650   -3.333280
  H    -11.657420   -9.286080   -4.047360
  H    -10.800630  -10.394640   -5.140170
  H     -9.955130   -9.704500   -3.745940
  H    -12.299320   -9.015720   -1.894990
  H    -12.774730   -9.822570   -0.407650
  H    -14.748860   -9.369400   -1.873050
  H    -14.551150  -11.109350   -1.621520
  H    -14.062720  -10.373030   -3.168240
  H    -13.859690  -13.302540   -1.935250
  H    -14.723180  -15.298240   -0.789620
  H    -12.246510  -19.359140    3.420010
  H    -13.990250  -20.589210    4.652330
  H    -16.392180  -20.338220    4.084360
  H    -17.084740  -18.775500    2.215180

----------------------------
CARTESIAN COORDINATES (A.U.)
----------------------------
  NO LB      ZA    FRAG     MASS         X           Y           Z
   0 C     6.0000    0    12.011    0.213388   -2.567760    1.842672
   1 O     8.0000    0    15.999    1.259994   -3.303374    3.746288
   2 C     6.0000    0    12.011    0.179259    0.049775    0.829117
   3 C     6.0000    0    12.011    1.269121    2.203137    1.861853
   4 C     6.0000    0    12.011    0.881557    4.507677    0.625197
   5 C     6.0000    0    12.011   -0.570206    4.602541   -1.588598
   6 C     6.0000    0    12.011   -1.629190    2.421608   -2.650454
   7 C     6.0000    0    12.011   -1.242306    0.109661   -1.425874
   8 C     6.0000    0    12.011   -2.021686   -2.513109   -2.069609
   9 C     6.0000    0    12.011   -2.775838   -3.296646   -4.455181
  10 C     6.0000    0    12.011   -2.907041   -5.891221   -5.176527
  11 N     7.0000    0    14.007   -3.030044   -7.991142   -5.811607
  12 C     6.0000    0    12.011   -3.331606   -1.558023   -6.448766
  13 N     7.0000    0    14.007   -3.848692   -0.158775   -8.061477
  14 C     6.0000    0    12.011   -1.445300   -4.086495    0.107299
  15 C     6.0000    0    12.011   -2.285794   -6.383306    1.000969
  16 C     6.0000    0    12.011   -4.394842   -7.891383    0.342437
  17 C     6.0000    0    12.011   -6.476073   -7.364471   -1.217192
  18 C     6.0000    0    12.011   -8.275243   -9.289667   -1.196896
  19 C     6.0000    0    12.011   -7.637933  -11.296405    0.388055
  20 S    16.0000    0    32.060   -4.776812  -10.859387    1.856486
  21 C     6.0000    0    12.011   -9.607462  -13.185564    0.369857
  22 C     6.0000    0    12.011  -11.524268  -12.313153   -1.323148
  23 C     6.0000    0    12.011  -10.773537   -9.775969   -2.529606
  24 C     6.0000    0    12.011  -12.563863   -7.537267   -1.878804
  25 C     6.0000    0    12.011  -15.300054   -7.582488   -2.797702
  26 C     6.0000    0    12.011  -10.160131  -10.050130   -5.400724
  27 C     6.0000    0    12.011  -12.178378  -11.127766   -7.161079
  28 C     6.0000    0    12.011  -13.662909  -13.791958   -1.713490
  29 C     6.0000    0    12.011  -13.881191  -16.087768   -0.395690
  30 C     6.0000    0    12.011  -11.997871  -16.908192    1.325076
  31 C     6.0000    0    12.011   -9.827275  -15.474967    1.690870
  32 C     6.0000    0    12.011  -12.718594  -19.447720    2.490187
  33 C     6.0000    0    12.011  -10.689330  -21.495767    1.991204
  34 C     6.0000    0    12.011  -10.139420  -21.997641   -0.797521
  35 C     6.0000    0    12.011  -13.326991  -19.226584    5.359207
  36 C     6.0000    0    12.011  -11.129769  -18.622798    7.123549
  37 C     6.0000    0    12.011  -15.182740  -20.022121    1.112784
  38 C     6.0000    0    12.011  -15.844541  -18.025852   -0.539385
  39 C     6.0000    0    12.011  -18.040044  -18.135683   -2.029906
  40 C     6.0000    0    12.011  -19.550086  -20.279388   -1.866123
  41 C     6.0000    0    12.011  -18.908808  -22.243324   -0.135078
  42 C     6.0000    0    12.011  -16.720240  -22.134192    1.355765
  43 C     6.0000    0    12.011  -20.874690  -24.125567   -0.316170
  44 C     6.0000    0    12.011  -22.687202  -23.430469   -2.106156
  45 C     6.0000    0    12.011  -21.987814  -20.913731   -3.311103
  46 C     6.0000    0    12.011  -21.459390  -21.381760   -6.166006
  47 C     6.0000    0    12.011  -20.639438  -19.094738   -7.719286
  48 C     6.0000    0    12.011  -23.990224  -18.829458   -2.830281
  49 C     6.0000    0    12.011  -26.615338  -19.319729   -3.924999
  50 C     6.0000    0    12.011  -24.580291  -25.256039   -2.377370
  51 C     6.0000    0    12.011  -24.230617  -27.363745   -0.789887
  52 S    16.0000    0    32.060  -21.482369  -26.991658    1.071796
  53 C     6.0000    0    12.011  -26.025459  -29.339661   -0.547227
  54 C     6.0000    0    12.011  -26.162616  -31.551340    0.811411
  55 C     6.0000    0    12.011  -24.372497  -33.115825    2.193330
  56 C     6.0000    0    12.011  -21.841757  -33.463044    1.626563
  57 C     6.0000    0    12.011  -20.225833  -35.047333    3.101456
  58 N     7.0000    0    14.007  -18.893085  -36.301280    4.316021
  59 C     6.0000    0    12.011  -20.720715  -32.487491   -0.625688
  60 N     7.0000    0    14.007  -19.795278  -31.780998   -2.487787
  61 C     6.0000    0    12.011  -25.849696  -34.680934    4.000531
  62 C     6.0000    0    12.011  -25.115462  -36.321632    5.943132
  63 C     6.0000    0    12.011  -26.995380  -37.641190    7.259515
  64 C     6.0000    0    12.011  -29.561893  -37.369070    6.658809
  65 C     6.0000    0    12.011  -30.307031  -35.738009    4.715906
  66 C     6.0000    0    12.011  -28.441833  -34.415957    3.427283
  67 C     6.0000    0    12.011  -28.760668  -32.573058    1.333466
  68 O     8.0000    0    15.999  -30.722374  -31.949845    0.320479
  69 H     1.0000    0     1.008    2.373250    2.060331    3.598568
  70 H     1.0000    0     1.008    1.703135    6.239498    1.390763
  71 H     1.0000    0     1.008   -0.889702    6.415564   -2.522728
  72 H     1.0000    0     1.008   -2.728122    2.561751   -4.381292
  73 H     1.0000    0     1.008   -1.212751   -7.005536    2.664948
  74 H     1.0000    0     1.008   -6.672774   -5.595479   -2.242897
  75 H     1.0000    0     1.008  -11.638351   -5.815273   -2.607482
  76 H     1.0000    0     1.008  -12.559366   -7.349523    0.196154
  77 H     1.0000    0     1.008  -15.455673   -7.416759   -4.861661
  78 H     1.0000    0     1.008  -16.338421   -5.980001   -1.971948
  79 H     1.0000    0     1.008  -16.290951   -9.310813   -2.207862
  80 H     1.0000    0     1.008   -8.458868  -11.239940   -5.550541
  81 H     1.0000    0     1.008   -9.569157   -8.169399   -6.077643
  82 H     1.0000    0     1.008  -12.695993  -13.074032   -6.645921
  83 H     1.0000    0     1.008  -11.423772  -11.187009   -9.100165
  84 H     1.0000    0     1.008  -13.917379   -9.999561   -7.206773
  85 H     1.0000    0     1.008  -15.136687  -13.212908   -3.029061
  86 H     1.0000    0     1.008   -8.314001  -16.097934    2.945535
  87 H     1.0000    0     1.008  -11.308424  -23.254838    2.927167
  88 H     1.0000    0     1.008   -8.932131  -20.924276    2.951148
  89 H     1.0000    0     1.008  -11.833125  -22.670723   -1.799246
  90 H     1.0000    0     1.008   -8.661938  -23.445265   -1.018903
  91 H     1.0000    0     1.008   -9.478696  -20.273681   -1.757030
  92 H     1.0000    0     1.008  -14.191182  -21.031272    5.945192
  93 H     1.0000    0     1.008  -14.812996  -17.783778    5.584292
  94 H     1.0000    0     1.008   -9.600980  -20.025277    6.988188
  95 H     1.0000    0     1.008  -11.799658  -18.617979    9.094553
  96 H     1.0000    0     1.008  -10.313502  -16.748095    6.742845
  97 H     1.0000    0     1.008  -18.529615  -16.572917   -3.282039
  98 H     1.0000    0     1.008  -16.248130  -23.673166    2.648357
  99 H     1.0000    0     1.008  -23.178360  -22.206814   -7.003835
 100 H     1.0000    0     1.008  -20.006776  -22.868804   -6.298986
 101 H     1.0000    0     1.008  -22.029331  -17.548148   -7.648402
 102 H     1.0000    0     1.008  -20.410233  -19.643023   -9.713514
 103 H     1.0000    0     1.008  -18.812469  -18.338847   -7.078801
 104 H     1.0000    0     1.008  -23.242346  -17.037242   -3.581012
 105 H     1.0000    0     1.008  -24.140741  -18.561967   -0.770347
 106 H     1.0000    0     1.008  -27.871306  -17.705600   -3.539552
 107 H     1.0000    0     1.008  -27.497688  -20.993629   -3.064229
 108 H     1.0000    0     1.008  -26.574689  -19.602186   -5.987106
 109 H     1.0000    0     1.008  -26.191018  -25.138157   -3.657093
 110 H     1.0000    0     1.008  -27.822778  -28.909484   -1.492166
 111 H     1.0000    0     1.008  -23.142550  -36.583473    6.462882
 112 H     1.0000    0     1.008  -26.437741  -38.907968    8.791630
 113 H     1.0000    0     1.008  -30.976731  -38.433666    7.718322
 114 H     1.0000    0     1.008  -32.285480  -35.480553    4.186084

--------------------------------
INTERNAL COORDINATES (ANGSTROEM)
--------------------------------
 C      0   0   0     0.000000000000     0.00000000     0.00000000
 O      1   0   0     1.213681960400     0.00000000     0.00000000
 C      1   2   0     1.485466359666   127.17870007     0.00000000
 C      3   1   2     1.389159020055   128.15527821   358.21576697
 C      4   3   1     1.399113646671   118.04228860   183.13391968
 C      5   4   3     1.401820800852   120.16066952     0.00000000
 C      6   5   4     1.400616510755   121.67023624   358.82651730
 C      7   6   5     1.399508934662   118.42645910     0.97981229
 C      8   7   6     1.487425660495   131.99703062   181.99710840
 C      9   8   7     1.387375722506   124.54207560    18.20445816
 C     10   9   8     1.426755838747   123.02715568   163.94026360
 N     11  10   9     1.162760450781   178.64522365   180.08720065
 C     10   9   8     1.430352758308   122.54886983   348.06696433
 N     13  10   9     1.162518046096   178.24579757   252.97206243
 C      9   8   7     1.453715495205   107.14321057   189.17566020
 C     15   9   8     1.377936862632   135.18848889   158.09250167
 C     16  15   9     1.415590362923   131.85557248   346.75856759
 C     17  16  15     1.404225433077   130.62419965   350.86211978
 C     18  17  16     1.394440384850   112.69969077   185.46874765
 C     19  18  17     1.394583409947   113.31822993     0.84623950
 S     20  19  18     1.717445938829   112.50499155   359.22546915
 C     20  19  18     1.444207810462   110.39953224   178.48989267
 C     22  20  19     1.429906330673   107.01449702     0.68126313
 C     19  18  17     1.520321378788   135.54608326   182.26856156
 C     24  19  18     1.555510926030   107.33820109   301.73066663
 C     25  24  19     1.527587220881   119.66276385   184.36663290
 C     24  19  18     1.560377202890   106.64944566    64.75882143
 C     27  24  19     1.527615330932   118.88338824   166.47099449
 C     23  22  20     1.391345282272   119.23725550   179.68312767
 C     29  23  22     1.405559424108   118.64185028     0.87305007
 C     30  29  23     1.418059188715   121.69910601     0.62874913
 C     31  30  29     1.389977081358   120.20804723   357.97473403
 C     31  30  29     1.526942020576   110.68266044   179.79759871
 C     33  31  30     1.548364891264   111.95891970   122.02561638
 C     34  33  31     1.527413751837   114.74617306   301.58903398
 C     33  31  30     1.556386022586   112.29496396   248.01874997
 C     36  33  31     1.525026806650   117.08068848   291.38082076
 C     33  31  30     1.524470424311   101.30714270     2.69894451
 C     38  33  31     1.415262785704   110.98973279   357.70240860
 C     39  38  33     1.405456144104   121.35755480   179.56028856
 C     40  39  38     1.390289140898   118.28620297   359.32839215
 C     41  40  39     1.426306950239   119.85606917     2.68549246
 C     38  33  31     1.388401211502   128.13174385   178.86411633
 C     42  41  40     1.443434501631   106.77943233   177.28772774
 C     44  42  41     1.397309620986   110.98146392     0.78092064
 C     45  44  42     1.522247439446   110.32655005     0.54212548
 C     46  45  44     1.556245137599   108.12428294   115.57893907
 C     47  46  45     1.525964714271   116.60108536   181.85038944
 C     46  45  44     1.550501258626   112.79654611   241.64807803
 C     49  46  45     1.527296738064   116.00922286   297.36081419
 C     45  44  42     1.399076038427   112.28844375   178.24378102
 C     51  45  44     1.408526260920   113.04929892     0.09800561
 S     44  42  41     1.715562888442   135.78408498   179.31454637
 C     52  51  45     1.418411239486   123.35038993   173.66433026
 C     54  52  51     1.375477108097   135.22672259   179.73299590
 C     55  54  52     1.455173747221   135.43192346   344.71196159
 C     56  55  54     1.384628404338   126.60328408   327.69101438
 C     57  56  55     1.429414705185   122.55852875   180.07437633
 N     58  57  56     1.162236008563   178.90486218   252.57279763
 C     57  56  55     1.427903412735   122.32008906   353.09314520
 N     60  57  56     1.162140577727   177.57089048   246.33650985
 C     56  55  54     1.487134939170   107.32752284   159.03549804
 C     62  56  55     1.400539960301   132.17732832   186.99813036
 C     63  62  56     1.400890236421   118.48807955   183.09665035
 C     64  63  62     1.402258162394   121.59249026     0.58624362
 C     65  64  63     1.399116996573   120.19175858   359.57062848
 C     66  65  64     1.388758398174   118.11848887   359.89286827
 C     67  66  65     1.485659613370   128.03679044   180.69570207
 O     68  67  66     1.213977715899   127.21110357   357.58117340
 H      4   3   1     1.091654745879   119.77635407     2.56972045
 H      5   4   3     1.092245734988   119.96711482   179.68867236
 H      6   5   4     1.092430535732   119.63103388   178.94003508
 H      7   6   5     1.087467835340   119.71361916   180.67274131
 H     16  15   9     1.098271520800   111.88380739   174.61012216
 H     18  17  16     1.087081776409   122.65273853     2.66928110
 H     25  24  19     1.104042823083   106.32503305    60.77895857
 H     25  24  19     1.102508053168   106.72708693   308.16474678
 H     26  25  24     1.098805557185   112.71776244   292.34732147
 H     26  25  24     1.100897384546   109.55300538   173.08383757
 H     26  25  24     1.099478701294   112.00647645    54.69156890
 H     27  24  19     1.101450287439   107.05343464    43.47989658
 H     27  24  19     1.103003678416   106.93597465   291.24391499
 H     28  27  24     1.100035502427   111.86815833   298.35757883
 H     28  27  24     1.101526912654   108.97965929   180.09021919
 H     28  27  24     1.097205181541   113.37135972    60.54683475
 H     29  23  22     1.089391709809   121.26388511   181.72632803
 H     32  31  30     1.091217972405   121.75718892   182.48787344
 H     34  33  31     1.104147107862   107.92823263   178.46380869
 H     34  33  31     1.101889174872   108.33296492    64.15418889
 H     35  34  33     1.100526925341   111.49910403   298.99150773
 H     35  34  33     1.100838838114   111.04653613   179.03914996
 H     35  34  33     1.101050857363   111.22185401    59.27005293
 H     36  33  31     1.103319194159   107.14672908   168.69051601
 H     36  33  31     1.102488771689   107.75815098    55.15773527
 H     37  36  33     1.100187857822   112.29918734   302.20859429
 H     37  36  33     1.101607699093   109.56003971   182.89274386
 H     37  36  33     1.100604441478   112.08672151    63.88576557
 H     40  39  38     1.090895020293   120.38692644   179.50175883
 H     43  38  33     1.092481478607   121.60504530   359.81216552
 H     47  46  45     1.102103706191   107.77421001    58.43741888
 H     47  46  45     1.102299233920   107.51082709   305.15633247
 H     48  47  46     1.100989803086   112.41084274   302.33426251
 H     48  47  46     1.101158741372   109.78955601   182.62030599
 H     48  47  46     1.099798367429   111.86435801    63.84016274
 H     49  46  45     1.101776742584   107.91896345   173.93227383
 H     49  46  45     1.102103956031   107.64171458    60.17578599
 H     50  49  46     1.101329243869   110.29790384   182.00348616
 H     50  49  46     1.100053844364   111.45595896    63.35014677
 H     50  49  46     1.101619285143   112.39598130   301.93194530
 H     51  45  44     1.090416743268   125.72638001   180.05192311
 H     54  52  51     1.098385716040   112.69542663   351.16365044
 H     63  62  56     1.088496042988   122.03666826     3.63628634
 H     64  63  62     1.092601944077   118.88244822   180.69173279
 H     65  64  63     1.091914386983   119.65134525   179.71082831
 H     66  65  64     1.092370347913   122.38849890   179.73148891

---------------------------
INTERNAL COORDINATES (A.U.)
---------------------------
 C      0   0   0     0.000000000000     0.00000000     0.00000000
 O      1   0   0     2.293526518836     0.00000000     0.00000000
 C      1   2   0     2.807124600922   127.17870007     0.00000000
 C      3   1   2     2.625130104370   128.15527821   358.21576697
 C      4   3   1     2.643941622439   118.04228860   183.13391968
 C      5   4   3     2.649057402444   120.16066952     0.00000000
 C      6   5   4     2.646781623976   121.67023624   358.82651730
 C      7   6   5     2.644688608488   118.42645910     0.97981229
 C      8   7   6     2.810827142903   131.99703062   181.99710840
 C      9   8   7     2.621760160388   124.54207560    18.20445816
 C     10   9   8     2.696177795206   123.02715568   163.94026360
 N     11  10   9     2.197298811331   178.64522365   180.08720065
 C     10   9   8     2.702974988101   122.54886983   348.06696433
 N     13  10   9     2.196840732864   178.24579757   252.97206243
 C      9   8   7     2.747124162576   107.14321057   189.17566020
 C     15   9   8     2.603923300209   135.18848889   158.09250167
 C     16  15   9     2.675078103742   131.85557248   346.75856759
 C     17  16  15     2.653601498802   130.62419965   350.86211978
 C     18  17  16     2.635110437446   112.69969077   185.46874765
 C     19  18  17     2.635380715710   113.31822993     0.84623950
 S     20  19  18     3.245502474202   112.50499155   359.22546915
 C     20  19  18     2.729157242244   110.39953224   178.48989267
 C     22  20  19     2.702131362133   107.01449702     0.68126313
 C     19  18  17     2.872991041455   135.54608326   182.26856156
 C     24  19  18     2.939489648520   107.33820109   301.73066663
 C     25  24  19     2.886721493144   119.66276385   184.36663290
 C     24  19  18     2.948685579077   106.64944566    64.75882143
 C     27  24  19     2.886774613442   118.88338824   166.47099449
 C     23  22  20     2.629261541217   119.23725550   179.68312767
 C     29  23  22     2.656122376517   118.64185028     0.87305007
 C     30  29  23     2.679743508363   121.69910601     0.62874913
 C     31  30  29     2.626676016193   120.20804723   357.97473403
 C     31  30  29     2.885502241265   110.68266044   179.79759871
 C     33  31  30     2.925985599868   111.95891970   122.02561638
 C     34  33  31     2.886393684157   114.74617306   301.58903398
 C     33  31  30     2.941143341350   112.29496396   248.01874997
 C     36  33  31     2.881883011456   117.08068848   291.38082076
 C     33  31  30     2.880831601211   101.30714270     2.69894451
 C     38  33  31     2.674459072512   110.98973279   357.70240860
 C     39  38  33     2.655927205594   121.35755480   179.56028856
 C     40  39  38     2.627265723263   118.28620297   359.32839215
 C     41  40  39     2.695329518860   119.85606917     2.68549246
 C     38  33  31     2.623698053743   128.13174385   178.86411633
 C     42  41  40     2.727695900337   106.77943233   177.28772774
 C     44  42  41     2.640532507957   110.98146392     0.78092064
 C     45  44  42     2.876630768616   110.32655005     0.54212548
 C     46  45  44     2.940877107308   108.12428294   115.57893907
 C     47  46  45     2.883655399999   116.60108536   181.85038944
 C     46  45  44     2.930022749103   112.79654611   241.64807803
 C     49  46  45     2.886172560172   116.00922286   297.36081419
 C     45  44  42     2.643870553158   112.28844375   178.24378102
 C     51  45  44     2.661728885574   113.04929892     0.09800561
 S     44  42  41     3.241944024675   135.78408498   179.31454637
 C     52  51  45     2.680408787904   123.35038993   173.66433026
 C     54  52  51     2.599275037782   135.22672259   179.73299590
 C     55  54  52     2.749879859519   135.43192346   344.71196159
 C     56  55  54     2.616568481447   126.60328408   327.69101438
 C     57  56  55     2.701202324600   122.55852875   180.07437633
 N     58  57  56     2.196307759165   178.90486218   252.57279763
 C     57  56  55     2.698346395761   122.32008906   353.09314520
 N     60  57  56     2.196127421021   177.57089048   246.33650985
 C     56  55  54     2.810277759217   107.32752284   159.03549804
 C     62  56  55     2.646636964582   132.17732832   186.99813036
 C     63  62  56     2.647298890520   118.48807955   183.09665035
 C     64  63  62     2.649883895980   121.59249026     0.58624362
 C     65  64  63     2.643947952838   120.19175858   359.57062848
 C     66  65  64     2.624373038733   118.11848887   359.89286827
 C     67  66  65     2.807489797497   128.03679044   180.69570207
 O     68  67  66     2.294085415733   127.21110357   357.58117340
 H      4   3   1     2.062928502507   119.77635407     2.56972045
 H      5   4   3     2.064045310071   119.96711482   179.68867236
 H      6   5   4     2.064394532867   119.63103388   178.94003508
 H      7   6   5     2.055016388242   119.71361916   180.67274131
 H     16  15   9     2.075432394997   111.88380739   174.61012216
 H     18  17  16     2.054286842589   122.65273853     2.66928110
 H     25  24  19     2.086338575747   106.32503305    60.77895857
 H     25  24  19     2.083438280930   106.72708693   308.16474678
 H     26  25  24     2.076441577510   112.71776244   292.34732147
 H     26  25  24     2.080394558342   109.55300538   173.08383757
 H     26  25  24     2.077713635526   112.00647645    54.69156890
 H     27  24  19     2.081439393389   107.05343464    43.47989658
 H     27  24  19     2.084374876915   106.93597465   291.24391499
 H     28  27  24     2.078765837178   111.86815833   298.35757883
 H     28  27  24     2.081584194059   108.97965929   180.09021919
 H     28  27  24     2.073417305831   113.37135972    60.54683475
 H     29  23  22     2.058651984103   121.26388511   181.72632803
 H     32  31  30     2.062103120259   121.75718892   182.48787344
 H     34  33  31     2.086535645420   107.92823263   178.46380869
 H     34  33  31     2.082268770440   108.33296492    64.15418889
 H     35  34  33     2.079694491900   111.49910403   298.99150773
 H     35  34  33     2.080283921619   111.04653613   179.03914996
 H     35  34  33     2.080684579935   111.22185401    59.27005293
 H     36  33  31     2.084971115259   107.14672908   168.69051601
 H     36  33  31     2.083401844215   107.75815098    55.15773527
 H     37  36  33     2.079053747150   112.29918734   302.20859429
 H     37  36  33     2.081736858304   109.56003971   182.89274386
 H     37  36  33     2.079840976170   112.08672151    63.88576557
 H     40  39  38     2.061492829212   120.38692644   179.50175883
 H     43  38  33     2.064490800949   121.60504530   359.81216552
 H     47  46  45     2.082674175881   107.77421001    58.43741888
 H     47  46  45     2.083043669739   107.51082709   305.15633247
 H     48  47  46     2.080569204073   112.41084274   302.33426251
 H     48  47  46     2.080888451167   109.78955601   182.62030599
 H     48  47  46     2.078317716975   111.86435801    63.84016274
 H     49  46  45     2.082056304208   107.91896345   173.93227383
 H     49  46  45     2.082674648010   107.64171458    60.17578599
 H     50  49  46     2.081210654190   110.29790384   182.00348616
 H     50  49  46     2.078800498415   111.45595896    63.35014677
 H     50  49  46     2.081758752767   112.39598130   301.93194530
 H     51  45  44     2.060589016620   125.72638001   180.05192311
 H     54  52  51     2.075648192726   112.69542663   351.16365044
 H     63  62  56     2.056959419104   122.03666826     3.63628634
 H     64  63  62     2.064718447695   118.88244822   180.69173279
 H     65  64  63     2.063419153086   119.65134525   179.71082831
 H     66  65  64     2.064280794372   122.38849890   179.73148891

---------------------
BASIS SET INFORMATION
---------------------
There are 5 groups of distinct atoms

 Group   1 Type C   : 11s6p2d1f contracted to 5s3p2d1f pattern {62111/411/11/1}
 Group   2 Type O   : 11s6p2d1f contracted to 5s3p2d1f pattern {62111/411/11/1}
 Group   3 Type N   : 11s6p2d1f contracted to 5s3p2d1f pattern {62111/411/11/1}
 Group   4 Type S   : 14s9p3d1f contracted to 5s5p2d1f pattern {73211/51111/21/1}
 Group   5 Type H   : 5s1p contracted to 3s1p pattern {311/1}

Atom   0C    basis set group =>   1
Atom   1O    basis set group =>   2
Atom   2C    basis set group =>   1
Atom   3C    basis set group =>   1
Atom   4C    basis set group =>   1
Atom   5C    basis set group =>   1
Atom   6C    basis set group =>   1
Atom   7C    basis set group =>   1
Atom   8C    basis set group =>   1
Atom   9C    basis set group =>   1
Atom  10C    basis set group =>   1
Atom  11N    basis set group =>   3
Atom  12C    basis set group =>   1
Atom  13N    basis set group =>   3
Atom  14C    basis set group =>   1
Atom  15C    basis set group =>   1
Atom  16C    basis set group =>   1
Atom  17C    basis set group =>   1
Atom  18C    basis set group =>   1
Atom  19C    basis set group =>   1
Atom  20S    basis set group =>   4
Atom  21C    basis set group =>   1
Atom  22C    basis set group =>   1
Atom  23C    basis set group =>   1
Atom  24C    basis set group =>   1
Atom  25C    basis set group =>   1
Atom  26C    basis set group =>   1
Atom  27C    basis set group =>   1
Atom  28C    basis set group =>   1
Atom  29C    basis set group =>   1
Atom  30C    basis set group =>   1
Atom  31C    basis set group =>   1
Atom  32C    basis set group =>   1
Atom  33C    basis set group =>   1
Atom  34C    basis set group =>   1
Atom  35C    basis set group =>   1
Atom  36C    basis set group =>   1
Atom  37C    basis set group =>   1
Atom  38C    basis set group =>   1
Atom  39C    basis set group =>   1
Atom  40C    basis set group =>   1
Atom  41C    basis set group =>   1
Atom  42C    basis set group =>   1
Atom  43C    basis set group =>   1
Atom  44C    basis set group =>   1
Atom  45C    basis set group =>   1
Atom  46C    basis set group =>   1
Atom  47C    basis set group =>   1
Atom  48C    basis set group =>   1
Atom  49C    basis set group =>   1
Atom  50C    basis set group =>   1
Atom  51C    basis set group =>   1
Atom  52S    basis set group =>   4
Atom  53C    basis set group =>   1
Atom  54C    basis set group =>   1
Atom  55C    basis set group =>   1
Atom  56C    basis set group =>   1
Atom  57C    basis set group =>   1
Atom  58N    basis set group =>   3
Atom  59C    basis set group =>   1
Atom  60N    basis set group =>   3
Atom  61C    basis set group =>   1
Atom  62C    basis set group =>   1
Atom  63C    basis set group =>   1
Atom  64C    basis set group =>   1
Atom  65C    basis set group =>   1
Atom  66C    basis set group =>   1
Atom  67C    basis set group =>   1
Atom  68O    basis set group =>   2
Atom  69H    basis set group =>   5
Atom  70H    basis set group =>   5
Atom  71H    basis set group =>   5
Atom  72H    basis set group =>   5
Atom  73H    basis set group =>   5
Atom  74H    basis set group =>   5
Atom  75H    basis set group =>   5
Atom  76H    basis set group =>   5
Atom  77H    basis set group =>   5
Atom  78H    basis set group =>   5
Atom  79H    basis set group =>   5
Atom  80H    basis set group =>   5
Atom  81H    basis set group =>   5
Atom  82H    basis set group =>   5
Atom  83H    basis set group =>   5
Atom  84H    basis set group =>   5
Atom  85H    basis set group =>   5
Atom  86H    basis set group =>   5
Atom  87H    basis set group =>   5
Atom  88H    basis set group =>   5
Atom  89H    basis set group =>   5
Atom  90H    basis set group =>   5
Atom  91H    basis set group =>   5
Atom  92H    basis set group =>   5
Atom  93H    basis set group =>   5
Atom  94H    basis set group =>   5
Atom  95H    basis set group =>   5
Atom  96H    basis set group =>   5
Atom  97H    basis set group =>   5
Atom  98H    basis set group =>   5
Atom  99H    basis set group =>   5
Atom 100H    basis set group =>   5
Atom 101H    basis set group =>   5
Atom 102H    basis set group =>   5
Atom 103H    basis set group =>   5
Atom 104H    basis set group =>   5
Atom 105H    basis set group =>   5
Atom 106H    basis set group =>   5
Atom 107H    basis set group =>   5
Atom 108H    basis set group =>   5
Atom 109H    basis set group =>   5
Atom 110H    basis set group =>   5
Atom 111H    basis set group =>   5
Atom 112H    basis set group =>   5
Atom 113H    basis set group =>   5
Atom 114H    basis set group =>   5
---------------------------------
AUXILIARY/J BASIS SET INFORMATION
---------------------------------
There are 5 groups of distinct atoms

 Group   1 Type C   : 12s5p4d2f1g contracted to 6s4p3d1f1g pattern {711111/2111/211/2/1}
 Group   2 Type O   : 12s5p4d2f1g contracted to 6s4p3d1f1g pattern {711111/2111/211/2/1}
 Group   3 Type N   : 12s5p4d2f1g contracted to 6s4p3d1f1g pattern {711111/2111/211/2/1}
 Group   4 Type S   : 14s5p5d2f1g contracted to 8s4p3d1f1g pattern {71111111/2111/311/2/1}
 Group   5 Type H   : 5s2p1d contracted to 3s1p1d pattern {311/2/1}

Atom   0C    basis set group =>   1
Atom   1O    basis set group =>   2
Atom   2C    basis set group =>   1
Atom   3C    basis set group =>   1
Atom   4C    basis set group =>   1
Atom   5C    basis set group =>   1
Atom   6C    basis set group =>   1
Atom   7C    basis set group =>   1
Atom   8C    basis set group =>   1
Atom   9C    basis set group =>   1
Atom  10C    basis set group =>   1
Atom  11N    basis set group =>   3
Atom  12C    basis set group =>   1
Atom  13N    basis set group =>   3
Atom  14C    basis set group =>   1
Atom  15C    basis set group =>   1
Atom  16C    basis set group =>   1
Atom  17C    basis set group =>   1
Atom  18C    basis set group =>   1
Atom  19C    basis set group =>   1
Atom  20S    basis set group =>   4
Atom  21C    basis set group =>   1
Atom  22C    basis set group =>   1
Atom  23C    basis set group =>   1
Atom  24C    basis set group =>   1
Atom  25C    basis set group =>   1
Atom  26C    basis set group =>   1
Atom  27C    basis set group =>   1
Atom  28C    basis set group =>   1
Atom  29C    basis set group =>   1
Atom  30C    basis set group =>   1
Atom  31C    basis set group =>   1
Atom  32C    basis set group =>   1
Atom  33C    basis set group =>   1
Atom  34C    basis set group =>   1
Atom  35C    basis set group =>   1
Atom  36C    basis set group =>   1
Atom  37C    basis set group =>   1
Atom  38C    basis set group =>   1
Atom  39C    basis set group =>   1
Atom  40C    basis set group =>   1
Atom  41C    basis set group =>   1
Atom  42C    basis set group =>   1
Atom  43C    basis set group =>   1
Atom  44C    basis set group =>   1
Atom  45C    basis set group =>   1
Atom  46C    basis set group =>   1
Atom  47C    basis set group =>   1
Atom  48C    basis set group =>   1
Atom  49C    basis set group =>   1
Atom  50C    basis set group =>   1
Atom  51C    basis set group =>   1
Atom  52S    basis set group =>   4
Atom  53C    basis set group =>   1
Atom  54C    basis set group =>   1
Atom  55C    basis set group =>   1
Atom  56C    basis set group =>   1
Atom  57C    basis set group =>   1
Atom  58N    basis set group =>   3
Atom  59C    basis set group =>   1
Atom  60N    basis set group =>   3
Atom  61C    basis set group =>   1
Atom  62C    basis set group =>   1
Atom  63C    basis set group =>   1
Atom  64C    basis set group =>   1
Atom  65C    basis set group =>   1
Atom  66C    basis set group =>   1
Atom  67C    basis set group =>   1
Atom  68O    basis set group =>   2
Atom  69H    basis set group =>   5
Atom  70H    basis set group =>   5
Atom  71H    basis set group =>   5
Atom  72H    basis set group =>   5
Atom  73H    basis set group =>   5
Atom  74H    basis set group =>   5
Atom  75H    basis set group =>   5
Atom  76H    basis set group =>   5
Atom  77H    basis set group =>   5
Atom  78H    basis set group =>   5
Atom  79H    basis set group =>   5
Atom  80H    basis set group =>   5
Atom  81H    basis set group =>   5
Atom  82H    basis set group =>   5
Atom  83H    basis set group =>   5
Atom  84H    basis set group =>   5
Atom  85H    basis set group =>   5
Atom  86H    basis set group =>   5
Atom  87H    basis set group =>   5
Atom  88H    basis set group =>   5
Atom  89H    basis set group =>   5
Atom  90H    basis set group =>   5
Atom  91H    basis set group =>   5
Atom  92H    basis set group =>   5
Atom  93H    basis set group =>   5
Atom  94H    basis set group =>   5
Atom  95H    basis set group =>   5
Atom  96H    basis set group =>   5
Atom  97H    basis set group =>   5
Atom  98H    basis set group =>   5
Atom  99H    basis set group =>   5
Atom 100H    basis set group =>   5
Atom 101H    basis set group =>   5
Atom 102H    basis set group =>   5
Atom 103H    basis set group =>   5
Atom 104H    basis set group =>   5
Atom 105H    basis set group =>   5
Atom 106H    basis set group =>   5
Atom 107H    basis set group =>   5
Atom 108H    basis set group =>   5
Atom 109H    basis set group =>   5
Atom 110H    basis set group =>   5
Atom 111H    basis set group =>   5
Atom 112H    basis set group =>   5
Atom 113H    basis set group =>   5
Atom 114H    basis set group =>   5


           ************************************************************
           *        Program running with 6 parallel MPI-processes     *
           *              working on a common directory               *
           ************************************************************
------------------------------------------------------------------------------
                           ORCA GTO INTEGRAL CALCULATION
                           -- RI-GTO INTEGRALS CHOSEN --
------------------------------------------------------------------------------

                         BASIS SET STATISTICS AND STARTUP INFO

Gaussian basis set:
 # of primitive gaussian shells          ... 1670
 # of primitive gaussian functions       ... 3576
 # of contracted shells                  ...  947
 # of contracted basis functions         ... 2427
 Highest angular momentum                ...    3
 Maximum contraction depth               ...    7
Auxiliary gaussian basis set:
 # of primitive gaussian shells          ... 2030
 # of primitive gaussian functions       ... 5580
 # of contracted shells                  ... 1269
 # of contracted aux-basis functions     ... 3891
 Highest angular momentum                ...    4
 Maximum contraction depth               ...    7
Ratio of auxiliary to basis functions    ...  1.60
Integral package used                  ... LIBINT
 One Electron integrals                  ... done
 Ordering auxiliary basis shells         ... done
 Integral threshhold             Thresh  ...  2.500e-11
 Primitive cut-off               TCut    ...  2.500e-12
 Pre-screening matrix                    ... done
 Shell pair data                         ... 
 Ordering of the shell pairs             ... done (   0.035 sec) 158951 of 448878 pairs
 Determination of significant pairs      ... done (   0.001 sec)
 Creation of shell pair data             ... done (   0.016 sec)
 Storage of shell pair data              ... done (   0.192 sec)
 Shell pair data done in (   0.244 sec)
 Computing two index integrals           ... done
 Cholesky decomposition of the V-matrix  ... done


Timings:
 Total evaluation time                   ...   6.994 sec (  0.117 min)
 One electron matrix time                ...   2.668 sec (  0.044 min) = 38.1%
 Schwartz matrix evaluation time         ...   3.073 sec (  0.051 min) = 43.9%
 Two index repulsion integral time       ...   0.360 sec (  0.006 min) =  5.2%
 Cholesky decomposition of V             ...   0.632 sec (  0.011 min) =  9.0%
 Three index repulsion integral time     ...   0.000 sec (  0.000 min) =  0.0%



           ************************************************************
           *        Program running with 6 parallel MPI-processes     *
           *              working on a common directory               *
           ************************************************************
-------------------------------------------------------------------------------
                                 ORCA SCF
-------------------------------------------------------------------------------

------------
SCF SETTINGS
------------
Hamiltonian:
 Density Functional     Method          .... DFT(GTOs)
 Exchange Functional    Exchange        .... B88
   X-Alpha parameter    XAlpha          ....  0.666667
   Becke's b parameter  XBeta           ....  0.004200
 Correlation Functional Correlation     .... LYP
 LDA part of GGA corr.  LDAOpt          .... VWN-5
 Gradients option       PostSCFGGA      .... off
 Hybrid DFT is turned on
   Fraction HF Exchange ScalHFX         ....  0.200000
   Scaling of DF-GGA-X  ScalDFX         ....  0.720000
   Scaling of DF-GGA-C  ScalDFC         ....  0.810000
   Scaling of DF-LDA-C  ScalLDAC        ....  1.000000
   Perturbative correction              ....  0.000000
   Density functional embedding theory  .... OFF
   NL short-range parameter             ....  4.800000
 RI-approximation to the Coulomb term is turned on
   Number of auxiliary basis functions  .... 3891
   RIJ-COSX (HFX calculated with COS-X)).... on


General Settings:
 Integral files         IntName         .... FDICTF
 Hartree-Fock type      HFTyp           .... RHF
 Total Charge           Charge          ....    0
 Multiplicity           Mult            ....    1
 Number of Electrons    NEL             ....  488
 Basis Dimension        Dim             .... 2427
 Nuclear Repulsion      ENuc            ....   9634.0529804790 Eh

Convergence Acceleration:
 DIIS                   CNVDIIS         .... on
   Start iteration      DIISMaxIt       ....    12
   Startup error        DIISStart       ....  0.200000
   # of expansion vecs  DIISMaxEq       ....     5
   Bias factor          DIISBfac        ....   1.050
   Max. coefficient     DIISMaxC        ....  10.000
 Newton-Raphson         CNVNR           .... off
 SOSCF                  CNVSOSCF        .... on
   Start iteration      SOSCFMaxIt      ....   150
   Startup grad/error   SOSCFStart      ....  0.003300
 Level Shifting         CNVShift        .... on
   Level shift para.    LevelShift      ....    0.2500
   Turn off err/grad.   ShiftErr        ....    0.0010
 Zerner damping         CNVZerner       .... off
 Static damping         CNVDamp         .... on
   Fraction old density DampFac         ....    0.7000
   Max. Damping (<1)    DampMax         ....    0.9800
   Min. Damping (>=0)   DampMin         ....    0.0000
   Turn off err/grad.   DampErr         ....    0.1000
 Fernandez-Rico         CNVRico         .... off

SCF Procedure:
 Maximum # iterations   MaxIter         ....   125
 SCF integral mode      SCFMode         .... Direct
   Integral package                     .... LIBINT
 Reset frequency        DirectResetFreq ....    20
 Integral Threshold     Thresh          ....  2.500e-11 Eh
 Primitive CutOff       TCut            ....  2.500e-12 Eh

Convergence Tolerance:
 Convergence Check Mode ConvCheckMode   .... Total+1el-Energy
 Convergence forced     ConvForced      .... 1
 Energy Change          TolE            ....  1.000e-08 Eh
 1-El. energy change                    ....  1.000e-05 Eh
 Orbital Gradient       TolG            ....  1.000e-05
 Orbital Rotation angle TolX            ....  1.000e-05
 DIIS Error             TolErr          ....  5.000e-07


Diagonalization of the overlap matrix:
Smallest eigenvalue                        ... 2.039e-06
Time for diagonalization                   ...    1.038 sec
Threshold for overlap eigenvalues          ... 1.000e-08
Number of eigenvalues below threshold      ... 0
Time for construction of square roots      ...    0.790 sec
Total time needed                          ...    1.842 sec

-------------------
DFT GRID GENERATION
-------------------

General Integration Accuracy     IntAcc      ...  4.670
Radial Grid Type                 RadialGrid  ... Gauss-Chebyshev
Angular Grid (max. acc.)         AngularGrid ... Lebedev-302
Angular grid pruning method      GridPruning ... 3 (G Style)
Weight generation scheme         WeightScheme... Becke
Basis function cutoff            BFCut       ...    1.0000e-11
Integration weight cutoff        WCut        ...    1.0000e-14
Grids for H and He will be reduced by one unit

# of grid points (after initial pruning)     ... 586020 (   0.0 sec)
# of grid points (after weights+screening)   ... 493247 (   8.3 sec)
nearest neighbour list constructed           ...    0.0 sec
Grid point re-assignment to atoms done       ...    0.1 sec
Grid point division into batches done        ...    1.5 sec
Reduced shell lists constructed in    3.4 sec

Total number of grid points                  ...   493247
Total number of batches                      ...     7766
Average number of points per batch           ...       63
Average number of grid points per atom       ...     4289
Average number of shells per batch           ...   158.90 (16.78%)
Average number of basis functions per batch  ...   405.13 (16.69%)
Average number of large shells per batch     ...    99.59 (62.67%)
Average number of large basis fcns per batch ...   260.04 (64.19%)
Maximum spatial batch extension              ...  20.59, 16.37, 17.67 au
Average spatial batch extension              ...   0.33,  0.30,  0.32 au

Time for grid setup =   12.546 sec

------------------------------
INITIAL GUESS: MODEL POTENTIAL
------------------------------
Loading Hartree-Fock densities                     ... done
Calculating cut-offs                               ... done
Setting up the integral package                    ... done
Initializing the effective Hamiltonian             ... done
Starting the Coulomb interaction                   ... done (   4.8 sec)
Reading the grid                                   ... done
Mapping shells                                     ... done
Starting the XC term evaluation                    ... done (   5.1 sec)
  promolecular density results
     # of electrons  =    487.978905208
     EX              =   -419.901869328
     EC              =    -16.785232914
     EX+EC           =   -436.687102242
Transforming the Hamiltonian                       ... done (   0.6 sec)
Diagonalizing the Hamiltonian                      ... done (   1.1 sec)
Back transforming the eigenvectors                 ... done (   0.3 sec)
Now organizing SCF variables                       ... done
                      ------------------
                      INITIAL GUESS DONE (  24.8 sec)
                      ------------------
--------------------
COSX GRID GENERATION
--------------------

General Integration Accuracy     IntAcc      ...  3.340
Radial Grid Type                 RadialGrid  ... Gauss-Chebyshev
Angular Grid (max. acc.)         AngularGrid ... Lebedev-50
Angular grid pruning method      GridPruning ... 3 (G Style)
Weight generation scheme         WeightScheme... Becke
Basis function cutoff            BFCut       ...    1.0000e-11
Integration weight cutoff        WCut        ...    1.0000e-14
Grids for H and He will be reduced by one unit

# of grid points (after initial pruning)     ...  54936 (   0.0 sec)
# of grid points (after weights+screening)   ...  48381 (   0.8 sec)
nearest neighbour list constructed           ...    0.0 sec
Grid point re-assignment to atoms done       ...    0.0 sec
Grid point division into batches done        ...    0.0 sec
Reduced shell lists constructed in    0.2 sec

Total number of grid points                  ...    48381
Total number of batches                      ...      814
Average number of points per batch           ...       59
Average number of grid points per atom       ...      421
Average number of shells per batch           ...   186.52 (19.70%)
Average number of basis functions per batch  ...   480.58 (19.80%)
Average number of large shells per batch     ...   118.41 (63.48%)
Average number of large basis fcns per batch ...   312.72 (65.07%)
Maximum spatial batch extension              ...  23.01, 16.99, 15.35 au
Average spatial batch extension              ...   0.79,  0.61,  0.70 au

Overlap Fitting                  UseSFitting ... on
Constructing numerical overlap ... done (      0.4 sec)
Inverting numerical overlap    ... done (      0.3 sec)
Obtaining analytic overlap     ... done (      0.0 sec)
Final contraction and storage  ... done (      0.5 sec)


General Integration Accuracy     IntAcc      ...  3.670
Radial Grid Type                 RadialGrid  ... Gauss-Chebyshev
Angular Grid (max. acc.)         AngularGrid ... Lebedev-50
Angular grid pruning method      GridPruning ... 3 (G Style)
Weight generation scheme         WeightScheme... Becke
Basis function cutoff            BFCut       ...    1.0000e-11
Integration weight cutoff        WCut        ...    1.0000e-14
Grids for H and He will be reduced by one unit

# of grid points (after initial pruning)     ...  69146 (   0.0 sec)
# of grid points (after weights+screening)   ...  60637 (   0.9 sec)
nearest neighbour list constructed           ...    0.0 sec
Grid point re-assignment to atoms done       ...    0.0 sec
Grid point division into batches done        ...    0.0 sec
Reduced shell lists constructed in    0.3 sec

Total number of grid points                  ...    60637
Total number of batches                      ...     1001
Average number of points per batch           ...       60
Average number of grid points per atom       ...      527
Average number of shells per batch           ...   183.27 (19.35%)
Average number of basis functions per batch  ...   472.08 (19.45%)
Average number of large shells per batch     ...   116.01 (63.30%)
Average number of large basis fcns per batch ...   306.45 (64.91%)
Maximum spatial batch extension              ...  25.18, 18.19, 16.45 au
Average spatial batch extension              ...   0.71,  0.54,  0.63 au

Overlap Fitting                  UseSFitting ... on
Constructing numerical overlap ... done (      0.5 sec)
Inverting numerical overlap    ... done (      0.3 sec)
Obtaining analytic overlap     ... done (      0.0 sec)
Final contraction and storage  ... done (      0.5 sec)


General Integration Accuracy     IntAcc      ...  4.010
Radial Grid Type                 RadialGrid  ... Gauss-Chebyshev
Angular Grid (max. acc.)         AngularGrid ... Lebedev-110
Angular grid pruning method      GridPruning ... 3 (G Style)
Weight generation scheme         WeightScheme... Becke
Basis function cutoff            BFCut       ...    1.0000e-11
Integration weight cutoff        WCut        ...    1.0000e-14
Grids for H and He will be reduced by one unit

# of grid points (after initial pruning)     ... 132256 (   0.0 sec)
# of grid points (after weights+screening)   ... 114986 (   2.0 sec)
nearest neighbour list constructed           ...    0.0 sec
Grid point re-assignment to atoms done       ...    0.0 sec
Grid point division into batches done        ...    0.1 sec
Reduced shell lists constructed in    0.6 sec

Total number of grid points                  ...   114986
Total number of batches                      ...     1858
Average number of points per batch           ...       61
Average number of grid points per atom       ...     1000
Average number of shells per batch           ...   172.87 (18.25%)
Average number of basis functions per batch  ...   444.64 (18.32%)
Average number of large shells per batch     ...   109.43 (63.30%)
Average number of large basis fcns per batch ...   288.49 (64.88%)
Maximum spatial batch extension              ...  32.06, 17.27, 21.18 au
Average spatial batch extension              ...   0.60,  0.48,  0.55 au

Overlap Fitting                  UseSFitting ... on
Constructing numerical overlap ... done (      0.7 sec)
Inverting numerical overlap    ... done (      0.3 sec)
Obtaining analytic overlap     ... done (      0.0 sec)
Final contraction and storage  ... done (      0.5 sec)

Time for X-Grid setup             =    9.451 sec
--------------
SCF ITERATIONS
--------------
ITER       Energy         Delta-E        Max-DP      RMS-DP      [F,P]     Damp
               ***  Starting incremental Fock matrix formation  ***
  0  -3515.3272304145   0.000000000000 0.14539603  0.00084063  0.2855539 0.7000
  1  -3516.2104458413  -0.883215426813 0.13541676  0.00067964  0.0992288 0.7000
                               ***Turning on DIIS***
  2  -3516.5195261813  -0.309080339997 0.16076363  0.00104916  0.0474210 0.0000
  3  -3517.0585879505  -0.539061769130 0.13319792  0.00059257  0.0552092 0.0000
  4  -3517.1593220072  -0.100734056774 0.03909029  0.00019073  0.0375037 0.0000
  5  -3517.1742938359  -0.014971828621 0.01666281  0.00009319  0.0090161 0.0000
                      *** Initiating the SOSCF procedure ***
                           *** Shutting down DIIS ***
                      *** Re-Reading the Fockian *** 
                      *** Removing any level shift *** 
ITER      Energy       Delta-E        Grad      Rot      Max-DP    RMS-DP
  6  -3517.17517939  -0.0008855503  0.000839  0.000839  0.005288  0.000029
               *** Restarting incremental Fock matrix formation ***
  7  -3517.17527659  -0.0000972028  0.000513  0.005811  0.011721  0.000071
  8  -3517.17527471   0.0000018802  0.000436  0.002928  0.004314  0.000027
  9  -3517.17530358  -0.0000288736  0.000259  0.002864  0.004445  0.000027
 10  -3517.17530242   0.0000011589  0.000226  0.000718  0.000579  0.000004
 11  -3517.17530731  -0.0000048857  0.000076  0.000657  0.001471  0.000009
 12  -3517.17530608   0.0000012339  0.000125  0.000199  0.000560  0.000002
 13  -3517.17530790  -0.0000018234  0.000024  0.000280  0.000921  0.000004
 14  -3517.17530771   0.0000001854  0.000035  0.000121  0.000893  0.000001
 15  -3517.17530803  -0.0000003158  0.000007  0.000077  0.000398  0.000002
 16  -3517.17530798   0.0000000500  0.000010  0.000036  0.000536  0.000001
                  ***Gradient check signals convergence***
              ***Rediagonalizing the Fockian in SOSCF/NRSCF***

               *****************************************************
               *                     SUCCESS                       *
               *           SCF CONVERGED AFTER  17 CYCLES          *
               *****************************************************

Setting up the final grid:

General Integration Accuracy     IntAcc      ...  5.010
Radial Grid Type                 RadialGrid  ... Gauss-Chebyshev
Angular Grid (max. acc.)         AngularGrid ... Lebedev-434
Angular grid pruning method      GridPruning ... 3 (G Style)
Weight generation scheme         WeightScheme... Becke
Basis function cutoff            BFCut       ...    1.0000e-11
Integration weight cutoff        WCut        ...    1.0000e-14
Grids for H and He will be reduced by one unit

# of grid points (after initial pruning)     ... 1047934 (   0.1 sec)
# of grid points (after weights+screening)   ... 879032 (  14.3 sec)
nearest neighbour list constructed           ...    0.0 sec
Grid point re-assignment to atoms done       ...    0.1 sec
Grid point division into batches done        ...    5.1 sec
Reduced shell lists constructed in    8.1 sec

Total number of grid points                  ...   879032
Total number of batches                      ...    13796
Average number of points per batch           ...       63
Average number of grid points per atom       ...     7644
Average number of shells per batch           ...   157.00 (16.58%)
Average number of basis functions per batch  ...   398.66 (16.43%)
Average number of large shells per batch     ...    98.07 (62.46%)
Average number of large basis fcns per batch ...   255.31 (64.04%)
Maximum spatial batch extension              ...  20.70, 16.90, 17.72 au
Average spatial batch extension              ...   0.27,  0.25,  0.26 au

Final grid set up in   23.9 sec
Final integration                            ... done (  11.5 sec)
Change in XC energy                          ...     0.000061472
Integrated number of electrons               ...   488.000022086
Previous integrated no of electrons          ...   488.000752147
Old exchange energy                            =    -85.091955091 Eh
New exchange energy                            =    -85.092402470 Eh
Exchange energy change after final integration =     -0.000447379 Eh
Total energy after final integration           =  -3517.175693949 Eh
Final COS-X integration done in                =   282.077 sec

----------------
TOTAL SCF ENERGY
----------------

Total Energy       :        -3517.17569395 Eh          -95707.21629 eV

Components:
Nuclear Repulsion  :         9634.05298048 Eh          262155.90935 eV
Electronic Energy  :       -13151.22867443 Eh         -357863.12564 eV
One Electron Energy:       -23975.63519521 Eh         -652410.20156 eV
Two Electron Energy:        10824.40652078 Eh          294547.07591 eV

Virial components:
Potential Energy   :        -7019.35305391 Eh         -191006.30717 eV
Kinetic Energy     :         3502.17735996 Eh           95299.09088 eV
Virial Ratio       :            2.00428257


DFT components:
N(Alpha)           :      244.000011042784 electrons
N(Beta)            :      244.000011042784 electrons
N(Total)           :      488.000022085567 electrons
E(X)               :     -338.114029415407 Eh       
E(C)               :      -19.756712631530 Eh       
E(XC)              :     -357.870742046937 Eh       
DFET-embed. en.    :        0.000000000000 Eh       

---------------
SCF CONVERGENCE
---------------

  Last Energy change         ...   -6.2399e-08  Tolerance :   1.0000e-08
  Last MAX-Density change    ...    3.8858e-15  Tolerance :   1.0000e-07
  Last RMS-Density change    ...    1.1423e-17  Tolerance :   5.0000e-09
  Last Orbital Gradient      ...    2.1299e-06  Tolerance :   1.0000e-05
  Last Orbital Rotation      ...    1.3415e-05  Tolerance :   1.0000e-05

             **** THE GBW FILE WAS UPDATED (FDICTF.gbw) ****
             **** DENSITY FILE WAS UPDATED (FDICTF.scfp) ****
             **** ENERGY FILE WAS UPDATED (FDICTF.en.tmp) ****
             **** THE GBW FILE WAS UPDATED (FDICTF.gbw) ****
             **** DENSITY FILE WAS UPDATED (FDICTF.scfp) ****
----------------
ORBITAL ENERGIES
----------------

  NO   OCC          E(Eh)            E(eV) 
   0   2.0000     -88.909367     -2419.3469 
   1   2.0000     -88.908221     -2419.3157 
   2   2.0000     -19.125305      -520.4260 
   3   2.0000     -19.124536      -520.4051 
   4   2.0000     -14.329367      -389.9219 
   5   2.0000     -14.328669      -389.9029 
   6   2.0000     -14.326744      -389.8505 
   7   2.0000     -14.325083      -389.8053 
   8   2.0000     -10.270861      -279.4843 
   9   2.0000     -10.270286      -279.4687 
  10   2.0000     -10.257262      -279.1143 
  11   2.0000     -10.255703      -279.0719 
  12   2.0000     -10.254432      -279.0373 
  13   2.0000     -10.252620      -278.9880 
  14   2.0000     -10.235422      -278.5200 
  15   2.0000     -10.235180      -278.5134 
  16   2.0000     -10.232321      -278.4356 
  17   2.0000     -10.231971      -278.4261 
  18   2.0000     -10.228974      -278.3445 
  19   2.0000     -10.227882      -278.3148 
  20   2.0000     -10.227485      -278.3040 
  21   2.0000     -10.227178      -278.2957 
  22   2.0000     -10.226623      -278.2806 
  23   2.0000     -10.223834      -278.2047 
  24   2.0000     -10.220718      -278.1199 
  25   2.0000     -10.220190      -278.1055 
  26   2.0000     -10.217927      -278.0439 
  27   2.0000     -10.216971      -278.0179 
  28   2.0000     -10.213118      -277.9131 
  29   2.0000     -10.212517      -277.8967 
  30   2.0000     -10.212466      -277.8953 
  31   2.0000     -10.210749      -277.8486 
  32   2.0000     -10.209720      -277.8206 
  33   2.0000     -10.209551      -277.8160 
  34   2.0000     -10.208679      -277.7923 
  35   2.0000     -10.207302      -277.7548 
  36   2.0000     -10.206284      -277.7271 
  37   2.0000     -10.206224      -277.7255 
  38   2.0000     -10.205804      -277.7141 
  39   2.0000     -10.205542      -277.7069 
  40   2.0000     -10.205185      -277.6972 
  41   2.0000     -10.205107      -277.6951 
  42   2.0000     -10.205059      -277.6938 
  43   2.0000     -10.205035      -277.6931 
  44   2.0000     -10.204660      -277.6829 
  45   2.0000     -10.204569      -277.6804 
  46   2.0000     -10.204391      -277.6756 
  47   2.0000     -10.204222      -277.6710 
  48   2.0000     -10.203507      -277.6515 
  49   2.0000     -10.202474      -277.6234 
  50   2.0000     -10.201266      -277.5906 
  51   2.0000     -10.201178      -277.5882 
  52   2.0000     -10.200871      -277.5798 
  53   2.0000     -10.200675      -277.5745 
  54   2.0000     -10.200114      -277.5592 
  55   2.0000     -10.199500      -277.5425 
  56   2.0000     -10.199269      -277.5362 
  57   2.0000     -10.190773      -277.3050 
  58   2.0000     -10.190649      -277.3017 
  59   2.0000     -10.189162      -277.2612 
  60   2.0000     -10.187895      -277.2267 
  61   2.0000     -10.185613      -277.1646 
  62   2.0000     -10.184638      -277.1381 
  63   2.0000     -10.177584      -276.9461 
  64   2.0000     -10.175999      -276.9030 
  65   2.0000     -10.175818      -276.8981 
  66   2.0000     -10.173757      -276.8420 
  67   2.0000     -10.170182      -276.7447 
  68   2.0000     -10.166911      -276.6557 
  69   2.0000      -7.985062      -217.2846 
  70   2.0000      -7.984236      -217.2621 
  71   2.0000      -5.947422      -161.8376 
  72   2.0000      -5.946626      -161.8159 
  73   2.0000      -5.943884      -161.7413 
  74   2.0000      -5.942941      -161.7156 
  75   2.0000      -5.941850      -161.6860 
  76   2.0000      -5.941023      -161.6635 
  77   2.0000      -1.052898       -28.6508 
  78   2.0000      -1.052037       -28.6274 
  79   2.0000      -0.933284       -25.3959 
  80   2.0000      -0.931340       -25.3431 
  81   2.0000      -0.928967       -25.2785 
  82   2.0000      -0.926799       -25.2195 
  83   2.0000      -0.915508       -24.9122 
  84   2.0000      -0.912582       -24.8326 
  85   2.0000      -0.908819       -24.7302 
  86   2.0000      -0.907426       -24.6923 
  87   2.0000      -0.906134       -24.6572 
  88   2.0000      -0.879789       -23.9403 
  89   2.0000      -0.869450       -23.6589 
  90   2.0000      -0.859564       -23.3899 
  91   2.0000      -0.857566       -23.3355 
  92   2.0000      -0.839045       -22.8316 
  93   2.0000      -0.826959       -22.5027 
  94   2.0000      -0.820755       -22.3339 
  95   2.0000      -0.818832       -22.2815 
  96   2.0000      -0.812200       -22.1011 
  97   2.0000      -0.804281       -21.8856 
  98   2.0000      -0.793313       -21.5871 
  99   2.0000      -0.776985       -21.1428 
 100   2.0000      -0.776183       -21.1210 
 101   2.0000      -0.775443       -21.1009 
 102   2.0000      -0.768888       -20.9225 
 103   2.0000      -0.767034       -20.8721 
 104   2.0000      -0.766156       -20.8482 
 105   2.0000      -0.764691       -20.8083 
 106   2.0000      -0.762691       -20.7539 
 107   2.0000      -0.762493       -20.7485 
 108   2.0000      -0.761425       -20.7194 
 109   2.0000      -0.748948       -20.3799 
 110   2.0000      -0.725401       -19.7392 
 111   2.0000      -0.716961       -19.5095 
 112   2.0000      -0.701662       -19.0932 
 113   2.0000      -0.698276       -19.0011 
 114   2.0000      -0.687459       -18.7067 
 115   2.0000      -0.684808       -18.6346 
 116   2.0000      -0.681973       -18.5574 
 117   2.0000      -0.673088       -18.3157 
 118   2.0000      -0.655875       -17.8473 
 119   2.0000      -0.640758       -17.4359 
 120   2.0000      -0.636156       -17.3107 
 121   2.0000      -0.633229       -17.2310 
 122   2.0000      -0.629547       -17.1309 
 123   2.0000      -0.626829       -17.0569 
 124   2.0000      -0.624476       -16.9929 
 125   2.0000      -0.622383       -16.9359 
 126   2.0000      -0.612368       -16.6634 
 127   2.0000      -0.608033       -16.5454 
 128   2.0000      -0.601987       -16.3809 
 129   2.0000      -0.600258       -16.3338 
 130   2.0000      -0.594557       -16.1787 
 131   2.0000      -0.586391       -15.9565 
 132   2.0000      -0.575894       -15.6709 
 133   2.0000      -0.572169       -15.5695 
 134   2.0000      -0.569198       -15.4887 
 135   2.0000      -0.564459       -15.3597 
 136   2.0000      -0.556499       -15.1431 
 137   2.0000      -0.550084       -14.9685 
 138   2.0000      -0.543964       -14.8020 
 139   2.0000      -0.537669       -14.6307 
 140   2.0000      -0.531797       -14.4709 
 141   2.0000      -0.528652       -14.3854 
 142   2.0000      -0.519785       -14.1441 
 143   2.0000      -0.516013       -14.0414 
 144   2.0000      -0.504428       -13.7262 
 145   2.0000      -0.502013       -13.6605 
 146   2.0000      -0.500931       -13.6310 
 147   2.0000      -0.495284       -13.4774 
 148   2.0000      -0.490530       -13.3480 
 149   2.0000      -0.484840       -13.1932 
 150   2.0000      -0.478757       -13.0276 
 151   2.0000      -0.475389       -12.9360 
 152   2.0000      -0.473213       -12.8768 
 153   2.0000      -0.472131       -12.8474 
 154   2.0000      -0.470745       -12.8096 
 155   2.0000      -0.469012       -12.7625 
 156   2.0000      -0.467036       -12.7087 
[...]
   Lowest Energy          :     0.051997583696
   Maximum Energy change  :     0.000193352431 (vector 2)
   Maximum residual norm  :     0.000027155326

                       ****Iteration    6****
   Time for densities:     5.018
   Time for K (COSX):   482.806
   Time for XC-Integration:     9.083
   Time for Sigma-Completion:    46.593
   Size of expansion space: 15
   Lowest Energy          :     0.051997583186
   Maximum Energy change  :     0.000470892675 (vector 2)
   Maximum residual norm  :     0.000015785340
   Rebuilding the expansion space

                       ****Iteration    7****
   Time for densities:    10.023
   Time for K (COSX):   466.527
   Time for XC-Integration:    16.977
   Time for Sigma-Completion:    93.514
   Size of expansion space: 6
   Lowest Energy          :     0.051997584181
   Maximum Energy change  :     0.000064732714 (vector 2)
   Maximum residual norm  :     0.000004234994

                       ****Iteration    8****
   Time for densities:     5.015
   Time for K (COSX):   498.476
   Time for XC-Integration:     9.036
   Time for Sigma-Completion:    46.117
   Size of expansion space: 9
   Lowest Energy          :     0.051997584180
   Maximum Energy change  :     0.000021079884 (vector 2)
   Maximum residual norm  :     0.000003061905

                       ****Iteration    9****
   Time for densities:     5.017
   Time for K (COSX):   494.668
   Time for XC-Integration:     8.912
   Time for Sigma-Completion:    44.758
   Size of expansion space: 12
   Lowest Energy          :     0.051997584180
   Maximum Energy change  :     0.000027336286 (vector 2)
   Maximum residual norm  :     0.000001201995

                       ****Iteration   10****
   Time for densities:     5.021
   Time for K (COSX):   479.578
   Time for XC-Integration:    10.331
   Time for Sigma-Completion:    46.169
   Size of expansion space: 15
   Lowest Energy          :     0.051997584180
   Maximum Energy change  :     0.000008638954 (vector 2)
   Maximum residual norm  :     0.000000538050
   Rebuilding the expansion space

                       ****Iteration   11****
   Time for densities:     8.349
   Time for K (COSX):   501.046
   Time for XC-Integration:    14.233
   Time for Sigma-Completion:    77.627
   Size of expansion space: 5
   Lowest Energy          :     0.051997584144
   Maximum Energy change  :     0.000000234093 (vector 2)

         *** CONVERGENCE OF ENERGIES REACHED ***

Storing the converged CI vectors               ... FDICTF.cis3

                 *** DAVIDSON DONE ***

------------------------------------
TD-DFT/TDA EXCITED STATES (TRIPLETS)
------------------------------------

the weight of the individual excitations are printed if larger than 1.0e-02

STATE  1:  E=   0.051998 au      1.415 eV    11412.2 cm**-1
   242a -> 245a  :     0.119363 (c=  0.34548884)
   243a -> 244a  :     0.833677 (c=  0.91305918)

STATE  2:  E=   0.057740 au      1.571 eV    12672.4 cm**-1
   241a -> 245a  :     0.017006 (c=  0.13040837)
   242a -> 244a  :     0.329610 (c=  0.57411651)
   243a -> 245a  :     0.607733 (c=  0.77957210)
   243a -> 247a  :     0.014552 (c= -0.12063199)

STATE  3:  E=   0.079905 au      2.174 eV    17537.1 cm**-1
   240a -> 245a  :     0.040912 (c=  0.20226611)
   241a -> 244a  :     0.139496 (c= -0.37349153)
   241a -> 245a  :     0.010177 (c=  0.10088176)
   241a -> 246a  :     0.018127 (c= -0.13463661)
   242a -> 244a  :     0.016290 (c=  0.12763370)
   242a -> 245a  :     0.255578 (c= -0.50554729)
   242a -> 247a  :     0.033937 (c= -0.18421922)
   243a -> 244a  :     0.020222 (c=  0.14220248)
   243a -> 245a  :     0.026448 (c= -0.16262816)
   243a -> 246a  :     0.356200 (c= -0.59682460)
   243a -> 248a  :     0.026864 (c=  0.16390375)

------------------------------
TD-DFT/TDA SPIN-ORBIT COUPLING
------------------------------

Calculating the spin-orbit integrals:             

Loading the effective charges         ... done
Entering the SOC calc. section        ... 
------------------------------------------------------------------------------
                         ORCA SPIN-ORBIT COUPLING CALCULATION
------------------------------------------------------------------------------

GBW file                                    ... FDICTF.gbw
Input density                               ... FDICTF.cisp0
Output integrals                            ... FDICTF.cis
Operator type                               ... Mean-field/Effective potential
   One-Electron Terms                       ... 1
   Coulomb Contribution                     ... 2
   Exchange Contribution                    ... 3
   Correlation Contribution                 ... 0
   Maximum number of centers                ... 4
Setting up the integration grid             ... done
Evaluating density on the grid              ... (NumEl=  488.000752) done
Evaluating Coulomb term semi-analytically   ... done
One-Center Exchange (+SOO)                  ... done
Evaluating the spin-orbit operator          ... done
Transforming the SOC integrals              ... done
Constructing the SOC matrix:                ... done
Diagonalizing the SOC matrix:               ... done

      --------------------------------------------------------------------------------
                      CALCULATED SOCME BETWEEN TRIPLETS AND SINGLETS                  
      --------------------------------------------------------------------------------
           Root                          <T|HSO|S>  (Re, Im) cm-1                     
         T      S             Z                     X                     Y           
      --------------------------------------------------------------------------------
         1      0    (   0.00 ,    0.15 )    (   0.00 ,    1.02 )    (  -0.00 ,   -0.97 )
         1      1    (   0.00 ,   -0.10 )    (   0.00 ,   -0.06 )    (  -0.00 ,   -0.08 )
         1      2    (   0.00 ,    0.51 )    (   0.00 ,    0.68 )    (  -0.00 ,   -0.03 )
         1      3    (   0.00 ,    0.73 )    (   0.00 ,    0.15 )    (  -0.00 ,    0.82 )
         2      0    (   0.00 ,   -0.26 )    (   0.00 ,    0.23 )    (  -0.00 ,   -0.45 )
         2      1    (   0.00 ,   -0.17 )    (   0.00 ,   -0.15 )    (  -0.00 ,   -0.07 )
         2      2    (   0.00 ,    0.08 )    (   0.00 ,   -0.03 )    (  -0.00 ,    0.12 )
         2      3    (   0.00 ,    0.46 )    (   0.00 ,    0.25 )    (  -0.00 ,    0.32 )
         3      0    (   0.00 ,   -0.70 )    (   0.00 ,   -1.22 )    (  -0.00 ,    0.55 )
         3      1    (   0.00 ,   -0.37 )    (   0.00 ,   -0.09 )    (  -0.00 ,   -0.07 )
         3      2    (   0.00 ,   -0.05 )    (   0.00 ,   -0.17 )    (  -0.00 ,    0.15 )
         3      3    (   0.00 ,   -0.57 )    (   0.00 ,   -0.51 )    (  -0.00 ,   -0.29 )

SOC stabilization of the ground state:  -0.0003 cm-1
Eigenvalues of the SOC matrix:

   State:        cm-1         eV
     0:          0.00         0.0000
     1:      11412.15         1.4149
     2:      11412.15         1.4149
     3:      11412.15         1.4149
     4:      12672.43         1.5712
     5:      12672.43         1.5712
     6:      12672.43         1.5712
     7:      15949.20         1.9774
     8:      17537.07         2.1743
     9:      17537.07         2.1743
    10:      17537.07         2.1743
    11:      17837.86         2.2116
    12:      20591.98         2.5531

The threshold for printing is 0.0100
Eigenvectors of the SOC matrix:

             E(cm-1)  Weight      Real         Imag     : Root  Spin  Ms
 STATE  0:      0.00
                      1.00000      0.41116     -0.91156 : 0     0     0
 STATE  1:  11412.15
                      0.50972     -0.34020      0.62768 : 1     1     0
                      0.24514      0.19728      0.45412 : 1     1    -1
                      0.24514      0.48818     -0.08260 : 1     1     1
 STATE  2:  11412.15
                      0.47958     -0.61261     -0.32294 : 1     1     0
                      0.26021      0.49835     -0.10888 : 1     1    -1
                      0.26021     -0.19178     -0.47269 : 1     1     1
 STATE  3:  11412.15
                      0.01070      0.07781     -0.06818 : 1     1     0
                      0.49465      0.70240      0.03586 : 1     1    -1
                      0.49465     -0.05670      0.70102 : 1     1     1
 STATE  4:  12672.43
                      0.02844     -0.14239      0.09033 : 2     1     0
                      0.48578      0.56370      0.40990 : 2     1    -1
                      0.48578      0.13063      0.68463 : 2     1     1
 STATE  5:  12672.43
                      0.55556     -0.25303     -0.70110 : 2     1     0
                      0.22222      0.37378      0.28724 : 2     1    -1
                      0.22222      0.10419     -0.45974 : 2     1     1
 STATE  6:  12672.43
                      0.41601      0.63369     -0.12016 : 2     1     0
                      0.29200      0.49357     -0.21997 : 2     1    -1
                      0.29200     -0.53983     -0.02403 : 2     1     1
 STATE  7:  15949.20
                      1.00000     -0.60145     -0.79891 : 1     0     0
 STATE  8:  17537.07
                      0.37514     -0.59368      0.15058 : 3     1     0
                      0.31243     -0.49138      0.26641 : 3     1    -1
                      0.31243      0.55896      0.00000 : 3     1     1
 STATE  9:  17537.07
                      0.02949      0.06431      0.15923 : 3     1     0
                      0.48526      0.50118     -0.48381 : 3     1    -1
                      0.48526      0.69660     -0.00000 : 3     1     1
 STATE 10:  17537.07
                      0.59537      0.63817     -0.43373 : 3     1     0
                      0.20231     -0.16555      0.41822 : 3     1    -1
                      0.20231      0.44979      0.00000 : 3     1     1
 STATE 11:  17837.86
                      1.00000      0.66302     -0.74860 : 2     0     0
 STATE 12:  20591.98
                      1.00000      0.49890      0.86666 : 3     0     0

-----------------------------
TD-DFT/TDA-EXCITATION SPECTRA
-----------------------------

Center of mass = (-14.1796,-17.3822, -0.2481)
Calculating the Dipole integrals                  ... done
Transforming integrals                            ... done
Calculating the Linear Momentum integrals         ... done
Transforming integrals                            ... done
Calculating angular momentum integrals            ... done
Transforming integrals                            ... done

-----------------------------------------------------------------------------
         ABSORPTION SPECTRUM VIA TRANSITION ELECTRIC DIPOLE MOMENTS
-----------------------------------------------------------------------------
State   Energy    Wavelength  fosc         T2        TX        TY        TZ  
        (cm-1)      (nm)                 (au**2)    (au)      (au)      (au) 
-----------------------------------------------------------------------------
   1   15949.2    627.0   2.358715386  48.68690   4.02222   5.63901  -0.84275
   2   17837.9    560.6   0.010963990   0.20235  -0.11712   0.43425   0.00759
   3   20592.0    485.6   0.058376711   0.93329   0.33601   0.87963   0.21595
   4   11412.2    876.3   spin forbidden (mult=3)
   5   12672.4    789.1   spin forbidden (mult=3)
   6   17537.1    570.2   spin forbidden (mult=3)

-----------------------------------------------------------------------------
         ABSORPTION SPECTRUM VIA TRANSITION VELOCITY DIPOLE MOMENTS
-----------------------------------------------------------------------------
State   Energy    Wavelength   fosc        P2         PX        PY        PZ  
        (cm-1)      (nm)                 (au**2)     (au)      (au)      (au) 
-----------------------------------------------------------------------------
   1   15949.2    627.0   0.651853061   0.07106  -0.16285  -0.21029   0.01775
   2   17837.9    560.6   0.011450743   0.00140  -0.02318  -0.00929   0.02779
   3   20592.0    485.6   0.053571517   0.00754  -0.02534  -0.05359   0.06345
   4   11412.2    876.3   spin forbidden (mult=3)
   5   12672.4    789.1   spin forbidden (mult=3)
   6   17537.1    570.2   spin forbidden (mult=3)

-------------------------------------------------------------------
                             CD SPECTRUM
-------------------------------------------------------------------
State  Energy     Wavelength     R         MX        MY        MZ   
       (cm-1)       (nm)     (1e40*cgs)   (au)      (au)      (au)  
-------------------------------------------------------------------
   1   15949.2    627.0    182.78461   0.18009  -0.05161   0.05414
   2   17837.9    560.6      4.23177  -0.03133   0.01207   0.00881
   3   20592.0    485.6     22.39574  -0.18470   0.09346   0.12667
   4   11412.2    876.3 spin forbidden
   5   12672.4    789.1 spin forbidden
   6   17537.1    570.2 spin forbidden

-------------------------------------------
SOC CORRECTED TD-DFT/TDA-EXCITATION SPECTRA
--------------------------------------------

-----------------------------------------------------------------------------
  SOC CORRECTED ABSORPTION SPECTRUM VIA TRANSITION ELECTRIC DIPOLE MOMENTS*  
-----------------------------------------------------------------------------
State   Energy  Wavelength   fosc         T2         TX        TY        TZ  
        (cm-1)    (nm)                  (au**2)     (au)      (au)      (au) 
-----------------------------------------------------------------------------
   1   11412.2    876.3   0.000000000   0.00000   0.00010   0.00004   0.00005
   2   11412.2    876.3   0.000000000   0.00000   0.00001   0.00001   0.00000
   3   11412.2    876.3   0.000000005   0.00000   0.00023   0.00027   0.00004
   4   12672.4    789.1   0.000000007   0.00000   0.00025   0.00033   0.00009
   5   12672.4    789.1   0.000000000   0.00000   0.00005   0.00005   0.00001
   6   12672.4    789.1   0.000000002   0.00000   0.00018   0.00016   0.00001
   7   15949.2    627.0   2.358715248  48.68690   4.02222   5.63901   0.84275
   8   17537.1    570.2   0.000000051   0.00000   0.00072   0.00062   0.00024
   9   17537.1    570.2   0.000000032   0.00000   0.00023   0.00073   0.00009
  10   17537.1    570.2   0.000000047   0.00000   0.00055   0.00076   0.00013
  11   17837.9    560.6   0.010963974   0.20235   0.11712   0.43425   0.00759
  12   20592.0    485.6   0.058376718   0.93329   0.33601   0.87963   0.21595

-----------------------------------------------------------------------------
  SOC CORRECTED ABSORPTION SPECTRUM VIA TRANSITION VELOCITY DIPOLE MOMENTS*  
-----------------------------------------------------------------------------
State   Energy  Wavelength   fosc         P2         PX        PY        PZ  
        (cm-1)    (nm)                  (au**2)     (au)      (au)      (au) 
-----------------------------------------------------------------------------
   1   11412.2    876.3   0.000000001   0.00000   0.00000   0.00000   0.00001
   2   11412.2    876.3   0.000000000   0.00000   0.00000   0.00000   0.00000
   3   11412.2    876.3   0.000000000   0.00000   0.00000   0.00001   0.00000
   4   12672.4    789.1   0.000000000   0.00000   0.00000   0.00000   0.00000
   5   12672.4    789.1   0.000000000   0.00000   0.00000   0.00000   0.00000
   6   12672.4    789.1   0.000000002   0.00000   0.00001   0.00001   0.00000
   7   15949.2    627.0   0.651853011   0.07106   0.16285   0.21029   0.01775
   8   17537.1    570.2   0.000000010   0.00000   0.00001   0.00002   0.00003
   9   17537.1    570.2   0.000000012   0.00000   0.00003   0.00002   0.00002
  10   17537.1    570.2   0.000000010   0.00000   0.00002   0.00003   0.00000
  11   17837.9    560.6   0.011450731   0.00140   0.02318   0.00929   0.02779
  12   20592.0    485.6   0.053571513   0.00754   0.02534   0.05359   0.06345

-------------------------------------------------------------------
                    SOC CORRECTED CD SPECTRUM*                     
-------------------------------------------------------------------
State   Energy Wavelength       R         MX        MY        MZ   
        (cm-1)   (nm)       (1e40*sgs)   (au)      (au)      (au)  
-------------------------------------------------------------------
   1   11412.2    876.3      0.00000   0.00003   0.00001   0.00001
   2   11412.2    876.3      0.00000   0.00000   0.00000   0.00000
   3   11412.2    876.3      0.00000   0.00001   0.00001   0.00000
   4   12672.4    789.1      0.00000   0.00001   0.00001   0.00001
   5   12672.4    789.1      0.00000   0.00000   0.00000   0.00000
   6   12672.4    789.1      0.00000   0.00002   0.00001   0.00000
   7   15949.2    627.0    182.78459   0.18009   0.05161   0.05414
   8   17537.1    570.2      0.00002   0.00010   0.00004   0.00003
   9   17537.1    570.2      0.00000   0.00000   0.00001   0.00000
  10   17537.1    570.2      0.00000   0.00003   0.00001   0.00000
  11   17837.9    560.6      4.23176   0.03133   0.01207   0.00881
  12   20592.0    485.6     22.39573   0.18470   0.09346   0.12667

*The X,Y and Z components are the absolute values of the complex numbers

Total run time:    12462.505 sec

           *** ORCA-CIS/TD-DFT FINISHED WITHOUT ERROR ***

---------------------------
SOC CIS/TD-DFT TOTAL ENERGY
---------------------------

    E(SCF)        =  -3517.175693949 Eh
    E(SOC CIS)    =      0.051997583 Eh (SOC Root  1)
    ----------------------------- ---------
    E(tot)        =  -3517.123696366 Eh


-------------------------   --------------------
FINAL SINGLE POINT ENERGY     -3517.123696365893
-------------------------   --------------------


                            ***************************************
                            *     ORCA property calculations      *
                            ***************************************

                                    ---------------------
                                    Active property flags
                                    ---------------------
   (+) Dipole Moment


------------------------------------------------------------------------------
                       ORCA ELECTRIC PROPERTIES CALCULATION
------------------------------------------------------------------------------

Dipole Moment Calculation                       ... on
Quadrupole Moment Calculation                   ... off
Polarizability Calculation                      ... off
GBWName                                         ... FDICTF.gbw
Electron density file                           ... FDICTF.scfp
The origin for moment calculation is the CENTER OF MASS  = (-14.179597, -17.382240 -0.248114)

-------------
DIPOLE MOMENT
-------------
                                X             Y             Z
Electronic contribution:     24.44045     -19.24617      18.50618
Nuclear contribution   :    -26.46711      21.08640     -16.85337
                        -----------------------------------------
Total Dipole Moment    :     -2.02666       1.84022       1.65281
                        -----------------------------------------
Magnitude (a.u.)       :      3.19774
Magnitude (Debye)      :      8.12801



--------------------
Rotational spectrum 
--------------------
 
Rotational constants in cm-1:     0.003091     0.000286     0.000272 
Rotational constants in MHz :    92.668831     8.577575     8.161675 

 Dipole components along the rotational axes: 
x,y,z [a.u.] :    -0.069823    -0.715862     3.115801 
x,y,z [Debye]:    -0.177476    -1.819578     7.919737 

 

Timings for individual modules:

Sum of individual times         ...    15229.727 sec (= 253.829 min)
GTO integral calculation        ...        7.765 sec (=   0.129 min)   0.1 %
SCF iterations                  ...     2757.651 sec (=  45.961 min)  18.1 %
CIS module                      ...    12464.311 sec (= 207.739 min)  81.8 %
                             ****ORCA TERMINATED NORMALLY****
TOTAL RUN TIME: 0 days 4 hours 13 minutes 52 seconds 422 msec
