
                                 *****************
                                 * O   R   C   A *
                                 *****************

           --- An Ab Initio, DFT and Semiempirical electronic structure package ---

                  #######################################################
                  #                        -***-                        #
                  #          Department of theory and spectroscopy      #
                  #               Directorship: Frank Neese             #
                  #        Max Planck Institute fuer Kohlenforschung    #
                  #                Kaiser Wilhelm Platz 1               #
                  #                 D-45470 Muelheim/Ruhr               #
                  #                      Germany                        #
                  #                                                     #
                  #                  All rights reserved                #
                  #                        -***-                        #
                  #######################################################


                         Program Version 4.2.0 -  RELEASE  -


 With contributions from (in alphabetic order):
   Daniel Aravena         : Magnetic Suceptibility
   Michael Atanasov       : Ab Initio Ligand Field Theory (pilot matlab implementation)
   Alexander A. Auer      : GIAO ZORA, VPT2
   Ute Becker             : Parallelization
   Giovanni Bistoni       : ED, misc. LED, open-shell LED, HFLED
   Martin Brehm           : Molecular dynamics
   Dmytro Bykov           : SCF Hessian
   Vijay G. Chilkuri      : MRCI spin determinant printing, contributions to CSF-ICE
   Dipayan Datta          : RHF DLPNO-CCSD density
   Achintya Kumar Dutta   : EOM-CC, STEOM-CC
   Dmitry Ganyushin       : Spin-Orbit,Spin-Spin,Magnetic field MRCI
   Miquel Garcia          : C-PCM Hessian, Gaussian charge scheme
   Yang Guo               : DLPNO-NEVPT2, CIM, IAO-localization
   Andreas Hansen         : Spin unrestricted coupled pair/coupled cluster methods
   Benjamin Helmich-Paris : CASSCF linear response (MC-RPA)
   Lee Huntington         : MR-EOM, pCC
   Robert Izsak           : Overlap fitted RIJCOSX, COSX-SCS-MP3, EOM
   Christian Kollmar      : KDIIS, OOCD, Brueckner-CCSD(T), CCSD density
   Simone Kossmann        : Meta GGA functionals, TD-DFT gradient, OOMP2, MP2 Hessian
   Martin Krupicka        : AUTO-CI
   Lucas Lang             : DCDCAS
   Dagmar Lenk            : GEPOL surface, SMD
   Dimitrios Liakos       : Extrapolation schemes; Compound Job, initial MDCI parallelization
   Dimitrios Manganas     : Further ROCIS development; embedding schemes
   Dimitrios Pantazis     : SARC Basis sets
   Taras Petrenko         : DFT Hessian,TD-DFT gradient, ASA, ECA, R-Raman, ABS, FL, XAS/XES, NRVS
   Peter Pinski           : DLPNO-MP2, DLPNO-MP2 Gradient
   Christoph Reimann      : Effective Core Potentials
   Marius Retegan         : Local ZFS, SOC
   Christoph Riplinger    : Optimizer, TS searches, QM/MM, DLPNO-CCSD(T), (RO)-DLPNO pert. Triples
   Tobias Risthaus        : Range-separated hybrids, TD-DFT gradient, RPA, STAB
   Michael Roemelt        : Original ROCIS implementation
   Masaaki Saitow         : Open-shell DLPNO-CCSD energy and density
   Barbara Sandhoefer     : DKH picture change effects
   Avijit Sen             : IP-ROCIS
   Kantharuban Sivalingam : CASSCF convergence, NEVPT2, FIC-MRCI
   Bernardo de Souza      : ESD, SOC TD-DFT
   Georgi Stoychev        : AutoAux, RI-MP2 NMR
   Willem Van den Heuvel  : Paramagnetic NMR
   Boris Wezisla          : Elementary symmetry handling
   Frank Wennmohs         : Technical directorship


 We gratefully acknowledge several colleagues who have allowed us to
 interface, adapt or use parts of their codes:
   Stefan Grimme, W. Hujo, H. Kruse,             : VdW corrections, initial TS optimization,
                  C. Bannwarth                     DFT functionals, gCP, sTDA/sTD-DF
   Ed Valeev, F. Pavosevic, A. Kumar             : LibInt (2-el integral package), F12 methods
   Garnet Chan, S. Sharma, J. Yang, R. Olivares  : DMRG
   Ulf Ekstrom                                   : XCFun DFT Library
   Mihaly Kallay                                 : mrcc  (arbitrary order and MRCC methods)
   Andreas Klamt, Michael Diedenhofen            : otool_cosmo (COSMO solvation model)
   Jiri Pittner, Ondrej Demel                    : Mk-CCSD
   Frank Weinhold                                : gennbo (NPA and NBO analysis)
   Christopher J. Cramer and Donald G. Truhlar   : smd solvation model
   Lars Goerigk                                  : TD-DFT with DH, B97 family of functionals
   V. Asgeirsson, H. Jonsson                     : NEB implementation
   FAccTs GmbH                                   : IRC, NEB, NEB-TS, Multilevel, MM, QM/MM, CI optimization
   S Lehtola, MJT Oliveira, MAL Marques          : LibXC Library


 Your calculation uses the libint2 library for the computation of 2-el integrals
 For citations please refer to: http://libint.valeyev.net

 Your ORCA version has been built with support for libXC version: 4.2.3
 For citations please refer to: https://tddft.org/programs/libxc/

 This ORCA versions uses:
   CBLAS   interface :  Fast vector & matrix operations
   LAPACKE interface :  Fast linear algebra routines
   SCALAPACK package :  Parallel linear algebra routines


----- Orbital basis set information -----
Your calculation utilizes the basis: def2-TZVP
   F. Weigend and R. Ahlrichs, Phys. Chem. Chem. Phys. 7, 3297 (2005).

----- AuxJ basis set information -----
Your calculation utilizes the auxiliary basis: def2/J
   F. Weigend, Phys. Chem. Chem. Phys. 8, 1057 (2006).

================================================================================
                                        WARNINGS
                       Please study these warnings very carefully!
================================================================================

INFO   : Checking CIS options ...

WARNING: (CIS/TDDFT): Spin-orbit needs TRIPLETS set to TRUE
  ===> : ajusting flags

WARNING: CIS/ROCIS methods need fully converged wavefunctions
  ===> : Setting SCFConvForced true
         You can overwrite this default with %scf ConvForced false 


INFO   : the flag for use of LIBINT has been found!

================================================================================
                                       INPUT FILE
================================================================================
NAME = H2.inp
|  1> # ORCA input file
|  2> # H2.out
|  3> ! B3LYP def2-TZVP def2/J RIJCOSX Grid4 TightSCF
|  4> 
|  5> %maxcore 2000
|  6> %tddft
|  7>   maxdim 5
|  8>   nroots 3
|  9>   dosoc true
| 10>   end
| 11> 
| 12> 
| 13> 
| 14> * xyz 0 1
| 15>    C        1.75640        -1.75825        -1.75321
| 16>    O        2.27973        -1.32069        -2.75288
| 17>    C        2.38931        -2.06271        -0.45189
| 18>    C        3.71959        -1.98277        -0.08604
| 19>    C        4.07804        -2.35402         1.20040
| 20>    C        3.10716        -2.79808         2.09140
| 21>   Cl        3.57918        -3.27108         3.67900
| 22>    C        1.76213        -2.87260         1.74206
| 23>    C        1.40829        -2.49761         0.45868
| 24>    C        0.10028        -2.41408        -0.19024
| 25>    C       -1.10195        -2.29907         0.45867
| 26>    C       -2.27948        -1.87127        -0.18990
| 27>    N       -3.23661        -1.46832        -0.67944
| 28>    C       -1.28077        -2.50724         1.83971
| 29>    N       -1.49237        -2.70020         2.95154
| 30>    C        0.33599        -2.16105        -1.59249
| 31>    C       -0.46150        -2.31340        -2.68873
| 32>    C       -1.65158        -3.05611        -2.81961
| 33>    S       -2.02732        -4.39309        -1.73011
| 34>    C       -3.50031        -4.69919        -2.57272
| 35>    C       -3.66072        -3.81789        -3.65081
| 36>    C       -2.61516        -2.90522        -3.81098
| 37>    C       -2.60929        -1.82432        -4.83732
| 38>    C       -3.10663        -0.51143        -4.22694
| 39>    S       -5.14755        -4.07116        -4.53579
| 40>    C       -5.54631        -5.34904        -3.44398
| 41>    C       -4.58273        -5.57308        -2.45292
| 42>    N       -4.98471        -6.58627        -1.62714
| 43>    C       -4.02602        -7.18107        -0.72814
| 44>    C       -6.21935        -7.03254        -2.06799
| 45>    C       -6.57168        -6.27820        -3.22861
| 46>    C       -7.72743        -6.55448        -3.99103
| 47>    N       -8.15052        -5.96219        -5.09673
| 48>    S       -9.49780        -6.70971        -5.59386
| 49>    N       -9.59226        -7.81674        -4.41640
| 50>    C       -8.57176        -7.63879        -3.59217
| 51>    C       -8.27148        -8.32820        -2.39723
| 52>    C       -7.13573        -8.01034        -1.59171
| 53>    N       -7.20055        -8.77778        -0.44125
| 54>    C       -6.50077        -8.66452         0.81519
| 55>    C       -6.74062        -7.32395         1.53167
| 56>    C       -8.32228        -9.55667        -0.51481
| 57>    C       -8.99533        -9.31573        -1.71788
| 58>    S      -10.44926       -10.23017        -1.90272
| 59>    C      -10.16440       -10.95628        -0.33591
| 60>    C       -8.99648       -10.48722         0.28177
| 61>    S       -8.81177       -11.16875         1.85216
| 62>    C      -10.27746       -12.13011         1.63954
| 63>    C      -10.89608       -11.88294         0.41885
| 64>    C      -12.25083       -12.35682         0.00255
| 65>    C      -12.21484       -13.13914        -1.31027
| 66>    C      -10.69301       -12.88508         2.75843
| 67>    C      -11.34526       -14.08737         2.74110
| 68>    C      -11.98010       -14.73701         3.86570
| 69>    C      -12.27732       -14.16366         5.07483
| 70>    C      -12.00673       -12.82099         5.41278
| 71>    N      -11.83786       -11.73548         5.74708
| 72>    C      -12.91546       -14.83699         6.13705
| 73>    N      -13.42348       -15.33000         7.04063
| 74>    C      -12.33681       -16.09259         3.44854
| 75>    C      -12.96121       -17.12145         4.13262
| 76>    C      -13.18221       -18.31540         3.45251
| 77>   Cl      -13.96122       -19.60871         4.28239
| 78>    C      -12.79359       -18.49643         2.12984
| 79>    C      -12.16029       -17.46799         1.45044
| 80>    C      -11.94235       -16.27414         2.11135
| 81>    C      -11.28818       -15.04782         1.61346
| 82>    O      -10.71212       -14.91188         0.55543
| 83>    C       -3.54087        -8.56611        -1.19009
| 84>    C       -2.82537        -8.48528        -2.54992
| 85>    C       -2.61706        -9.15027        -0.11089
| 86>    C       -2.46007       -10.66156        -0.23061
| 87>    C       -3.73135        -8.78649        -3.73936
| 88>    C       -8.22130        -7.14138         1.90507
| 89>    C       -9.03510        -6.39432         0.85343
| 90>    C       -5.84768        -7.26555         2.78086
| 91>    C       -5.62945        -5.84146         3.27828
| 92>    H        4.45678        -1.63628        -0.79347
| 93>    H        5.10725        -2.30353         1.51874
| 94>    H        1.03498        -3.22228         2.45692
| 95>    H       -0.08221        -1.86056        -3.60012
| 96>    H       -3.26809        -2.11765        -5.65690
| 97>    H       -1.60099        -1.68393        -5.23213
| 98>    H       -4.11183        -0.63651        -3.83310
| 99>    H       -3.12071         0.26937        -4.98249
|100>    H       -2.45829        -0.20149        -3.41088
|101>    H       -4.43126        -7.22354         0.28163
|102>    H       -3.16789        -6.50406        -0.69510
|103>    H       -5.43663        -8.84621         0.66631
|104>    H       -6.87320        -9.47074         1.45310
|105>    H       -6.45554        -6.50763         0.85890
|106>    H      -12.88189       -11.47191        -0.13133
|107>    H      -12.68906       -12.97049         0.79005
|108>    H      -11.84697       -12.51338        -2.11893
|109>    H      -13.21621       -13.47933        -1.56134
|110>    H      -11.56374       -14.00260        -1.21071
|111>    H      -10.42223       -12.46304         3.71984
|112>    H      -13.27143       -17.02375         5.15984
|113>    H      -12.98758       -19.43894         1.64285
|114>    H      -11.84537       -17.58532         0.42516
|115>    H       -4.41024        -9.22398        -1.29910
|116>    H       -2.00629        -9.20559        -2.56137
|117>    H       -2.37997        -7.49532        -2.67056
|118>    H       -3.01868        -8.92315         0.88025
|119>    H       -1.63992        -8.66856        -0.18096
|120>    H       -3.42236       -11.15581        -0.11344
|121>    H       -1.78994       -11.03143         0.54122
|122>    H       -2.05002       -10.94051        -1.19765
|123>    H       -4.17293        -9.77604        -3.63973
|124>    H       -3.15410        -8.76425        -4.66076
|125>    H       -4.53615        -8.06273        -3.83187
|126>    H       -8.28004        -6.57575         2.83568
|127>    H       -8.67323        -8.11700         2.09593
|128>    H       -8.60059        -5.41526         0.66167
|129>    H      -10.05298        -6.24959         1.20783
|130>    H       -9.08346        -6.93495        -0.08749
|131>    H       -4.87151        -7.70586         2.55931
|132>    H       -6.30144        -7.86897         3.56918
|133>    H       -5.13866        -5.23925         2.51631
|134>    H       -5.00045        -5.84532         4.16456
|135>    H       -6.57165        -5.36437         3.53377
|136> *
|137> 
|138>                          ****END OF INPUT****
================================================================================

                       ****************************
                       * Single Point Calculation *
                       ****************************

---------------------------------
CARTESIAN COORDINATES (ANGSTROEM)
---------------------------------
  C      1.756400   -1.758250   -1.753210
  O      2.279730   -1.320690   -2.752880
  C      2.389310   -2.062710   -0.451890
  C      3.719590   -1.982770   -0.086040
  C      4.078040   -2.354020    1.200400
  C      3.107160   -2.798080    2.091400
  Cl     3.579180   -3.271080    3.679000
  C      1.762130   -2.872600    1.742060
  C      1.408290   -2.497610    0.458680
  C      0.100280   -2.414080   -0.190240
  C     -1.101950   -2.299070    0.458670
  C     -2.279480   -1.871270   -0.189900
  N     -3.236610   -1.468320   -0.679440
  C     -1.280770   -2.507240    1.839710
  N     -1.492370   -2.700200    2.951540
  C      0.335990   -2.161050   -1.592490
  C     -0.461500   -2.313400   -2.688730
  C     -1.651580   -3.056110   -2.819610
  S     -2.027320   -4.393090   -1.730110
  C     -3.500310   -4.699190   -2.572720
  C     -3.660720   -3.817890   -3.650810
  C     -2.615160   -2.905220   -3.810980
  C     -2.609290   -1.824320   -4.837320
  C     -3.106630   -0.511430   -4.226940
  S     -5.147550   -4.071160   -4.535790
  C     -5.546310   -5.349040   -3.443980
  C     -4.582730   -5.573080   -2.452920
  N     -4.984710   -6.586270   -1.627140
  C     -4.026020   -7.181070   -0.728140
  C     -6.219350   -7.032540   -2.067990
  C     -6.571680   -6.278200   -3.228610
  C     -7.727430   -6.554480   -3.991030
  N     -8.150520   -5.962190   -5.096730
  S     -9.497800   -6.709710   -5.593860
  N     -9.592260   -7.816740   -4.416400
  C     -8.571760   -7.638790   -3.592170
  C     -8.271480   -8.328200   -2.397230
  C     -7.135730   -8.010340   -1.591710
  N     -7.200550   -8.777780   -0.441250
  C     -6.500770   -8.664520    0.815190
  C     -6.740620   -7.323950    1.531670
  C     -8.322280   -9.556670   -0.514810
  C     -8.995330   -9.315730   -1.717880
  S    -10.449260  -10.230170   -1.902720
  C    -10.164400  -10.956280   -0.335910
  C     -8.996480  -10.487220    0.281770
  S     -8.811770  -11.168750    1.852160
  C    -10.277460  -12.130110    1.639540
  C    -10.896080  -11.882940    0.418850
  C    -12.250830  -12.356820    0.002550
  C    -12.214840  -13.139140   -1.310270
  C    -10.693010  -12.885080    2.758430
  C    -11.345260  -14.087370    2.741100
  C    -11.980100  -14.737010    3.865700
  C    -12.277320  -14.163660    5.074830
  C    -12.006730  -12.820990    5.412780
  N    -11.837860  -11.735480    5.747080
  C    -12.915460  -14.836990    6.137050
  N    -13.423480  -15.330000    7.040630
  C    -12.336810  -16.092590    3.448540
  C    -12.961210  -17.121450    4.132620
  C    -13.182210  -18.315400    3.452510
  Cl   -13.961220  -19.608710    4.282390
  C    -12.793590  -18.496430    2.129840
  C    -12.160290  -17.467990    1.450440
  C    -11.942350  -16.274140    2.111350
  C    -11.288180  -15.047820    1.613460
  O    -10.712120  -14.911880    0.555430
  C     -3.540870   -8.566110   -1.190090
  C     -2.825370   -8.485280   -2.549920
  C     -2.617060   -9.150270   -0.110890
  C     -2.460070  -10.661560   -0.230610
  C     -3.731350   -8.786490   -3.739360
  C     -8.221300   -7.141380    1.905070
  C     -9.035100   -6.394320    0.853430
  C     -5.847680   -7.265550    2.780860
  C     -5.629450   -5.841460    3.278280
  H      4.456780   -1.636280   -0.793470
  H      5.107250   -2.303530    1.518740
  H      1.034980   -3.222280    2.456920
  H     -0.082210   -1.860560   -3.600120
  H     -3.268090   -2.117650   -5.656900
  H     -1.600990   -1.683930   -5.232130
  H     -4.111830   -0.636510   -3.833100
  H     -3.120710    0.269370   -4.982490
  H     -2.458290   -0.201490   -3.410880
  H     -4.431260   -7.223540    0.281630
  H     -3.167890   -6.504060   -0.695100
  H     -5.436630   -8.846210    0.666310
  H     -6.873200   -9.470740    1.453100
  H     -6.455540   -6.507630    0.858900
  H    -12.881890  -11.471910   -0.131330
  H    -12.689060  -12.970490    0.790050
  H    -11.846970  -12.513380   -2.118930
  H    -13.216210  -13.479330   -1.561340
  H    -11.563740  -14.002600   -1.210710
  H    -10.422230  -12.463040    3.719840
  H    -13.271430  -17.023750    5.159840
  H    -12.987580  -19.438940    1.642850
  H    -11.845370  -17.585320    0.425160
  H     -4.410240   -9.223980   -1.299100
  H     -2.006290   -9.205590   -2.561370
  H     -2.379970   -7.495320   -2.670560
  H     -3.018680   -8.923150    0.880250
  H     -1.639920   -8.668560   -0.180960
  H     -3.422360  -11.155810   -0.113440
  H     -1.789940  -11.031430    0.541220
  H     -2.050020  -10.940510   -1.197650
  H     -4.172930   -9.776040   -3.639730
  H     -3.154100   -8.764250   -4.660760
  H     -4.536150   -8.062730   -3.831870
  H     -8.280040   -6.575750    2.835680
  H     -8.673230   -8.117000    2.095930
  H     -8.600590   -5.415260    0.661670
  H    -10.052980   -6.249590    1.207830
  H     -9.083460   -6.934950   -0.087490
  H     -4.871510   -7.705860    2.559310
  H     -6.301440   -7.868970    3.569180
  H     -5.138660   -5.239250    2.516310
  H     -5.000450   -5.845320    4.164560
  H     -6.571650   -5.364370    3.533770

----------------------------
CARTESIAN COORDINATES (A.U.)
----------------------------
  NO LB      ZA    FRAG     MASS         X           Y           Z
   0 C     6.0000    0    12.011    3.319115   -3.322611   -3.313087
   1 O     8.0000    0    15.999    4.308065   -2.495742   -5.202189
   2 C     6.0000    0    12.011    4.515142   -3.897957   -0.853948
   3 C     6.0000    0    12.011    7.029006   -3.746892   -0.162592
   4 C     6.0000    0    12.011    7.706379   -4.448453    2.268427
   5 C     6.0000    0    12.011    5.871681   -5.287605    3.952173
   6 Cl   17.0000    0    35.453    6.763670   -6.181445    6.952302
   7 C     6.0000    0    12.011    3.329943   -5.428427    3.292016
   8 C     6.0000    0    12.011    2.661282   -4.719799    0.866780
   9 C     6.0000    0    12.011    0.189502   -4.561950   -0.359501
  10 C     6.0000    0    12.011   -2.082384   -4.344613    0.866761
  11 C     6.0000    0    12.011   -4.307593   -3.536188   -0.358859
  12 N     7.0000    0    14.007   -6.116307   -2.774723   -1.283956
  13 C     6.0000    0    12.011   -2.420305   -4.737997    3.476548
  14 N     7.0000    0    14.007   -2.820171   -5.102639    5.577602
  15 C     6.0000    0    12.011    0.634929   -4.083793   -3.009370
  16 C     6.0000    0    12.011   -0.872109   -4.371692   -5.080963
  17 C     6.0000    0    12.011   -3.121034   -5.775211   -5.328291
  18 S    16.0000    0    32.060   -3.831080   -8.301737   -3.269434
  19 C     6.0000    0    12.011   -6.614627   -8.880182   -4.861736
  20 C     6.0000    0    12.011   -6.917758   -7.214767   -6.899031
  21 C     6.0000    0    12.011   -4.941936   -5.490070   -7.201709
  22 C     6.0000    0    12.011   -4.930844   -3.447465   -9.141210
  23 C     6.0000    0    12.011   -5.870680   -0.966463   -7.987759
  24 S    16.0000    0    32.060   -9.727460   -7.693377   -8.571401
  25 C     6.0000    0    12.011  -10.481007  -10.108221   -6.508179
  26 C     6.0000    0    12.011   -8.660105  -10.531595   -4.635347
  27 N     7.0000    0    14.007   -9.419737  -12.446247   -3.074849
  28 C     6.0000    0    12.011   -7.608075  -13.570256   -1.375985
  29 C     6.0000    0    12.011  -11.752868  -13.289575   -3.907935
  30 C     6.0000    0    12.011  -12.418675  -11.864079   -6.101189
  31 C     6.0000    0    12.011  -14.602726  -12.386172   -7.541954
  32 N     7.0000    0    14.007  -15.402251  -11.266906   -9.631424
  33 S    16.0000    0    32.060  -17.948241  -12.679514  -10.570863
  34 N     7.0000    0    14.007  -18.126744  -14.771498   -8.345786
  35 C     6.0000    0    12.011  -16.198279  -14.435221   -6.788218
  36 C     6.0000    0    12.011  -15.630832  -15.738017   -4.530108
  37 C     6.0000    0    12.011  -13.484575  -15.137349   -3.007896
  38 N     7.0000    0    14.007  -13.607068  -16.587600   -0.833842
  39 C     6.0000    0    12.011  -12.284675  -16.373570    1.540486
  40 C     6.0000    0    12.011  -12.737926  -13.840260    2.894437
  41 C     6.0000    0    12.011  -15.726830  -18.059489   -0.972850
  42 C     6.0000    0    12.011  -16.998710  -17.604178   -3.246323
  43 S    16.0000    0    32.060  -19.746240  -19.332220   -3.595620
  44 C     6.0000    0    12.011  -19.207932  -20.704369   -0.634778
  45 C     6.0000    0    12.011  -17.000883  -19.817974    0.532468
  46 S    16.0000    0    32.060  -16.651832  -21.105879    3.500075
  47 C     6.0000    0    12.011  -19.421585  -22.922586    3.098282
  48 C     6.0000    0    12.011  -20.590607  -22.455502    0.791512
  49 C     6.0000    0    12.011  -23.150714  -23.351006    0.004819
  50 C     6.0000    0    12.011  -23.082702  -24.829376   -2.476051
  51 C     6.0000    0    12.011  -20.206860  -24.349272    5.212677
  52 C     6.0000    0    12.011  -21.439434  -26.621271    5.179928
  53 C     6.0000    0    12.011  -22.639108  -27.848913    7.305114
  54 C     6.0000    0    12.011  -23.200772  -26.765438    9.590039
  55 C     6.0000    0    12.011  -22.689431  -24.228160   10.228672
  56 N     7.0000    0    14.007  -22.370313  -22.176843   10.860407
  57 C     6.0000    0    12.011  -24.406682  -28.037848   11.597344
  58 N     7.0000    0    14.007  -25.366701  -28.969502   13.304863
  59 C     6.0000    0    12.011  -23.313192  -30.410588    6.516796
  60 C     6.0000    0    12.011  -24.493137  -32.354852    7.809520
  61 C     6.0000    0    12.011  -24.910767  -34.611090    6.524298
  62 Cl   17.0000    0    35.453  -26.382882  -37.055092    8.092544
  63 C     6.0000    0    12.011  -24.176381  -34.953187    4.024814
  64 C     6.0000    0    12.011  -22.979618  -33.009717    2.740934
  65 C     6.0000    0    12.011  -22.567771  -30.753668    3.989873
  66 C     6.0000    0    12.011  -21.331569  -28.436259    3.048998
  67 O     8.0000    0    15.999  -20.242973  -28.179369    1.049611
  68 C     6.0000    0    12.011   -6.691275  -16.187602   -2.248944
  69 C     6.0000    0    12.011   -5.339176  -16.034855   -4.818650
  70 C     6.0000    0    12.011   -4.945527  -17.291504   -0.209552
  71 C     6.0000    0    12.011   -4.648859  -20.147429   -0.435790
  72 C     6.0000    0    12.011   -7.051230  -16.604060   -7.066366
  73 C     6.0000    0    12.011  -15.536005  -13.495252    3.600061
  74 C     6.0000    0    12.011  -17.073865  -12.083514    1.612749
  75 C     6.0000    0    12.011  -11.050514  -13.729900    5.255064
  76 C     6.0000    0    12.011  -10.638119  -11.038760    6.195051
  77 H     1.0000    0     1.008    8.422094   -3.092121   -1.499441
  78 H     1.0000    0     1.008    9.651304   -4.353041    2.870003
  79 H     1.0000    0     1.008    1.955829   -6.089227    4.642906
  80 H     1.0000    0     1.008   -0.155354   -3.515949   -6.803241
  81 H     1.0000    0     1.008   -6.175795   -4.001779  -10.689992
  82 H     1.0000    0     1.008   -3.025433   -3.182167   -9.887293
  83 H     1.0000    0     1.008   -7.770233   -1.202830   -7.243509
  84 H     1.0000    0     1.008   -5.897287    0.509036   -9.415542
  85 H     1.0000    0     1.008   -4.645495   -0.380761   -6.445629
  86 H     1.0000    0     1.008   -8.373868  -13.650512    0.532204
  87 H     1.0000    0     1.008   -5.986445  -12.290892   -1.313549
  88 H     1.0000    0     1.008  -10.273742  -16.716914    1.259143
  89 H     1.0000    0     1.008  -12.988466  -17.897105    2.745961
  90 H     1.0000    0     1.008  -12.199203  -12.297638    1.623086
  91 H     1.0000    0     1.008  -24.343244  -21.678768   -0.248178
  92 H     1.0000    0     1.008  -23.978848  -24.510674    1.492978
  93 H     1.0000    0     1.008  -22.387529  -23.646861   -4.004197
  94 H     1.0000    0     1.008  -24.975017  -25.472242   -2.950505
  95 H     1.0000    0     1.008  -21.852302  -26.461079   -2.287910
  96 H     1.0000    0     1.008  -19.695160  -23.551732    7.029479
  97 H     1.0000    0     1.008  -25.079368  -32.170225    9.750684
  98 H     1.0000    0     1.008  -24.542969  -36.734273    3.104537
  99 H     1.0000    0     1.008  -22.384505  -33.231439    0.803436
 100 H     1.0000    0     1.008   -8.334146  -17.430796   -2.454943
 101 H     1.0000    0     1.008   -3.791339  -17.396044   -4.840288
 102 H     1.0000    0     1.008   -4.497492  -14.164102   -5.046627
 103 H     1.0000    0     1.008   -5.704478  -16.862310    1.663431
 104 H     1.0000    0     1.008   -3.099000  -16.381204   -0.341965
 105 H     1.0000    0     1.008   -6.467323  -21.081426   -0.214371
 106 H     1.0000    0     1.008   -3.382496  -20.846382    1.022758
 107 H     1.0000    0     1.008   -3.873976  -20.674568   -2.263231
 108 H     1.0000    0     1.008   -7.885695  -18.474038   -6.878093
 109 H     1.0000    0     1.008   -5.960385  -16.562032   -8.807560
 110 H     1.0000    0     1.008   -8.572081  -15.236352   -7.241185
 111 H     1.0000    0     1.008  -15.647008  -12.426367    5.358659
 112 H     1.0000    0     1.008  -16.390029  -15.338907    3.960734
 113 H     1.0000    0     1.008  -16.252760  -10.233358    1.250375
 114 H     1.0000    0     1.008  -18.997379  -11.810014    2.282468
 115 H     1.0000    0     1.008  -17.165252  -13.105156   -0.165332
 116 H     1.0000    0     1.008   -9.205820  -14.561965    4.836395
 117 H     1.0000    0     1.008  -11.907996  -14.870198    6.744773
 118 H     1.0000    0     1.008   -9.710660   -9.900748    4.755137
 119 H     1.0000    0     1.008   -9.449481  -11.046054    7.869878
 120 H     1.0000    0     1.008  -12.418619  -10.137190    6.677858

--------------------------------
INTERNAL COORDINATES (ANGSTROEM)
--------------------------------
 C      0   0   0     0.000000000000     0.00000000     0.00000000
 O      1   0   0     1.210236816247     0.00000000     0.00000000
 C      1   2   0     1.478751061572   128.04379048     0.00000000
 C      3   1   2     1.381984625276   129.27510107   356.65577586
 C      4   3   1     1.386088322799   118.62881530   181.42348603
 C      5   4   3     1.390567602815   119.97730084     0.12508318
 Cl     6   5   4     1.722499823048   119.13891416   179.30647258
 C      6   5   4     1.391652746521   122.07680963   359.27104338
 C      8   6   5     1.383070667067   117.75416010     0.53420279
 C      9   8   6     1.462519944274   130.99642062   182.61850044
 C     10   9   8     1.371010014952   125.38286705    21.64416833
 C     11  10   9     1.410756104293   122.66790094   162.69244626
 N     12  11  10     1.148092309442   176.66317760   246.14954485
 C     11  10   9     1.408042195000   124.27695904   346.89707283
 N     14  11  10     1.148117620499   176.44568888   211.34206958
 C     10   9   8     1.444260519262   107.14777144   188.50980220
 C     16  10   9     1.364163831877   131.70135969   161.57906429
 C     17  16  10     1.408913810316   128.85276275   343.44684428
 S     18  17  16     1.765136345442   121.44977108   337.61115428
 C     19  18  17     1.724351577318    90.84123580   181.06229092
 C     20  19  18     1.401677247515   111.22250078     1.03158044
 C     18  17  16     1.390707979915   126.46115360   161.21931945
 C     22  18  17     1.490554615739   124.52700781   353.60060792
 C     23  22  18     1.530879150064   110.24827885   282.11646843
 S     21  20  19     1.748713453428   113.29616853   180.54650097
 C     25  21  20     1.727436224033    89.05742287     0.41164170
 C     20  19  18     1.396305420923   137.00177565   182.44085008
 N     27  20  19     1.367499361938   138.02066629   359.89408630
 C     28  27  20     1.442592997384   119.10770299   345.30479931
 C     28  27  20     1.384861568894   107.97443256   178.80492062
 C     26  25  21     1.400395008346   139.20482666   180.11729097
 C     31  26  25     1.411868604828   130.25295921     4.97512858
 N     32  31  26     1.323776824922   128.69129274   357.75031249
 S     33  32  31     1.618977388879   108.41298410   177.63206813
 N     34  33  32     1.618904000891    98.10315067     0.02785685
 C     35  34  33     1.323798151306   108.41795758     0.03401665
 C     36  35  34     1.411855456518   128.70293911   177.16285469
 C     30  28  27     1.422212284717   133.58161189   182.69262876
 N     38  30  28     1.384458015831   133.59547891     7.98776472
 C     39  38  30     1.442623079533   131.10991939    14.51480664
 C     40  39  38     1.538830574755   113.47188359    59.51685820
 C     39  38  30     1.367610653147   108.02359183   179.76301677
 C     42  39  38     1.399437676712   110.03902879     0.52642519
 S     43  42  39     1.727506522158   113.93040604   181.06058231
 C     44  43  42     1.750221279667    89.24592548     0.10888441
 C     42  39  38     1.398216234672   138.06349269   182.80756127
 S     46  42  39     1.721837877705   136.99554277     1.70034948
 C     47  46  42     1.765691787969    90.95311119   178.96035710
 C     48  47  46     1.390635750080   112.22182061   357.85218154
 C     49  48  47     1.494394695822   126.25972662   190.03163415
 C     50  49  48     1.528664847146   112.34486621   235.01993398
 C     48  47  46     1.412294705612   116.09746158   184.40120333
 C     52  48  47     1.367929689531   126.87705618   211.59598395
 C     53  52  48     1.445606832856   126.47785514   192.06421272
 C     54  53  52     1.370790030530   126.40254609    13.90359250
 C     55  54  53     1.410741606213   124.59665254     0.20300892
 N     56  55  54     1.148305502469   176.06993546   162.59112380
 C     55  54  53     1.410286239350   124.24850278   179.10002105
 N     58  55  54     1.147867586832   176.58487299   173.06836887
 C     54  53  52     1.462484743886   107.56278343   189.90315720
 C     60  54  53     1.384338725168   131.14342598   180.15591210
 C     61  60  54     1.391728139616   117.88740649   179.28172654
 Cl    62  61  60     1.722848847288   118.71223929   180.14788473
 C     62  61  60     1.390414792139   122.15308734     0.23659678
 C     64  62  61     1.385764079344   119.83405588     0.21162151
 C     65  64  62     1.381874702786   118.60443558   359.38881849
 C     66  65  64     1.476378536623   128.77020737   179.53990723
 O     67  66  65     1.212333406328   126.72645586   352.85473715
 C     29  28  27     1.538539608395   113.18001712   255.47003340
 C     69  29  28     1.538704444590   111.38834535    61.61458431
 C     69  29  28     1.536014473141   108.72703674   184.46256447
 C     71  69  29     1.524131294410   112.57331294   160.72162727
 C     70  69  29     1.525219570455   113.74119154   264.76265408
 C     41  40  39     1.537911774875   111.50171862    62.63889902
 C     74  41  40     1.525226466201   113.85618654   267.26583537
 C     41  40  39     1.536628796977   108.72589387   185.27878304
 C     76  41  40     1.524166433629   112.58292567   159.73281855
 H      4   3   1     1.078870530277   120.18045283     1.49415874
 H      5   4   3     1.078500264163   120.54377358   180.01804477
 H      8   6   5     1.077983322923   120.18885762   179.94994422
 H     17  16  10     1.086073985417   115.06351123   168.60200309
 H     23  22  18     1.091682786023   108.64553554   162.12502712
 H     23  22  18     1.091903465605   110.23332586    43.13161888
 H     24  23  22     1.086821968862   110.25861788   301.23861541
 H     24  23  22     1.086601439765   110.07329522   181.16688512
 H     24  23  22     1.087364466405   110.48585115    60.79461835
 H     29  28  27     1.088879521067   110.28346718   130.26218247
 H     29  28  27     1.093536135023   106.56274023    14.76659642
 H     40  39  38     1.089757060129   109.97417399   294.30205751
 H     40  39  38     1.093445911511   106.55871444   178.88042701
 H     41  40  39     1.095567625343   108.82247352   303.45428913
 H     50  49  48     1.095091907604   107.47124810   115.38399859
 H     50  49  48     1.090317683889   109.97703040   357.87536253
 H     51  50  49     1.086662279690   110.63172966   298.73625980
 H     51  50  49     1.086971599399   109.68480920   178.86282880
 H     51  50  49     1.086004868866   110.01580478    59.04123384
 H     52  48  47     1.084319490787   114.89161030    29.19543229
 H     61  60  54     1.077479775587   122.24748398   359.07789039
 H     64  62  61     1.078478780644   119.54197545   180.12277197
 H     65  64  62     1.078953202739   121.23613289   179.73632554
 H     69  29  28     1.095664325375   108.67466478   302.48874350
 H     70  69  29     1.090811461711   108.89005388   144.39969443
 H     70  69  29     1.092225238309   109.56338737    27.77306133
 H     71  69  29     1.093270606209   109.69514923    39.97856278
 H     71  69  29     1.091676192193   108.99110514   282.91777036
 H     72  71  69     1.088124034979   110.53903860   298.92024201
 H     72  71  69     1.087014067388   110.18922247   179.23459234
 H     72  71  69     1.086793663305   111.30099829    59.23312587
 H     73  70  69     1.088176564625   110.44027009   302.27218294
 H     73  70  69     1.087515581544   109.96197042   182.98913133
 H     73  70  69     1.086319325843   112.01818554    63.00647976
 H     74  41  40     1.090606554446   108.69934046   147.10539999
 H     74  41  40     1.092017696239   109.56181663    30.53185158
 H     75  74  41     1.088177063395   110.43477458   302.59155020
 H     75  74  41     1.087486012462   109.87049353   183.37959822
 H     75  74  41     1.086255003625   112.16192644    63.41152716
 H     76  41  40     1.093556202259   109.79917715    38.95167482
 H     76  41  40     1.091541229821   108.93743336   281.90046784
 H     77  76  41     1.088177370239   110.67883267   299.22261838
 H     77  76  41     1.086806393982   110.22379789   179.59232830
 H     77  76  41     1.086568381741   111.27416689    59.60026248

---------------------------
INTERNAL COORDINATES (A.U.)
---------------------------
 C      0   0   0     0.000000000000     0.00000000     0.00000000
 O      1   0   0     2.287016139896     0.00000000     0.00000000
 C      1   2   0     2.794434526616   128.04379048     0.00000000
 C      3   1   2     2.611572463062   129.27510107   356.65577586
 C      4   3   1     2.619327327517   118.62881530   181.42348603
 C      5   4   3     2.627791940025   119.97730084     0.12508318
 Cl     6   5   4     3.255052931288   119.13891416   179.30647258
 C      6   5   4     2.629842564444   122.07680963   359.27104338
 C      8   6   5     2.613624784616   117.75416010     0.53420279
 C      9   8   6     2.763762160076   130.99642062   182.61850044
 C     10   9   8     2.590833455123   125.38286705    21.64416833
 C     11  10   9     2.665942678871   122.66790094   162.69244626
 N     12  11  10     2.169580041307   176.66317760   246.14954485
 C     11  10   9     2.660814133555   124.27695904   346.89707283
 N     14  11  10     2.169627872272   176.44568888   211.34206958
 C     10   9   8     2.729256847441   107.14777144   188.50980220
 C     16  10   9     2.577896044047   131.70135969   161.57906429
 C     17  16  10     2.662461247797   128.85276275   343.44684428
 S     18  17  16     3.335624281916   121.44977108   337.61115428
 C     19  18  17     3.258552239727    90.84123580   181.06229092
 C     20  19  18     2.648786125951   111.22250078     1.03158044
 C     18  17  16     2.628057214299   126.46115360   161.21931945
 C     22  18  17     2.816740011398   124.52700781   353.60060792
 C     23  22  18     2.892942337751   110.24827885   282.11646843
 S     21  20  19     3.304589513683   113.29616853   180.54650097
 C     25  21  20     3.264381377237    89.05742287     0.41164170
 C     20  19  18     2.638634844855   137.00177565   182.44085008
 N     27  20  19     2.584199282374   138.02066629   359.89408630
 C     28  27  20     2.726105687767   119.10770299   345.30479931
 C     28  27  20     2.617009098602   107.97443256   178.80492062
 C     26  25  21     2.646363045084   139.20482666   180.11729097
 C     31  26  25     2.668045000207   130.25295921     4.97512858
 N     32  31  26     2.501575661534   128.69129274   357.75031249
 S     33  32  31     3.059423881991   108.41298410   177.63206813
 N     34  33  32     3.059285198793    98.10315067     0.02785685
 C     35  34  33     2.501615962559   108.41795758     0.03401665
 C     36  35  34     2.668020153502   128.70293911   177.16285469
 C     30  28  27     2.687591722414   133.58161189   182.69262876
 N     38  30  28     2.616246493833   133.59547891     7.98776472
 C     39  38  30     2.726162534791   131.10991939    14.51480664
 C     40  39  38     2.907968352791   113.47188359    59.51685820
 C     39  38  30     2.584409592280   108.02359183   179.76301677
 C     42  39  38     2.644553950476   110.03902879     0.52642519
 S     43  42  39     3.264514221442   113.93040604   181.06058231
 C     44  43  42     3.307438892332    89.24592548     0.10888441
 C     42  39  38     2.642245759532   138.06349269   182.80756127
 S     46  42  39     3.253802035875   136.99554277     1.70034948
 C     47  46  42     3.336673916175    90.95311119   178.96035710
 C     48  47  46     2.627920719691   112.22182061   357.85218154
 C     49  48  47     2.823996711088   126.25972662   190.03163415
 C     50  49  48     2.888757911659   112.34486621   235.01993398
 C     48  47  46     2.668850213994   116.09746158   184.40120333
 C     52  48  47     2.585012483673   126.87705618   211.59598395
 C     53  52  48     2.731801011423   126.47785514   192.06421272
 C     54  53  52     2.590417744811   126.40254609    13.90359250
 C     55  54  53     2.665915281470   124.59665254     0.20300892
 N     56  55  54     2.169982917741   176.06993546   162.59112380
 C     55  54  53     2.665054762809   124.24850278   179.10002105
 N     58  55  54     2.169155377118   176.58487299   173.06836887
 C     54  53  52     2.763695640983   107.56278343   189.90315720
 C     60  54  53     2.616021067149   131.14342598   180.15591210
 C     61  60  54     2.629985036747   117.88740649   179.28172654
 Cl    62  61  60     3.255712491515   118.71223929   180.14788473
 C     62  61  60     2.627503169696   122.15308734     0.23659678
 C     64  62  61     2.618714596186   119.83405588     0.21162151
 C     65  64  62     2.611364739659   118.60443558   359.38881849
 C     66  65  64     2.789951104216   128.77020737   179.53990723
 O     67  66  65     2.290978120965   126.72645586   352.85473715
 C     29  28  27     2.907418506057   113.18001712   255.47003340
 C     69  29  28     2.907730001322   111.38834535    61.61458431
 C     69  29  28     2.902646691977   108.72703674   184.46256447
 C     71  69  29     2.880190738574   112.57331294   160.72162727
 C     70  69  29     2.882247282258   113.74119154   264.76265408
 C     41  40  39     2.906232072647   111.50171862    62.63889902
 C     74  41  40     2.882260313328   113.85618654   267.26583537
 C     41  40  39     2.903807595784   108.72589387   185.27878304
 C     76  41  40     2.880257142073   112.58292567   159.73281855
 H      4   3   1     2.038769836182   120.18045283     1.49415874
 H      5   4   3     2.038070134630   120.54377358   180.01804477
 H      8   6   5     2.037093257259   120.18885762   179.94994422
 H     17  16  10     2.052382393615   115.06351123   168.60200309
 H     23  22  18     2.062981490701   108.64553554   162.12502712
 H     23  22  18     2.063398514673   110.23332586    43.13161888
 H     24  23  22     2.053795877477   110.25861788   301.23861541
 H     24  23  22     2.053379137881   110.07329522   181.16688512
 H     24  23  22     2.054821049263   110.48585115    60.79461835
 H     29  28  27     2.057684087653   110.28346718   130.26218247
 H     29  28  27     2.066483812739   106.56274023    14.76659642
 H     40  39  38     2.059342396150   109.97417399   294.30205751
 H     40  39  38     2.066313315012   106.55871444   178.88042701
 H     41  40  39     2.070322773089   108.82247352   303.45428913
 H     50  49  48     2.069423796845   107.47124810   115.38399859
 H     50  49  48     2.060401821521   109.97703040   357.87536253
 H     51  50  49     2.053494108676   110.63172966   298.73625980
 H     51  50  49     2.054078638214   109.68480920   178.86282880
 H     51  50  49     2.052251782261   110.01580478    59.04123384
 H     52  48  47     2.049066879260   114.89161030    29.19543229
 H     61  60  54     2.036141690699   122.24748398   359.07789039
 H     64  62  61     2.038029536663   119.54197545   180.12277197
 H     65  64  62     2.038926064493   121.23613289   179.73632554
 H     69  29  28     2.070505509667   108.67466478   302.48874350
 H     70  69  29     2.061334926376   108.89005388   144.39969443
 H     70  69  29     2.064006576962   109.56338737    27.77306133
 H     71  69  29     2.065982036001   109.69514923    39.97856278
 H     71  69  29     2.062969030166   108.99110514   282.91777036
 H     72  71  69     2.056256425849   110.53903860   298.92024201
 H     72  71  69     2.054158891084   110.18922247   179.23459234
 H     72  71  69     2.053742387728   111.30099829    59.23312587
 H     73  70  69     2.056355692493   110.44027009   302.27218294
 H     73  70  69     2.055106615489   109.96197042   182.98913133
 H     73  70  69     2.052846019829   112.01818554    63.00647976
 H     74  41  40     2.060947707762   108.69934046   147.10539999
 H     74  41  40     2.063614379288   109.56181663    30.53185158
 H     75  74  41     2.056356635032   110.43477458   302.59155020
 H     75  74  41     2.055050738023   109.87049353   183.37959822
 H     75  74  41     2.052724468453   112.16192644    63.41152716
 H     76  41  40     2.066521734321   109.79917715    38.95167482
 H     76  41  40     2.062713988246   108.93743336   281.90046784
 H     77  76  41     2.056357214882   110.67883267   299.22261838
 H     77  76  41     2.053766445220   110.22379789   179.59232830
 H     77  76  41     2.053316667269   111.27416689    59.60026248

---------------------
BASIS SET INFORMATION
---------------------
There are 6 groups of distinct atoms

 Group   1 Type C   : 11s6p2d1f contracted to 5s3p2d1f pattern {62111/411/11/1}
 Group   2 Type O   : 11s6p2d1f contracted to 5s3p2d1f pattern {62111/411/11/1}
 Group   3 Type Cl  : 14s9p3d1f contracted to 5s5p2d1f pattern {73211/51111/21/1}
 Group   4 Type N   : 11s6p2d1f contracted to 5s3p2d1f pattern {62111/411/11/1}
 Group   5 Type S   : 14s9p3d1f contracted to 5s5p2d1f pattern {73211/51111/21/1}
 Group   6 Type H   : 5s1p contracted to 3s1p pattern {311/1}

Atom   0C    basis set group =>   1
Atom   1O    basis set group =>   2
Atom   2C    basis set group =>   1
Atom   3C    basis set group =>   1
Atom   4C    basis set group =>   1
Atom   5C    basis set group =>   1
Atom   6Cl   basis set group =>   3
Atom   7C    basis set group =>   1
Atom   8C    basis set group =>   1
Atom   9C    basis set group =>   1
Atom  10C    basis set group =>   1
Atom  11C    basis set group =>   1
Atom  12N    basis set group =>   4
Atom  13C    basis set group =>   1
Atom  14N    basis set group =>   4
Atom  15C    basis set group =>   1
Atom  16C    basis set group =>   1
Atom  17C    basis set group =>   1
Atom  18S    basis set group =>   5
Atom  19C    basis set group =>   1
Atom  20C    basis set group =>   1
Atom  21C    basis set group =>   1
Atom  22C    basis set group =>   1
Atom  23C    basis set group =>   1
Atom  24S    basis set group =>   5
Atom  25C    basis set group =>   1
Atom  26C    basis set group =>   1
Atom  27N    basis set group =>   4
Atom  28C    basis set group =>   1
Atom  29C    basis set group =>   1
Atom  30C    basis set group =>   1
Atom  31C    basis set group =>   1
Atom  32N    basis set group =>   4
Atom  33S    basis set group =>   5
Atom  34N    basis set group =>   4
Atom  35C    basis set group =>   1
Atom  36C    basis set group =>   1
Atom  37C    basis set group =>   1
Atom  38N    basis set group =>   4
Atom  39C    basis set group =>   1
Atom  40C    basis set group =>   1
Atom  41C    basis set group =>   1
Atom  42C    basis set group =>   1
Atom  43S    basis set group =>   5
Atom  44C    basis set group =>   1
Atom  45C    basis set group =>   1
Atom  46S    basis set group =>   5
Atom  47C    basis set group =>   1
Atom  48C    basis set group =>   1
Atom  49C    basis set group =>   1
Atom  50C    basis set group =>   1
Atom  51C    basis set group =>   1
Atom  52C    basis set group =>   1
Atom  53C    basis set group =>   1
Atom  54C    basis set group =>   1
Atom  55C    basis set group =>   1
Atom  56N    basis set group =>   4
Atom  57C    basis set group =>   1
Atom  58N    basis set group =>   4
Atom  59C    basis set group =>   1
Atom  60C    basis set group =>   1
Atom  61C    basis set group =>   1
Atom  62Cl   basis set group =>   3
Atom  63C    basis set group =>   1
Atom  64C    basis set group =>   1
Atom  65C    basis set group =>   1
Atom  66C    basis set group =>   1
Atom  67O    basis set group =>   2
Atom  68C    basis set group =>   1
Atom  69C    basis set group =>   1
Atom  70C    basis set group =>   1
Atom  71C    basis set group =>   1
Atom  72C    basis set group =>   1
Atom  73C    basis set group =>   1
Atom  74C    basis set group =>   1
Atom  75C    basis set group =>   1
Atom  76C    basis set group =>   1
Atom  77H    basis set group =>   6
Atom  78H    basis set group =>   6
Atom  79H    basis set group =>   6
Atom  80H    basis set group =>   6
Atom  81H    basis set group =>   6
Atom  82H    basis set group =>   6
Atom  83H    basis set group =>   6
Atom  84H    basis set group =>   6
Atom  85H    basis set group =>   6
Atom  86H    basis set group =>   6
Atom  87H    basis set group =>   6
Atom  88H    basis set group =>   6
Atom  89H    basis set group =>   6
Atom  90H    basis set group =>   6
Atom  91H    basis set group =>   6
Atom  92H    basis set group =>   6
Atom  93H    basis set group =>   6
Atom  94H    basis set group =>   6
Atom  95H    basis set group =>   6
Atom  96H    basis set group =>   6
Atom  97H    basis set group =>   6
Atom  98H    basis set group =>   6
Atom  99H    basis set group =>   6
Atom 100H    basis set group =>   6
Atom 101H    basis set group =>   6
Atom 102H    basis set group =>   6
Atom 103H    basis set group =>   6
Atom 104H    basis set group =>   6
Atom 105H    basis set group =>   6
Atom 106H    basis set group =>   6
Atom 107H    basis set group =>   6
Atom 108H    basis set group =>   6
Atom 109H    basis set group =>   6
Atom 110H    basis set group =>   6
Atom 111H    basis set group =>   6
Atom 112H    basis set group =>   6
Atom 113H    basis set group =>   6
Atom 114H    basis set group =>   6
Atom 115H    basis set group =>   6
Atom 116H    basis set group =>   6
Atom 117H    basis set group =>   6
Atom 118H    basis set group =>   6
Atom 119H    basis set group =>   6
Atom 120H    basis set group =>   6
---------------------------------
AUXILIARY/J BASIS SET INFORMATION
---------------------------------
There are 6 groups of distinct atoms

 Group   1 Type C   : 12s5p4d2f1g contracted to 6s4p3d1f1g pattern {711111/2111/211/2/1}
 Group   2 Type O   : 12s5p4d2f1g contracted to 6s4p3d1f1g pattern {711111/2111/211/2/1}
 Group   3 Type Cl  : 14s5p5d2f1g contracted to 8s4p3d1f1g pattern {71111111/2111/311/2/1}
 Group   4 Type N   : 12s5p4d2f1g contracted to 6s4p3d1f1g pattern {711111/2111/211/2/1}
 Group   5 Type S   : 14s5p5d2f1g contracted to 8s4p3d1f1g pattern {71111111/2111/311/2/1}
 Group   6 Type H   : 5s2p1d contracted to 3s1p1d pattern {311/2/1}

Atom   0C    basis set group =>   1
Atom   1O    basis set group =>   2
Atom   2C    basis set group =>   1
Atom   3C    basis set group =>   1
Atom   4C    basis set group =>   1
Atom   5C    basis set group =>   1
Atom   6Cl   basis set group =>   3
Atom   7C    basis set group =>   1
Atom   8C    basis set group =>   1
Atom   9C    basis set group =>   1
Atom  10C    basis set group =>   1
Atom  11C    basis set group =>   1
Atom  12N    basis set group =>   4
Atom  13C    basis set group =>   1
Atom  14N    basis set group =>   4
Atom  15C    basis set group =>   1
Atom  16C    basis set group =>   1
Atom  17C    basis set group =>   1
Atom  18S    basis set group =>   5
Atom  19C    basis set group =>   1
Atom  20C    basis set group =>   1
Atom  21C    basis set group =>   1
Atom  22C    basis set group =>   1
Atom  23C    basis set group =>   1
Atom  24S    basis set group =>   5
Atom  25C    basis set group =>   1
Atom  26C    basis set group =>   1
Atom  27N    basis set group =>   4
Atom  28C    basis set group =>   1
Atom  29C    basis set group =>   1
Atom  30C    basis set group =>   1
Atom  31C    basis set group =>   1
Atom  32N    basis set group =>   4
Atom  33S    basis set group =>   5
Atom  34N    basis set group =>   4
Atom  35C    basis set group =>   1
Atom  36C    basis set group =>   1
Atom  37C    basis set group =>   1
Atom  38N    basis set group =>   4
Atom  39C    basis set group =>   1
Atom  40C    basis set group =>   1
Atom  41C    basis set group =>   1
Atom  42C    basis set group =>   1
Atom  43S    basis set group =>   5
Atom  44C    basis set group =>   1
Atom  45C    basis set group =>   1
Atom  46S    basis set group =>   5
Atom  47C    basis set group =>   1
Atom  48C    basis set group =>   1
Atom  49C    basis set group =>   1
Atom  50C    basis set group =>   1
Atom  51C    basis set group =>   1
Atom  52C    basis set group =>   1
Atom  53C    basis set group =>   1
Atom  54C    basis set group =>   1
Atom  55C    basis set group =>   1
Atom  56N    basis set group =>   4
Atom  57C    basis set group =>   1
Atom  58N    basis set group =>   4
Atom  59C    basis set group =>   1
Atom  60C    basis set group =>   1
Atom  61C    basis set group =>   1
Atom  62Cl   basis set group =>   3
Atom  63C    basis set group =>   1
Atom  64C    basis set group =>   1
Atom  65C    basis set group =>   1
Atom  66C    basis set group =>   1
Atom  67O    basis set group =>   2
Atom  68C    basis set group =>   1
Atom  69C    basis set group =>   1
Atom  70C    basis set group =>   1
Atom  71C    basis set group =>   1
Atom  72C    basis set group =>   1
Atom  73C    basis set group =>   1
Atom  74C    basis set group =>   1
Atom  75C    basis set group =>   1
Atom  76C    basis set group =>   1
Atom  77H    basis set group =>   6
Atom  78H    basis set group =>   6
Atom  79H    basis set group =>   6
Atom  80H    basis set group =>   6
Atom  81H    basis set group =>   6
Atom  82H    basis set group =>   6
Atom  83H    basis set group =>   6
Atom  84H    basis set group =>   6
Atom  85H    basis set group =>   6
Atom  86H    basis set group =>   6
Atom  87H    basis set group =>   6
Atom  88H    basis set group =>   6
Atom  89H    basis set group =>   6
Atom  90H    basis set group =>   6
Atom  91H    basis set group =>   6
Atom  92H    basis set group =>   6
Atom  93H    basis set group =>   6
Atom  94H    basis set group =>   6
Atom  95H    basis set group =>   6
Atom  96H    basis set group =>   6
Atom  97H    basis set group =>   6
Atom  98H    basis set group =>   6
Atom  99H    basis set group =>   6
Atom 100H    basis set group =>   6
Atom 101H    basis set group =>   6
Atom 102H    basis set group =>   6
Atom 103H    basis set group =>   6
Atom 104H    basis set group =>   6
Atom 105H    basis set group =>   6
Atom 106H    basis set group =>   6
Atom 107H    basis set group =>   6
Atom 108H    basis set group =>   6
Atom 109H    basis set group =>   6
Atom 110H    basis set group =>   6
Atom 111H    basis set group =>   6
Atom 112H    basis set group =>   6
Atom 113H    basis set group =>   6
Atom 114H    basis set group =>   6
Atom 115H    basis set group =>   6
Atom 116H    basis set group =>   6
Atom 117H    basis set group =>   6
Atom 118H    basis set group =>   6
Atom 119H    basis set group =>   6
Atom 120H    basis set group =>   6
------------------------------------------------------------------------------
                           ORCA GTO INTEGRAL CALCULATION
                           -- RI-GTO INTEGRALS CHOSEN --
------------------------------------------------------------------------------

                         BASIS SET STATISTICS AND STARTUP INFO

Gaussian basis set:
 # of primitive gaussian shells          ... 1853
 # of primitive gaussian functions       ... 4013
 # of contracted shells                  ... 1037
 # of contracted basis functions         ... 2693
 Highest angular momentum                ...    3
 Maximum contraction depth               ...    7
Auxiliary gaussian basis set:
 # of primitive gaussian shells          ... 2221
 # of primitive gaussian functions       ... 6143
 # of contracted shells                  ... 1389
 # of contracted aux-basis functions     ... 4271
 Highest angular momentum                ...    4
 Maximum contraction depth               ...    7
Ratio of auxiliary to basis functions    ...  1.59
Integral package used                  ... LIBINT
 One Electron integrals                  ... done
 Ordering auxiliary basis shells         ... done
 Integral threshhold             Thresh  ...  2.500e-11
 Primitive cut-off               TCut    ...  2.500e-12
 Pre-screening matrix                    ... done
 Shell pair data                         ... 
 Ordering of the shell pairs             ... done (   0.045 sec) 190916 of 538203 pairs
 Determination of significant pairs      ... done (   0.001 sec)
 Creation of shell pair data             ... done (   0.022 sec)
 Storage of shell pair data              ... done (   0.032 sec)
 Shell pair data done in (   0.100 sec)
 Computing two index integrals           ... done
 Cholesky decomposition of the V-matrix  ... done


Timings:
 Total evaluation time                   ...   8.654 sec (  0.144 min)
 One electron matrix time                ...   3.180 sec (  0.053 min) = 36.7%
 Schwartz matrix evaluation time         ...   4.260 sec (  0.071 min) = 49.2%
 Two index repulsion integral time       ...   0.432 sec (  0.007 min) =  5.0%
 Cholesky decomposition of V             ...   0.663 sec (  0.011 min) =  7.7%
 Three index repulsion integral time     ...   0.000 sec (  0.000 min) =  0.0%

-------------------------------------------------------------------------------
                                 ORCA SCF
-------------------------------------------------------------------------------

------------
SCF SETTINGS
------------
Hamiltonian:
 Density Functional     Method          .... DFT(GTOs)
 Exchange Functional    Exchange        .... B88
   X-Alpha parameter    XAlpha          ....  0.666667
   Becke's b parameter  XBeta           ....  0.004200
 Correlation Functional Correlation     .... LYP
 LDA part of GGA corr.  LDAOpt          .... VWN-5
 Gradients option       PostSCFGGA      .... off
 Hybrid DFT is turned on
   Fraction HF Exchange ScalHFX         ....  0.200000
   Scaling of DF-GGA-X  ScalDFX         ....  0.720000
   Scaling of DF-GGA-C  ScalDFC         ....  0.810000
   Scaling of DF-LDA-C  ScalLDAC        ....  1.000000
   Perturbative correction              ....  0.000000
   Density functional embedding theory  .... OFF
   NL short-range parameter             ....  4.800000
 RI-approximation to the Coulomb term is turned on
   Number of auxiliary basis functions  .... 4271
   RIJ-COSX (HFX calculated with COS-X)).... on


General Settings:
 Integral files         IntName         .... H2
 Hartree-Fock type      HFTyp           .... RHF
 Total Charge           Charge          ....    0
 Multiplicity           Mult            ....    1
 Number of Electrons    NEL             ....  590
 Basis Dimension        Dim             .... 2693
 Nuclear Repulsion      ENuc            ....  13757.4809391746 Eh

Convergence Acceleration:
 DIIS                   CNVDIIS         .... on
   Start iteration      DIISMaxIt       ....    12
   Startup error        DIISStart       ....  0.200000
   # of expansion vecs  DIISMaxEq       ....     5
   Bias factor          DIISBfac        ....   1.050
   Max. coefficient     DIISMaxC        ....  10.000
 Newton-Raphson         CNVNR           .... off
 SOSCF                  CNVSOSCF        .... on
   Start iteration      SOSCFMaxIt      ....   150
   Startup grad/error   SOSCFStart      ....  0.003300
 Level Shifting         CNVShift        .... on
   Level shift para.    LevelShift      ....    0.2500
   Turn off err/grad.   ShiftErr        ....    0.0010
 Zerner damping         CNVZerner       .... off
 Static damping         CNVDamp         .... on
   Fraction old density DampFac         ....    0.7000
   Max. Damping (<1)    DampMax         ....    0.9800
   Min. Damping (>=0)   DampMin         ....    0.0000
   Turn off err/grad.   DampErr         ....    0.1000
 Fernandez-Rico         CNVRico         .... off

SCF Procedure:
 Maximum # iterations   MaxIter         ....   125
 SCF integral mode      SCFMode         .... Direct
   Integral package                     .... LIBINT
 Reset frequency        DirectResetFreq ....    20
 Integral Threshold     Thresh          ....  2.500e-11 Eh
 Primitive CutOff       TCut            ....  2.500e-12 Eh

Convergence Tolerance:
 Convergence Check Mode ConvCheckMode   .... Total+1el-Energy
 Convergence forced     ConvForced      .... 1
 Energy Change          TolE            ....  1.000e-08 Eh
 1-El. energy change                    ....  1.000e-05 Eh
 Orbital Gradient       TolG            ....  1.000e-05
 Orbital Rotation angle TolX            ....  1.000e-05
 DIIS Error             TolErr          ....  5.000e-07


Diagonalization of the overlap matrix:
Smallest eigenvalue                        ... 1.582e-06
Time for diagonalization                   ...    4.886 sec
Threshold for overlap eigenvalues          ... 1.000e-08
Number of eigenvalues below threshold      ... 0
Time for construction of square roots      ...    1.520 sec
Total time needed                          ...    6.426 sec

-------------------
DFT GRID GENERATION
-------------------

General Integration Accuracy     IntAcc      ...  4.670
Radial Grid Type                 RadialGrid  ... Gauss-Chebyshev
Angular Grid (max. acc.)         AngularGrid ... Lebedev-302
Angular grid pruning method      GridPruning ... 3 (G Style)
Weight generation scheme         WeightScheme... Becke
Basis function cutoff            BFCut       ...    1.0000e-11
Integration weight cutoff        WCut        ...    1.0000e-14
Grids for H and He will be reduced by one unit

# of grid points (after initial pruning)     ... 631882 (   2.5 sec)
# of grid points (after weights+screening)   ... 529133 (  36.6 sec)
nearest neighbour list constructed           ...    0.0 sec
Grid point re-assignment to atoms done       ...    0.1 sec
Grid point division into batches done        ...    1.8 sec
Reduced shell lists constructed in   21.1 sec

Total number of grid points                  ...   529133
Total number of batches                      ...     8332
Average number of points per batch           ...       63
Average number of grid points per atom       ...     4373
Average number of shells per batch           ...   193.28 (18.64%)
Average number of basis functions per batch  ...   467.11 (17.35%)
Average number of large shells per batch     ...   109.98 (56.90%)
Average number of large basis fcns per batch ...   272.29 (58.29%)
Maximum spatial batch extension              ...  22.11, 21.05, 21.38 au
Average spatial batch extension              ...   2.09,  2.12,  2.06 au

Time for grid setup =   60.153 sec

------------------------------
INITIAL GUESS: MODEL POTENTIAL
------------------------------
Loading Hartree-Fock densities                     ... done
Calculating cut-offs                               ... done
Setting up the integral package                    ... done
Initializing the effective Hamiltonian             ... done
Starting the Coulomb interaction                   ... done (  41.9 sec)
Reading the grid                                   ... done
Mapping shells                                     ... done
Starting the XC term evaluation                    ... done (  35.9 sec)
  promolecular density results
     # of electrons  =    589.977537562
     EX              =   -571.193417086
     EC              =    -21.052577523
     EX+EC           =   -592.245994609
Transforming the Hamiltonian                       ... done (   1.5 sec)
Diagonalizing the Hamiltonian                      ... done (   4.4 sec)
Back transforming the eigenvectors                 ... done (   0.6 sec)
Now organizing SCF variables                       ... done
                      ------------------
                      INITIAL GUESS DONE ( 145.4 sec)
                      ------------------
--------------------
COSX GRID GENERATION
--------------------

General Integration Accuracy     IntAcc      ...  3.340
Radial Grid Type                 RadialGrid  ... Gauss-Chebyshev
Angular Grid (max. acc.)         AngularGrid ... Lebedev-50
Angular grid pruning method      GridPruning ... 3 (G Style)
Weight generation scheme         WeightScheme... Becke
Basis function cutoff            BFCut       ...    1.0000e-11
Integration weight cutoff        WCut        ...    1.0000e-14
Grids for H and He will be reduced by one unit

# of grid points (after initial pruning)     ...  59510 (   0.1 sec)
# of grid points (after weights+screening)   ...  52281 (   3.4 sec)
nearest neighbour list constructed           ...    0.0 sec
Grid point re-assignment to atoms done       ...    0.0 sec
Grid point division into batches done        ...    0.0 sec
Reduced shell lists constructed in    3.3 sec

Total number of grid points                  ...    52281
Total number of batches                      ...      881
Average number of points per batch           ...       59
Average number of grid points per atom       ...      432
Average number of shells per batch           ...   235.47 (22.71%)
Average number of basis functions per batch  ...   577.07 (21.43%)
Average number of large shells per batch     ...   135.31 (57.47%)
Average number of large basis fcns per batch ...   340.31 (58.97%)
Maximum spatial batch extension              ...  19.21, 21.72, 16.28 au
Average spatial batch extension              ...   4.40,  4.49,  4.20 au

Overlap Fitting                  UseSFitting ... on
Constructing numerical overlap ... done (      3.5 sec)
Inverting numerical overlap    ... done (      0.5 sec)
Obtaining analytic overlap     ... done (      0.0 sec)
Final contraction and storage  ... done (      0.7 sec)


General Integration Accuracy     IntAcc      ...  3.670
Radial Grid Type                 RadialGrid  ... Gauss-Chebyshev
Angular Grid (max. acc.)         AngularGrid ... Lebedev-50
Angular grid pruning method      GridPruning ... 3 (G Style)
Weight generation scheme         WeightScheme... Becke
Basis function cutoff            BFCut       ...    1.0000e-11
Integration weight cutoff        WCut        ...    1.0000e-14
Grids for H and He will be reduced by one unit

# of grid points (after initial pruning)     ...  74694 (   0.1 sec)
# of grid points (after weights+screening)   ...  65364 (   4.3 sec)
nearest neighbour list constructed           ...    0.0 sec
Grid point re-assignment to atoms done       ...    0.0 sec
Grid point division into batches done        ...    0.0 sec
Reduced shell lists constructed in    4.0 sec

Total number of grid points                  ...    65364
Total number of batches                      ...     1082
Average number of points per batch           ...       60
Average number of grid points per atom       ...      540
Average number of shells per batch           ...   229.98 (22.18%)
Average number of basis functions per batch  ...   562.21 (20.88%)
Average number of large shells per batch     ...   131.36 (57.12%)
Average number of large basis fcns per batch ...   329.26 (58.57%)
Maximum spatial batch extension              ...  22.63, 27.21, 17.92 au
Average spatial batch extension              ...   4.07,  4.13,  3.88 au

Overlap Fitting                  UseSFitting ... on
Constructing numerical overlap ... done (      4.1 sec)
Inverting numerical overlap    ... done (      0.5 sec)
Obtaining analytic overlap     ... done (      0.0 sec)
Final contraction and storage  ... done (      0.7 sec)


General Integration Accuracy     IntAcc      ...  4.010
Radial Grid Type                 RadialGrid  ... Gauss-Chebyshev
Angular Grid (max. acc.)         AngularGrid ... Lebedev-110
Angular grid pruning method      GridPruning ... 3 (G Style)
Weight generation scheme         WeightScheme... Becke
Basis function cutoff            BFCut       ...    1.0000e-11
Integration weight cutoff        WCut        ...    1.0000e-14
Grids for H and He will be reduced by one unit

# of grid points (after initial pruning)     ... 143532 (   0.2 sec)
# of grid points (after weights+screening)   ... 124413 (   8.2 sec)
nearest neighbour list constructed           ...    0.0 sec
Grid point re-assignment to atoms done       ...    0.0 sec
Grid point division into batches done        ...    0.1 sec
Reduced shell lists constructed in    6.6 sec

Total number of grid points                  ...   124413
Total number of batches                      ...     2005
Average number of points per batch           ...       62
Average number of grid points per atom       ...     1028
Average number of shells per batch           ...   217.81 (21.00%)
Average number of basis functions per batch  ...   531.76 (19.75%)
Average number of large shells per batch     ...   125.17 (57.47%)
Average number of large basis fcns per batch ...   313.41 (58.94%)
Maximum spatial batch extension              ...  24.23, 23.42, 20.33 au
Average spatial batch extension              ...   3.41,  3.41,  3.28 au

Overlap Fitting                  UseSFitting ... on
Constructing numerical overlap ... done (      6.6 sec)
Inverting numerical overlap    ... done (      0.5 sec)
Obtaining analytic overlap     ... done (      0.0 sec)
Final contraction and storage  ... done (      0.7 sec)

Time for X-Grid setup             =   48.447 sec
--------------
SCF ITERATIONS
--------------
ITER       Energy         Delta-E        Max-DP      RMS-DP      [F,P]     Damp
               ***  Starting incremental Fock matrix formation  ***
  0  -5809.5317244412   0.000000000000 0.21104715  0.00101869  0.2916722 0.7000
  1  -5810.5438582889  -1.012133847682 0.25654003  0.00089537  0.1036444 0.7000
                               ***Turning on DIIS***
  2  -5810.8963204529  -0.352462163972 0.72192796  0.00156224  0.0446696 0.0000
  3  -5811.5000534302  -0.603732977323 0.18259403  0.00072393  0.0582905 0.0000
  4  -5811.6217494218  -0.121695991604 0.05800019  0.00025097  0.0352110 0.0000
  5  -5811.6373811913  -0.015631769505 0.02857213  0.00011963  0.0102171 0.0000
  6  -5811.6384406494  -0.001059458029 0.00968007  0.00003756  0.0033300 0.0000
                      *** Initiating the SOSCF procedure ***
                           *** Shutting down DIIS ***
                      *** Re-Reading the Fockian *** 
                      *** Removing any level shift *** 
ITER      Energy       Delta-E        Grad      Rot      Max-DP    RMS-DP
  7  -5811.63860165  -0.0001610004  0.000931  0.000931  0.007043  0.000026
               *** Restarting incremental Fock matrix formation ***
  8  -5811.63867176  -0.0000701122  0.000211  0.002026  0.019987  0.000099
  9  -5811.63864960   0.0000221586  0.000394  0.001208  0.002468  0.000012
 10  -5811.63868116  -0.0000315542  0.000098  0.001271  0.004043  0.000016
 11  -5811.63867744   0.0000037186  0.000195  0.000465  0.001234  0.000005
 12  -5811.63868231  -0.0000048734  0.000035  0.000568  0.003404  0.000008
 13  -5811.63868161   0.0000006979  0.000101  0.000455  0.000767  0.000003
 14  -5811.63868255  -0.0000009308  0.000009  0.000064  0.002400  0.000004
 15  -5811.63868238   0.0000001681  0.000021  0.000058  0.000933  0.000002
 16  -5811.63868253  -0.0000001515  0.000005  0.000045  0.004681  0.000007
 17  -5811.63868245   0.0000000817  0.000010  0.000031  0.000522  0.000001
                  ***Gradient check signals convergence***
              ***Rediagonalizing the Fockian in SOSCF/NRSCF***

               *****************************************************
               *                     SUCCESS                       *
               *           SCF CONVERGED AFTER  18 CYCLES          *
               *****************************************************

Setting up the final grid:

General Integration Accuracy     IntAcc      ...  5.010
Radial Grid Type                 RadialGrid  ... Gauss-Chebyshev
Angular Grid (max. acc.)         AngularGrid ... Lebedev-434
Angular grid pruning method      GridPruning ... 3 (G Style)
Weight generation scheme         WeightScheme... Becke
Basis function cutoff            BFCut       ...    1.0000e-11
Integration weight cutoff        WCut        ...    1.0000e-14
Grids for H and He will be reduced by one unit

# of grid points (after initial pruning)     ... 1125200 (   2.8 sec)
# of grid points (after weights+screening)   ... 938573 (  65.3 sec)
nearest neighbour list constructed           ...    0.0 sec
Grid point re-assignment to atoms done       ...    0.2 sec
Grid point division into batches done        ...    6.0 sec
Reduced shell lists constructed in   40.0 sec

Total number of grid points                  ...   938573
Total number of batches                      ...    14723
Average number of points per batch           ...       63
Average number of grid points per atom       ...     7757
Average number of shells per batch           ...   186.48 (17.98%)
Average number of basis functions per batch  ...   448.60 (16.66%)
Average number of large shells per batch     ...   105.81 (56.74%)
Average number of large basis fcns per batch ...   261.03 (58.19%)
Maximum spatial batch extension              ...  20.76, 21.07, 22.14 au
Average spatial batch extension              ...   1.69,  1.71,  1.67 au

Final grid set up in  108.2 sec
Final integration                            ... done (  81.4 sec)
Change in XC energy                          ...    -0.000109542
Integrated number of electrons               ...   589.999661148
Previous integrated no of electrons          ...   589.999446294
Old exchange energy                            =   -115.403827537 Eh
New exchange energy                            =   -115.406044857 Eh
Exchange energy change after final integration =     -0.002217321 Eh
Total energy after final integration           =  -5811.641009317 Eh
Final COS-X integration done in                =  2233.823 sec

----------------
TOTAL SCF ENERGY
----------------

Total Energy       :        -5811.64100932 Eh         -158142.79169 eV

Components:
Nuclear Repulsion  :        13757.48093917 Eh          374360.08845 eV
Electronic Energy  :       -19569.12194849 Eh         -532502.88014 eV
One Electron Energy:       -35377.68862225 Eh         -962675.84891 eV
Two Electron Energy:        15808.56667376 Eh          430172.96876 eV

Virial components:
Potential Energy   :       -11607.68840855 Eh         -315861.25967 eV
Kinetic Energy     :         5796.04739923 Eh          157718.46799 eV
Virial Ratio       :            2.00269039


DFT components:
N(Alpha)           :      294.999830574189 electrons
N(Beta)            :      294.999830574189 electrons
N(Total)           :      589.999661148378 electrons
E(X)               :     -458.529550303810 Eh       
E(C)               :      -24.712494184366 Eh       
E(XC)              :     -483.242044488176 Eh       
DFET-embed. en.    :        0.000000000000 Eh       

---------------
SCF CONVERGENCE
---------------

  Last Energy change         ...   -7.7416e-09  Tolerance :   1.0000e-08
  Last MAX-Density change    ...    5.7732e-15  Tolerance :   1.0000e-07
  Last RMS-Density change    ...    1.3107e-17  Tolerance :   5.0000e-09
  Last Orbital Gradient      ...    1.1395e-06  Tolerance :   1.0000e-05
  Last Orbital Rotation      ...    4.4220e-06  Tolerance :   1.0000e-05

             **** THE GBW FILE WAS UPDATED (H2.gbw) ****
             **** DENSITY FILE WAS UPDATED (H2.scfp) ****
             **** ENERGY FILE WAS UPDATED (H2.en.tmp) ****
             **** THE GBW FILE WAS UPDATED (H2.gbw) ****
             **** DENSITY FILE WAS UPDATED (H2.scfp) ****
----------------
ORBITAL ENERGIES
----------------

  NO   OCC          E(Eh)            E(eV) 
   0   2.0000    -101.544345     -2763.1621 
   1   2.0000    -101.543349     -2763.1350 
   2   2.0000     -88.945234     -2420.3229 
   3   2.0000     -88.909336     -2419.3460 
   4   2.0000     -88.908579     -2419.3254 
   5   2.0000     -88.907426     -2419.2941 
   6   2.0000     -88.906051     -2419.2567 
   7   2.0000     -19.130731      -520.5737 
   8   2.0000     -19.128195      -520.5046 
   9   2.0000     -14.405721      -391.9996 
  10   2.0000     -14.405452      -391.9923 
  11   2.0000     -14.352091      -390.5402 
  12   2.0000     -14.352047      -390.5391 
  13   2.0000     -14.328444      -389.8968 
  14   2.0000     -14.327349      -389.8670 
  15   2.0000     -14.325717      -389.8226 
  16   2.0000     -14.325711      -389.8224 
  17   2.0000     -10.276669      -279.6424 
  18   2.0000     -10.273564      -279.5579 
  19   2.0000     -10.264732      -279.3176 
  20   2.0000     -10.264306      -279.3060 
  21   2.0000     -10.260315      -279.1974 
  22   2.0000     -10.259541      -279.1763 
  23   2.0000     -10.255164      -279.0572 
  24   2.0000     -10.254958      -279.0516 
  25   2.0000     -10.252292      -278.9790 
  26   2.0000     -10.251629      -278.9610 
  27   2.0000     -10.243099      -278.7289 
  28   2.0000     -10.243068      -278.7280 
  29   2.0000     -10.242232      -278.7053 
  30   2.0000     -10.242129      -278.7025 
  31   2.0000     -10.241016      -278.6722 
  32   2.0000     -10.240860      -278.6680 
  33   2.0000     -10.236536      -278.5503 
  34   2.0000     -10.236108      -278.5387 
  35   2.0000     -10.233757      -278.4747 
  36   2.0000     -10.232260      -278.4339 
  37   2.0000     -10.229431      -278.3570 
  38   2.0000     -10.228634      -278.3353 
  39   2.0000     -10.228432      -278.3298 
  40   2.0000     -10.227199      -278.2962 
  41   2.0000     -10.226920      -278.2886 
  42   2.0000     -10.226625      -278.2806 
  43   2.0000     -10.226613      -278.2803 
  44   2.0000     -10.226172      -278.2683 
  45   2.0000     -10.225879      -278.2603 
  46   2.0000     -10.225339      -278.2456 
  47   2.0000     -10.224385      -278.2197 
  48   2.0000     -10.224013      -278.2095 
  49   2.0000     -10.224005      -278.2093 
  50   2.0000     -10.222763      -278.1755 
  51   2.0000     -10.213734      -277.9298 
  52   2.0000     -10.213604      -277.9263 
  53   2.0000     -10.213588      -277.9259 
  54   2.0000     -10.213261      -277.9170 
  55   2.0000     -10.213167      -277.9144 
  56   2.0000     -10.213014      -277.9102 
  57   2.0000     -10.212802      -277.9045 
  58   2.0000     -10.212473      -277.8955 
  59   2.0000     -10.211528      -277.8698 
  60   2.0000     -10.209189      -277.8062 
  61   2.0000     -10.209078      -277.8031 
  62   2.0000     -10.208521      -277.7880 
  63   2.0000     -10.202202      -277.6160 
  64   2.0000     -10.198401      -277.5126 
  65   2.0000     -10.198091      -277.5042 
  66   2.0000     -10.191403      -277.3222 
  67   2.0000     -10.190287      -277.2918 
  68   2.0000     -10.185236      -277.1544 
  69   2.0000     -10.184272      -277.1281 
  70   2.0000     -10.179367      -276.9947 
  71   2.0000     -10.176714      -276.9225 
  72   2.0000     -10.170904      -276.7644 
  73   2.0000     -10.169588      -276.7286 
  74   2.0000     -10.168450      -276.6976 
  75   2.0000     -10.165219      -276.6097 
  76   2.0000     -10.163347      -276.5587 
  77   2.0000      -9.477055      -257.8838 
  78   2.0000      -9.476041      -257.8562 
  79   2.0000      -8.016310      -218.1349 
  80   2.0000      -7.985777      -217.3041 
  81   2.0000      -7.985346      -217.2923 
  82   2.0000      -7.982950      -217.2271 
  83   2.0000      -7.981646      -217.1916 
  84   2.0000      -7.238554      -196.9711 
  85   2.0000      -7.237525      -196.9431 
  86   2.0000      -7.230317      -196.7469 
  87   2.0000      -7.229735      -196.7311 
  88   2.0000      -7.229307      -196.7195 
  89   2.0000      -7.228715      -196.7033 
  90   2.0000      -5.981041      -162.7524 
  91   2.0000      -5.973661      -162.5516 
  92   2.0000      -5.973042      -162.5347 
  93   2.0000      -5.948521      -161.8675 
  94   2.0000      -5.948030      -161.8541 
  95   2.0000      -5.945909      -161.7964 
  96   2.0000      -5.944725      -161.7642 
  97   2.0000      -5.944607      -161.7610 
  98   2.0000      -5.944322      -161.7532 
  99   2.0000      -5.942126      -161.6935 
 100   2.0000      -5.941884      -161.6869 
 101   2.0000      -5.941402      -161.6738 
 102   2.0000      -5.940802      -161.6575 
 103   2.0000      -5.938765      -161.6020 
 104   2.0000      -5.937443      -161.5660 
 105   2.0000      -1.062565       -28.9139 
 106   2.0000      -1.058361       -28.7995 
 107   2.0000      -1.044644       -28.4262 
 108   2.0000      -1.032458       -28.0946 
 109   2.0000      -1.031415       -28.0662 
 110   2.0000      -0.945341       -25.7240 
 111   2.0000      -0.943564       -25.6757 
 112   2.0000      -0.935577       -25.4584 
 113   2.0000      -0.934259       -25.4225 
 114   2.0000      -0.929006       -25.2795 
 115   2.0000      -0.928884       -25.2762 
[...]
   Time for XC-Integration:    30.818
   Time for Sigma-Completion:   324.954
   Size of expansion space: 12
   Lowest Energy          :     0.046270469416
   Maximum Energy change  :     0.000006980202 (vector 2)
   Maximum residual norm  :     0.000002024768

                       ****Iteration    6****
   Time for densities:     7.456
   Time for K (COSX):  3067.227
   Time for XC-Integration:    33.150
   Time for Sigma-Completion:   273.690
   Size of expansion space: 15
   Lowest Energy          :     0.046270469057
   Maximum Energy change  :     0.000041578945 (vector 2)
   Maximum residual norm  :     0.000002688685
   Rebuilding the expansion space

                       ****Iteration    7****
   Time for densities:    15.010
   Time for K (COSX):  3253.590
   Time for XC-Integration:    66.839
   Time for Sigma-Completion:   557.028
   Size of expansion space: 6
   Lowest Energy          :     0.046270464589
   Maximum Energy change  :     0.000014758557 (vector 2)
   Maximum residual norm  :     0.000000612935

                       ****Iteration    8****
   Time for densities:     7.779
   Time for K (COSX):  3337.389
   Time for XC-Integration:    35.781
   Time for Sigma-Completion:   275.360
   Size of expansion space: 9
   Lowest Energy          :     0.046270464588
   Maximum Energy change  :     0.000005531593 (vector 2)
   Maximum residual norm  :     0.000000427486

                       ****Iteration    9****
   Time for densities:     7.758
   Time for K (COSX):  3416.204
   Time for XC-Integration:    37.705
   Time for Sigma-Completion:   271.788
   Size of expansion space: 12
   Lowest Energy          :     0.046270464588
   Maximum Energy change  :     0.000001351219 (vector 2)
   Maximum residual norm  :     0.000000313415

                       ****Iteration   10****
   Time for densities:     5.079
   Time for K (COSX):  3603.832
   Time for XC-Integration:    25.470
   Time for Sigma-Completion:   195.122
   Size of expansion space: 14
   Lowest Energy          :     0.046270464588
   Maximum Energy change  :     0.000000763649 (vector 2)
   Maximum residual norm  :     0.000000384234
   Rebuilding the expansion space

                       ****Iteration   11****
   Time for densities:    13.427
   Time for K (COSX):  3717.888
   Time for XC-Integration:    59.749
   Time for Sigma-Completion:   512.912
   Size of expansion space: 5
   Lowest Energy          :     0.046270464733
   Maximum Energy change  :     0.000000595879 (vector 2)
   Maximum residual norm  :     0.000000217449

      *** CONVERGENCE OF RESIDUAL NORM REACHED ***

Storing the converged CI vectors               ... H2.cis3

                 *** DAVIDSON DONE ***

------------------------------------
TD-DFT/TDA EXCITED STATES (TRIPLETS)
------------------------------------

the weight of the individual excitations are printed if larger than 1.0e-02

STATE  1:  E=   0.046270 au      1.259 eV    10155.2 cm**-1
   292a -> 296a  :     0.053197 (c=  0.23064575)
   294a -> 295a  :     0.899485 (c= -0.94841180)

STATE  2:  E=   0.053992 au      1.469 eV    11849.9 cm**-1
   290a -> 296a  :     0.013986 (c= -0.11826218)
   292a -> 295a  :     0.158098 (c=  0.39761582)
   293a -> 295a  :     0.027434 (c= -0.16563311)
   294a -> 296a  :     0.756904 (c= -0.87000208)

STATE  3:  E=   0.073428 au      1.998 eV    16115.5 cm**-1
   290a -> 295a  :     0.056501 (c= -0.23769926)
   290a -> 297a  :     0.012628 (c=  0.11237424)
   291a -> 295a  :     0.026981 (c=  0.16425821)
   292a -> 295a  :     0.031673 (c= -0.17796911)
   292a -> 296a  :     0.059200 (c=  0.24331104)
   292a -> 297a  :     0.026412 (c= -0.16251812)
   293a -> 295a  :     0.186089 (c=  0.43138039)
   293a -> 296a  :     0.050670 (c= -0.22510044)
   294a -> 296a  :     0.053939 (c= -0.23224814)
   294a -> 297a  :     0.398479 (c=  0.63125193)
   294a -> 299a  :     0.018990 (c=  0.13780358)

------------------------------
TD-DFT/TDA SPIN-ORBIT COUPLING
------------------------------

Calculating the spin-orbit integrals:             

Loading the effective charges         ... done
Entering the SOC calc. section        ... 
------------------------------------------------------------------------------
                         ORCA SPIN-ORBIT COUPLING CALCULATION
------------------------------------------------------------------------------

GBW file                                    ... H2.gbw
Input density                               ... H2.cisp0
Output integrals                            ... H2.cis
Operator type                               ... Mean-field/Effective potential
   One-Electron Terms                       ... 1
   Coulomb Contribution                     ... 2
   Exchange Contribution                    ... 3
   Correlation Contribution                 ... 0
   Maximum number of centers                ... 4
Setting up the integration grid             ... done
Evaluating density on the grid              ... (NumEl=  589.999446) done
Evaluating Coulomb term semi-analytically   ... done
One-Center Exchange (+SOO)                  ... done
Evaluating the spin-orbit operator          ... done
Transforming the SOC integrals              ... done
Constructing the SOC matrix:                ... done
Diagonalizing the SOC matrix:               ... done

      --------------------------------------------------------------------------------
                      CALCULATED SOCME BETWEEN TRIPLETS AND SINGLETS                  
      --------------------------------------------------------------------------------
           Root                          <T|HSO|S>  (Re, Im) cm-1                     
         T      S             Z                     X                     Y           
      --------------------------------------------------------------------------------
         1      0    (   0.00 ,    1.06 )    (   0.00 ,    1.05 )    (  -0.00 ,    0.34 )
         1      1    (   0.00 ,   -0.11 )    (   0.00 ,    0.38 )    (  -0.00 ,   -0.11 )
         1      2    (   0.00 ,    0.63 )    (   0.00 ,    1.12 )    (  -0.00 ,    0.21 )
         1      3    (   0.00 ,   -0.26 )    (   0.00 ,    0.04 )    (  -0.00 ,    0.55 )
         2      0    (   0.00 ,    0.32 )    (   0.00 ,   -0.42 )    (  -0.00 ,    1.25 )
         2      1    (   0.00 ,    0.13 )    (   0.00 ,    0.08 )    (  -0.00 ,    0.08 )
         2      2    (   0.00 ,    0.25 )    (   0.00 ,   -0.09 )    (  -0.00 ,    0.30 )
         2      3    (   0.00 ,   -1.34 )    (   0.00 ,    1.09 )    (  -0.00 ,   -0.02 )
         3      0    (   0.00 ,    2.37 )    (   0.00 ,   -4.04 )    (  -0.00 ,   -0.48 )
         3      1    (   0.00 ,   -0.90 )    (   0.00 ,    0.13 )    (  -0.00 ,   -0.45 )
         3      2    (   0.00 ,    0.04 )    (   0.00 ,   -0.67 )    (  -0.00 ,   -0.38 )
         3      3    (   0.00 ,    0.05 )    (   0.00 ,   -0.12 )    (  -0.00 ,    0.49 )

SOC stabilization of the ground state:  -0.0018 cm-1
Eigenvalues of the SOC matrix:

   State:        cm-1         eV
     0:          0.00         0.0000
     1:      10155.19         1.2591
     2:      10155.19         1.2591
     3:      10155.19         1.2591
     4:      11849.88         1.4692
     5:      11849.88         1.4692
     6:      11849.88         1.4692
     7:      14246.33         1.7663
     8:      16115.53         1.9981
     9:      16115.53         1.9981
    10:      16115.54         1.9981
    11:      16245.70         2.0142
    12:      18455.38         2.2882

The threshold for printing is 0.0100
Eigenvectors of the SOC matrix:

             E(cm-1)  Weight      Real         Imag     : Root  Spin  Ms
 STATE  0:      0.00
                      1.00000     -0.11701     -0.99313 : 0     0     0
 STATE  1:  10155.19
                      0.35743      0.54942      0.23574 : 1     1     0
                      0.32128     -0.56612      0.02818 : 1     1    -1
                      0.32128      0.36965      0.42970 : 1     1     1
 STATE  2:  10155.19
                      0.01472      0.10859     -0.05416 : 1     1     0
                      0.49264      0.59402      0.37387 : 1     1    -1
                      0.49264     -0.05866      0.69943 : 1     1     1
 STATE  3:  10155.19
                      0.62784      0.69439     -0.38166 : 1     1     0
                      0.18608      0.15294     -0.40335 : 1     1    -1
                      0.18608     -0.42249     -0.08708 : 1     1     1
 STATE  4:  11849.88
                      0.92331      0.06924     -0.95839 : 2     1     0
                      0.03835     -0.04608     -0.19032 : 2     1    -1
                      0.03835     -0.07296      0.18172 : 2     1     1
 STATE  5:  11849.88
                      0.07516      0.27163      0.03712 : 2     1     0
                      0.46242     -0.64521      0.21477 : 2     1    -1
                      0.46242      0.56393      0.38001 : 2     1     1
 STATE  6:  11849.88
                      0.49923      0.50100      0.49823 : 2     1    -1
                      0.49923     -0.07321      0.70276 : 2     1     1
 STATE  7:  14246.33
                      1.00000      0.95765     -0.28793 : 1     0     0
 STATE  8:  16115.53
                      0.49887     -0.27779      0.64939 : 3     1    -1
                      0.49887      0.70631      0.00000 : 3     1     1
 STATE  9:  16115.53
                      0.12242     -0.18754     -0.29539 : 3     1     0
                      0.43879      0.28180     -0.59948 : 3     1    -1
                      0.43879      0.66241      0.00000 : 3     1     1
 STATE 10:  16115.54
                      0.87536      0.60879      0.71045 : 3     1     0
                      0.06232      0.03825     -0.24669 : 3     1    -1
                      0.06232      0.24964      0.00000 : 3     1     1
 STATE 11:  16245.70
                      0.99996      0.49277      0.87014 : 2     0     0
 STATE 12:  18455.38
                      1.00000     -0.97060      0.24068 : 3     0     0

-----------------------------
TD-DFT/TDA-EXCITATION SPECTRA
-----------------------------

Center of mass = (-11.6993,-15.4423, -0.1281)
Calculating the Dipole integrals                  ... done
Transforming integrals                            ... done
Calculating the Linear Momentum integrals         ... done
Transforming integrals                            ... done
Calculating angular momentum integrals            ... done
Transforming integrals                            ... done

-----------------------------------------------------------------------------
         ABSORPTION SPECTRUM VIA TRANSITION ELECTRIC DIPOLE MOMENTS
-----------------------------------------------------------------------------
State   Energy    Wavelength  fosc         T2        TX        TY        TZ  
        (cm-1)      (nm)                 (au**2)    (au)      (au)      (au) 
-----------------------------------------------------------------------------
   1   14246.3    701.9   1.807486907  41.76841  -4.47537  -4.51637   1.15840
   2   16245.7    615.5   0.198527074   4.02306   0.27247   0.91333  -1.76484
   3   18455.4    541.8   0.198649654   3.54357  -1.00607  -1.50729   0.50937
   4   10155.2    984.7   spin forbidden (mult=3)
   5   11849.9    843.9   spin forbidden (mult=3)
   6   16115.5    620.5   spin forbidden (mult=3)

-----------------------------------------------------------------------------
         ABSORPTION SPECTRUM VIA TRANSITION VELOCITY DIPOLE MOMENTS
-----------------------------------------------------------------------------
State   Energy    Wavelength   fosc        P2         PX        PY        PZ  
        (cm-1)      (nm)                 (au**2)     (au)      (au)      (au) 
-----------------------------------------------------------------------------
   1   14246.3    701.9   0.282452319   0.02750   0.12499   0.10688  -0.02134
   2   16245.7    615.5   0.090132198   0.01001  -0.05078  -0.04021  -0.07624
   3   18455.4    541.8   0.084310014   0.01063   0.09626   0.01842   0.03208
   4   10155.2    984.7   spin forbidden (mult=3)
   5   11849.9    843.9   spin forbidden (mult=3)
   6   16115.5    620.5   spin forbidden (mult=3)

-------------------------------------------------------------------
                             CD SPECTRUM
-------------------------------------------------------------------
State  Energy     Wavelength     R         MX        MY        MZ   
       (cm-1)       (nm)     (1e40*cgs)   (au)      (au)      (au)  
-------------------------------------------------------------------
   1   14246.3    701.9    -292.44868  -0.36703   0.61393   0.44011
   2   16245.7    615.5     67.39845  -0.13670   0.01157  -0.09612
   3   18455.4    541.8    -136.74913  -0.50480   0.55249   0.06839
   4   10155.2    984.7 spin forbidden
   5   11849.9    843.9 spin forbidden
   6   16115.5    620.5 spin forbidden

-------------------------------------------
SOC CORRECTED TD-DFT/TDA-EXCITATION SPECTRA
--------------------------------------------

-----------------------------------------------------------------------------
  SOC CORRECTED ABSORPTION SPECTRUM VIA TRANSITION ELECTRIC DIPOLE MOMENTS*  
-----------------------------------------------------------------------------
State   Energy  Wavelength   fosc         T2         TX        TY        TZ  
        (cm-1)    (nm)                  (au**2)     (au)      (au)      (au) 
-----------------------------------------------------------------------------
   1   10155.2    984.7   0.000000014   0.00000   0.00036   0.00039   0.00042
   2   10155.2    984.7   0.000000018   0.00000   0.00046   0.00053   0.00030
   3   10155.2    984.7   0.000000000   0.00000   0.00004   0.00001   0.00001
   4   11849.9    843.9   0.000000035   0.00000   0.00070   0.00066   0.00023
   5   11849.9    843.9   0.000000019   0.00000   0.00048   0.00054   0.00002
   6   11849.9    843.9   0.000000002   0.00000   0.00005   0.00010   0.00022
   7   14246.3    701.9   1.807485947  41.76838   4.47537   4.51637   1.15840
   8   16115.5    620.5   0.000007001   0.00014   0.00225   0.00568   0.01028
   9   16115.5    620.5   0.000000014   0.00000   0.00032   0.00041   0.00005
  10   16115.5    620.5   0.000000684   0.00001   0.00263   0.00266   0.00011
  11   16245.7    615.5   0.198520259   4.02292   0.27246   0.91332   1.76481
  12   18455.4    541.8   0.198649596   3.54356   1.00607   1.50729   0.50937

-----------------------------------------------------------------------------
  SOC CORRECTED ABSORPTION SPECTRUM VIA TRANSITION VELOCITY DIPOLE MOMENTS*  
-----------------------------------------------------------------------------
State   Energy  Wavelength   fosc         P2         PX        PY        PZ  
        (cm-1)    (nm)                  (au**2)     (au)      (au)      (au) 
-----------------------------------------------------------------------------
   1   10155.2    984.7   0.000000022   0.00000   0.00003   0.00002   0.00002
   2   10155.2    984.7   0.000000006   0.00000   0.00001   0.00001   0.00001
   3   10155.2    984.7   0.000000004   0.00000   0.00001   0.00001   0.00001
   4   11849.9    843.9   0.000000002   0.00000   0.00001   0.00000   0.00001
   5   11849.9    843.9   0.000000013   0.00000   0.00003   0.00001   0.00000
   6   11849.9    843.9   0.000000002   0.00000   0.00001   0.00000   0.00001
   7   14246.3    701.9   0.282452143   0.02750   0.12499   0.10688   0.02134
   8   16115.5    620.5   0.000003372   0.00000   0.00033   0.00026   0.00045
   9   16115.5    620.5   0.000000002   0.00000   0.00001   0.00000   0.00001
  10   16115.5    620.5   0.000000070   0.00000   0.00005   0.00004   0.00006
  11   16245.7    615.5   0.090128829   0.01001   0.05077   0.04020   0.07624
  12   18455.4    541.8   0.084309981   0.01063   0.09626   0.01842   0.03208

-------------------------------------------------------------------
                    SOC CORRECTED CD SPECTRUM*                     
-------------------------------------------------------------------
State   Energy Wavelength       R         MX        MY        MZ   
        (cm-1)   (nm)       (1e40*sgs)   (au)      (au)      (au)  
-------------------------------------------------------------------
   1   10155.2    984.7      0.00000   0.00009   0.00010   0.00003
   2   10155.2    984.7      0.00000   0.00003   0.00004   0.00003
   3   10155.2    984.7      0.00000   0.00003   0.00001   0.00002
   4   11849.9    843.9      0.00000   0.00003   0.00003   0.00002
   5   11849.9    843.9      0.00001   0.00012   0.00016   0.00006
   6   11849.9    843.9      0.00000   0.00003   0.00004   0.00001
   7   14246.3    701.9    292.44854   0.36703   0.61393   0.44011
   8   16115.5    620.5      0.00210   0.00073   0.00005   0.00062
   9   16115.5    620.5      0.00001   0.00014   0.00014   0.00003
  10   16115.5    620.5      0.00007   0.00034   0.00040   0.00018
  11   16245.7    615.5     67.39631   0.13669   0.01158   0.09612
  12   18455.4    541.8    136.74910   0.50480   0.55249   0.06839

*The X,Y and Z components are the absolute values of the complex numbers

Total run time:    98236.831 sec

           *** ORCA-CIS/TD-DFT FINISHED WITHOUT ERROR ***

---------------------------
SOC CIS/TD-DFT TOTAL ENERGY
---------------------------

    E(SCF)        =  -5811.641009317 Eh
    E(SOC CIS)    =      0.046270462 Eh (SOC Root  1)
    ----------------------------- ---------
    E(tot)        =  -5811.594738856 Eh


-------------------------   --------------------
FINAL SINGLE POINT ENERGY     -5811.594738855697
-------------------------   --------------------


                            ***************************************
                            *     ORCA property calculations      *
                            ***************************************

                                    ---------------------
                                    Active property flags
                                    ---------------------
   (+) Dipole Moment


------------------------------------------------------------------------------
                       ORCA ELECTRIC PROPERTIES CALCULATION
------------------------------------------------------------------------------

Dipole Moment Calculation                       ... on
Quadrupole Moment Calculation                   ... off
Polarizability Calculation                      ... off
GBWName                                         ... H2.gbw
Electron density file                           ... H2.scfp
The origin for moment calculation is the CENTER OF MASS  = (-11.699348, -15.442333 -0.128057)

-------------
DIPOLE MOMENT
-------------
                                X             Y             Z
Electronic contribution:    -20.02337     -17.34814      14.41331
Nuclear contribution   :     21.96467      16.27616     -17.06025
                        -----------------------------------------
Total Dipole Moment    :      1.94130      -1.07198      -2.64693
                        -----------------------------------------
Magnitude (a.u.)       :      3.45312
Magnitude (Debye)      :      8.77714



--------------------
Rotational spectrum 
--------------------
 
Rotational constants in cm-1:     0.001363     0.000282     0.000251 
Rotational constants in MHz :    40.865089     8.452460     7.521912 

 Dipole components along the rotational axes: 
x,y,z [a.u.] :     1.124913    -1.225052    -3.026197 
x,y,z [Debye]:     2.859301    -3.113834    -7.691981 

 

Timings for individual modules:

Sum of individual times         ...   119531.898 sec (=1992.198 min)
GTO integral calculation        ...        9.233 sec (=   0.154 min)   0.0 %
SCF iterations                  ...    21285.646 sec (= 354.761 min)  17.8 %
CIS module                      ...    98237.020 sec (=1637.284 min)  82.2 %
                             ****ORCA TERMINATED NORMALLY****
TOTAL RUN TIME: 1 days 9 hours 12 minutes 13 seconds 741 msec
