
                                 *****************
                                 * O   R   C   A *
                                 *****************

           --- An Ab Initio, DFT and Semiempirical electronic structure package ---

                  #######################################################
                  #                        -***-                        #
                  #          Department of theory and spectroscopy      #
                  #               Directorship: Frank Neese             #
                  #        Max Planck Institute fuer Kohlenforschung    #
                  #                Kaiser Wilhelm Platz 1               #
                  #                 D-45470 Muelheim/Ruhr               #
                  #                      Germany                        #
                  #                                                     #
                  #                  All rights reserved                #
                  #                        -***-                        #
                  #######################################################


                         Program Version 4.2.0 -  RELEASE  -


 With contributions from (in alphabetic order):
   Daniel Aravena         : Magnetic Suceptibility
   Michael Atanasov       : Ab Initio Ligand Field Theory (pilot matlab implementation)
   Alexander A. Auer      : GIAO ZORA, VPT2
   Ute Becker             : Parallelization
   Giovanni Bistoni       : ED, misc. LED, open-shell LED, HFLED
   Martin Brehm           : Molecular dynamics
   Dmytro Bykov           : SCF Hessian
   Vijay G. Chilkuri      : MRCI spin determinant printing, contributions to CSF-ICE
   Dipayan Datta          : RHF DLPNO-CCSD density
   Achintya Kumar Dutta   : EOM-CC, STEOM-CC
   Dmitry Ganyushin       : Spin-Orbit,Spin-Spin,Magnetic field MRCI
   Miquel Garcia          : C-PCM Hessian, Gaussian charge scheme
   Yang Guo               : DLPNO-NEVPT2, CIM, IAO-localization
   Andreas Hansen         : Spin unrestricted coupled pair/coupled cluster methods
   Benjamin Helmich-Paris : CASSCF linear response (MC-RPA)
   Lee Huntington         : MR-EOM, pCC
   Robert Izsak           : Overlap fitted RIJCOSX, COSX-SCS-MP3, EOM
   Christian Kollmar      : KDIIS, OOCD, Brueckner-CCSD(T), CCSD density
   Simone Kossmann        : Meta GGA functionals, TD-DFT gradient, OOMP2, MP2 Hessian
   Martin Krupicka        : AUTO-CI
   Lucas Lang             : DCDCAS
   Dagmar Lenk            : GEPOL surface, SMD
   Dimitrios Liakos       : Extrapolation schemes; Compound Job, initial MDCI parallelization
   Dimitrios Manganas     : Further ROCIS development; embedding schemes
   Dimitrios Pantazis     : SARC Basis sets
   Taras Petrenko         : DFT Hessian,TD-DFT gradient, ASA, ECA, R-Raman, ABS, FL, XAS/XES, NRVS
   Peter Pinski           : DLPNO-MP2, DLPNO-MP2 Gradient
   Christoph Reimann      : Effective Core Potentials
   Marius Retegan         : Local ZFS, SOC
   Christoph Riplinger    : Optimizer, TS searches, QM/MM, DLPNO-CCSD(T), (RO)-DLPNO pert. Triples
   Tobias Risthaus        : Range-separated hybrids, TD-DFT gradient, RPA, STAB
   Michael Roemelt        : Original ROCIS implementation
   Masaaki Saitow         : Open-shell DLPNO-CCSD energy and density
   Barbara Sandhoefer     : DKH picture change effects
   Avijit Sen             : IP-ROCIS
   Kantharuban Sivalingam : CASSCF convergence, NEVPT2, FIC-MRCI
   Bernardo de Souza      : ESD, SOC TD-DFT
   Georgi Stoychev        : AutoAux, RI-MP2 NMR
   Willem Van den Heuvel  : Paramagnetic NMR
   Boris Wezisla          : Elementary symmetry handling
   Frank Wennmohs         : Technical directorship


 We gratefully acknowledge several colleagues who have allowed us to
 interface, adapt or use parts of their codes:
   Stefan Grimme, W. Hujo, H. Kruse,             : VdW corrections, initial TS optimization,
                  C. Bannwarth                     DFT functionals, gCP, sTDA/sTD-DF
   Ed Valeev, F. Pavosevic, A. Kumar             : LibInt (2-el integral package), F12 methods
   Garnet Chan, S. Sharma, J. Yang, R. Olivares  : DMRG
   Ulf Ekstrom                                   : XCFun DFT Library
   Mihaly Kallay                                 : mrcc  (arbitrary order and MRCC methods)
   Andreas Klamt, Michael Diedenhofen            : otool_cosmo (COSMO solvation model)
   Jiri Pittner, Ondrej Demel                    : Mk-CCSD
   Frank Weinhold                                : gennbo (NPA and NBO analysis)
   Christopher J. Cramer and Donald G. Truhlar   : smd solvation model
   Lars Goerigk                                  : TD-DFT with DH, B97 family of functionals
   V. Asgeirsson, H. Jonsson                     : NEB implementation
   FAccTs GmbH                                   : IRC, NEB, NEB-TS, Multilevel, MM, QM/MM, CI optimization
   S Lehtola, MJT Oliveira, MAL Marques          : LibXC Library


 Your calculation uses the libint2 library for the computation of 2-el integrals
 For citations please refer to: http://libint.valeyev.net

 Your ORCA version has been built with support for libXC version: 4.2.3
 For citations please refer to: https://tddft.org/programs/libxc/

 This ORCA versions uses:
   CBLAS   interface :  Fast vector & matrix operations
   LAPACKE interface :  Fast linear algebra routines
   SCALAPACK package :  Parallel linear algebra routines


----- Orbital basis set information -----
Your calculation utilizes the basis: def2-TZVP
   F. Weigend and R. Ahlrichs, Phys. Chem. Chem. Phys. 7, 3297 (2005).

----- AuxJ basis set information -----
Your calculation utilizes the auxiliary basis: def2/J
   F. Weigend, Phys. Chem. Chem. Phys. 8, 1057 (2006).

================================================================================
                                        WARNINGS
                       Please study these warnings very carefully!
================================================================================

INFO   : Checking CIS options ...

WARNING: (CIS/TDDFT): Spin-orbit needs TRIPLETS set to TRUE
  ===> : ajusting flags

WARNING: CIS/ROCIS methods need fully converged wavefunctions
  ===> : Setting SCFConvForced true
         You can overwrite this default with %scf ConvForced false 


INFO   : the flag for use of LIBINT has been found!

================================================================================
                                       INPUT FILE
================================================================================
NAME = IDF-4F.inp
|  1> # ORCA input file
|  2> # IDF-4F.out: Geometry 146
|  3> ! B3LYP def2-TZVP def2/J RIJCOSX Grid4 TightSCF
|  4> 
|  5> %maxcore 6000
|  6> %tddft
|  7>   maxdim 5
|  8>   nroots 3
|  9>   dosoc true
| 10>   end
| 11> %pal
| 12>   nprocs 6
| 13>   end
| 14> 
| 15> 
| 16> * xyz 0 1
| 17>    C        0.16738        -2.76988        -2.20975
| 18>    C       -0.93897        -3.22446        -1.51506
| 19>    C       -2.10905        -3.89971        -2.08981
| 20>    C       -2.96583        -4.34760        -0.96043
| 21>    C       -2.38807        -3.90122         0.24107
| 22>    C       -1.12139        -3.18516        -0.03820
| 23>    C       -4.16313        -5.07683        -0.91175
| 24>    C       -4.72696        -5.32627         0.33827
| 25>    C       -4.14015        -4.85436         1.52682
| 26>    C       -2.95303        -4.13451         1.48868
| 27>    F       -4.74144        -5.11578         2.68356
| 28>    F       -5.85623        -6.02457         0.43423
| 29>    O       -0.40099        -2.69676         0.81536
| 30>    C       -2.42623        -4.06811        -3.42618
| 31>    C       -3.61199        -4.73700        -3.86625
| 32>    C       -1.63881        -3.56121        -4.50740
| 33>    N       -4.56620        -5.27079        -4.26086
| 34>    N       -1.03699        -3.16106        -5.41801
| 35>    C        1.32305        -2.09065        -1.77057
| 36>    O        2.27349        -1.86822        -2.78198
| 37>    C        3.27092        -1.19432        -2.21366
| 38>    C        3.03143        -0.94163        -0.87248
| 39>    C        1.79544        -1.52082        -0.57178
| 40>    C       11.09509         3.12701        -3.40628
| 41>    C       11.27545         3.96313        -2.32875
| 42>    C       10.41104         4.38336        -1.23248
| 43>    C       11.29502         4.90107        -0.15803
| 44>    C       12.60474         5.01758        -0.67037
| 45>    C       12.64927         4.49550        -2.06144
| 46>    C       11.02843         5.31460         1.15341
| 47>    C       12.08691         5.82237         1.90416
| 48>    C       13.38338         5.94737         1.37141
| 49>    C       13.65576         5.54418         0.07054
| 50>    F       14.34140         6.45705         2.13827
| 51>    F       11.89092         6.20979         3.16112
| 52>    O       13.61314         4.46099        -2.79813
| 53>    C        9.03155         4.50497        -1.26393
| 54>    C        8.24816         4.87742        -0.12833
| 55>    C        8.28527         4.36458        -2.47637
| 56>    N        7.56986         5.14337         0.77805
| 57>    N        7.67652         4.30309        -3.46370
| 58>    C        4.54567        -0.68468        -2.64813
| 59>    C        5.12914        -0.09355        -1.48468
| 60>    C        4.18774        -0.17740        -0.25762
| 61>    C        5.20447        -0.69112        -3.88910
| 62>    C        6.47025        -0.12908        -3.94517
| 63>    C        7.03986         0.47699        -2.78537
| 64>    C        6.37448         0.50731        -1.55160
| 65>    C        7.40259        -0.00223        -5.17686
| 66>    C        8.52737         0.82873        -4.56953
| 67>    C        8.27962         1.04490        -3.22723
| 68>    C        3.81277         1.26029         0.13416
| 69>    C        4.76347        -1.00336         0.89984
| 70>    C        7.96297        -1.35898        -5.62939
| 71>    C        6.65573         0.77533        -6.27237
| 72>    C        5.75701        -1.96728         0.68964
| 73>    C        6.20183        -2.78215         1.73264
| 74>    C        5.66521        -2.66940         3.02332
| 75>    C        4.65949        -1.71019         3.22301
| 76>    C        4.21306        -0.89289         2.18392
| 77>    C        2.67741         1.88244        -0.39596
| 78>    C        2.38654         3.21424        -0.09560
| 79>    C        3.21436         3.97294         0.74157
| 80>    C        4.36661         3.35137         1.25213
| 81>    C        4.65952         2.02077         0.95513
| 82>    C        6.16369         0.15933        -7.42682
| 83>    C        5.41816         0.89245        -8.35790
| 84>    C        5.13912         2.24913        -8.15770
| 85>    C        5.62650         2.85434        -6.98761
| 86>    C        6.37590         2.13608        -6.06158
| 87>    C        8.98285        -1.39155        -6.59569
| 88>    C        9.58124        -2.59179        -6.97297
| 89>    C        9.18305        -3.81424        -6.40285
| 90>    C        8.14881        -3.77948        -5.46306
| 91>    C        7.55300        -2.57522        -5.07539
| 92>    C        6.15781        -3.52506         4.17324
| 93>    C        6.45437        -4.98542         3.81801
| 94>    C        2.84280         5.39278         1.10993
| 95>    C        3.95655         6.42957         0.94685
| 96>    C        9.86461        -5.11413        -6.76771
| 97>    C        9.75076        -5.49732        -8.24661
| 98>    C        4.38694         3.06701        -9.17966
| 99>    C        5.32343         3.86501       -10.09875
|100>    C        9.69422         1.55523        -4.86490
|101>    C       10.07012         2.19699        -3.67384
|102>    O        9.19257         1.83854        -2.66316
|103>    H        0.19658        -2.95375        -3.28520
|104>    H       -4.67366        -5.46342        -1.79116
|105>    H       -2.48299        -3.76447         2.40092
|106>    H        1.25752        -1.56977         0.36794
|107>    H       11.91316         3.14879        -4.13630
|108>    H       10.04416         5.25220         1.61603
|109>    H       14.65783         5.64474        -0.34934
|110>    H        4.73280        -1.12086        -4.77400
|111>    H        6.82030         0.99412        -0.68400
|112>    H        6.19315        -2.09189        -0.30273
|113>    H        6.98461        -3.51502         1.52695
|114>    H        4.21150        -1.59949         4.21441
|115>    H        3.42695        -0.15939         2.37537
|116>    H        2.00691         1.32505        -1.05142
|117>    H        1.49045         3.67305        -0.52130
|118>    H        5.05461         3.91421         1.88605
|119>    H        5.55315         1.56315         1.38428
|120>    H        6.36258        -0.89817        -7.60752
|121>    H        5.03940         0.39327        -9.25441
|122>    H        5.40581         3.90790        -6.79397
|123>    H        6.73816         2.64681        -5.16659
|124>    H        9.31913        -0.45975        -7.05583
|125>    H       10.38664        -2.57768        -7.71286
|126>    H        7.80787        -4.71045        -5.00201
|127>    H        6.77200        -2.59881        -4.31675
|128>    H        5.41185        -3.48332         4.98388
|129>    H        7.07026        -3.06259         4.59339
|130>    H        5.57266        -5.47416         3.37285
|131>    H        6.74694        -5.55433         4.71419
|132>    H        7.28140        -5.07697         3.09692
|133>    H        2.49594         5.39902         2.15997
|134>    H        1.96958         5.69357         0.50889
|135>    H        4.84780         6.17898         1.54062
|136>    H        3.60337         7.42133         1.27178
|137>    H        4.28095         6.50743        -0.10260
|138>    H        9.44725        -5.92040        -6.14384
|139>    H       10.93251        -5.04292        -6.49272
|140>    H        8.69917        -5.63647        -8.54251
|141>    H       10.29155        -6.43457        -8.45092
|142>    H       10.17947        -4.72089        -8.89916
|143>    H        3.71101         3.76387        -8.65548
|144>    H        3.74807         2.40601        -9.78864
|145>    H        5.97234         4.53575        -9.51286
|146>    H        4.75184         4.48071       -10.81189
|147>    H        5.97943         3.19300       -10.67574
|148>    H       10.20890         1.67708        -5.81527
|149> *
|150> 
|151>                          ****END OF INPUT****
================================================================================

                       ****************************
                       * Single Point Calculation *
                       ****************************

---------------------------------
CARTESIAN COORDINATES (ANGSTROEM)
---------------------------------
  C      0.167380   -2.769880   -2.209750
  C     -0.938970   -3.224460   -1.515060
  C     -2.109050   -3.899710   -2.089810
  C     -2.965830   -4.347600   -0.960430
  C     -2.388070   -3.901220    0.241070
  C     -1.121390   -3.185160   -0.038200
  C     -4.163130   -5.076830   -0.911750
  C     -4.726960   -5.326270    0.338270
  C     -4.140150   -4.854360    1.526820
  C     -2.953030   -4.134510    1.488680
  F     -4.741440   -5.115780    2.683560
  F     -5.856230   -6.024570    0.434230
  O     -0.400990   -2.696760    0.815360
  C     -2.426230   -4.068110   -3.426180
  C     -3.611990   -4.737000   -3.866250
  C     -1.638810   -3.561210   -4.507400
  N     -4.566200   -5.270790   -4.260860
  N     -1.036990   -3.161060   -5.418010
  C      1.323050   -2.090650   -1.770570
  O      2.273490   -1.868220   -2.781980
  C      3.270920   -1.194320   -2.213660
  C      3.031430   -0.941630   -0.872480
  C      1.795440   -1.520820   -0.571780
  C     11.095090    3.127010   -3.406280
  C     11.275450    3.963130   -2.328750
  C     10.411040    4.383360   -1.232480
  C     11.295020    4.901070   -0.158030
  C     12.604740    5.017580   -0.670370
  C     12.649270    4.495500   -2.061440
  C     11.028430    5.314600    1.153410
  C     12.086910    5.822370    1.904160
  C     13.383380    5.947370    1.371410
  C     13.655760    5.544180    0.070540
  F     14.341400    6.457050    2.138270
  F     11.890920    6.209790    3.161120
  O     13.613140    4.460990   -2.798130
  C      9.031550    4.504970   -1.263930
  C      8.248160    4.877420   -0.128330
  C      8.285270    4.364580   -2.476370
  N      7.569860    5.143370    0.778050
  N      7.676520    4.303090   -3.463700
  C      4.545670   -0.684680   -2.648130
  C      5.129140   -0.093550   -1.484680
  C      4.187740   -0.177400   -0.257620
  C      5.204470   -0.691120   -3.889100
  C      6.470250   -0.129080   -3.945170
  C      7.039860    0.476990   -2.785370
  C      6.374480    0.507310   -1.551600
  C      7.402590   -0.002230   -5.176860
  C      8.527370    0.828730   -4.569530
  C      8.279620    1.044900   -3.227230
  C      3.812770    1.260290    0.134160
  C      4.763470   -1.003360    0.899840
  C      7.962970   -1.358980   -5.629390
  C      6.655730    0.775330   -6.272370
  C      5.757010   -1.967280    0.689640
  C      6.201830   -2.782150    1.732640
  C      5.665210   -2.669400    3.023320
  C      4.659490   -1.710190    3.223010
  C      4.213060   -0.892890    2.183920
  C      2.677410    1.882440   -0.395960
  C      2.386540    3.214240   -0.095600
  C      3.214360    3.972940    0.741570
  C      4.366610    3.351370    1.252130
  C      4.659520    2.020770    0.955130
  C      6.163690    0.159330   -7.426820
  C      5.418160    0.892450   -8.357900
  C      5.139120    2.249130   -8.157700
  C      5.626500    2.854340   -6.987610
  C      6.375900    2.136080   -6.061580
  C      8.982850   -1.391550   -6.595690
  C      9.581240   -2.591790   -6.972970
  C      9.183050   -3.814240   -6.402850
  C      8.148810   -3.779480   -5.463060
  C      7.553000   -2.575220   -5.075390
  C      6.157810   -3.525060    4.173240
  C      6.454370   -4.985420    3.818010
  C      2.842800    5.392780    1.109930
  C      3.956550    6.429570    0.946850
  C      9.864610   -5.114130   -6.767710
  C      9.750760   -5.497320   -8.246610
  C      4.386940    3.067010   -9.179660
  C      5.323430    3.865010  -10.098750
  C      9.694220    1.555230   -4.864900
  C     10.070120    2.196990   -3.673840
  O      9.192570    1.838540   -2.663160
  H      0.196580   -2.953750   -3.285200
  H     -4.673660   -5.463420   -1.791160
  H     -2.482990   -3.764470    2.400920
  H      1.257520   -1.569770    0.367940
  H     11.913160    3.148790   -4.136300
  H     10.044160    5.252200    1.616030
  H     14.657830    5.644740   -0.349340
  H      4.732800   -1.120860   -4.774000
  H      6.820300    0.994120   -0.684000
  H      6.193150   -2.091890   -0.302730
  H      6.984610   -3.515020    1.526950
  H      4.211500   -1.599490    4.214410
  H      3.426950   -0.159390    2.375370
  H      2.006910    1.325050   -1.051420
  H      1.490450    3.673050   -0.521300
  H      5.054610    3.914210    1.886050
  H      5.553150    1.563150    1.384280
  H      6.362580   -0.898170   -7.607520
  H      5.039400    0.393270   -9.254410
  H      5.405810    3.907900   -6.793970
  H      6.738160    2.646810   -5.166590
  H      9.319130   -0.459750   -7.055830
  H     10.386640   -2.577680   -7.712860
  H      7.807870   -4.710450   -5.002010
  H      6.772000   -2.598810   -4.316750
  H      5.411850   -3.483320    4.983880
  H      7.070260   -3.062590    4.593390
  H      5.572660   -5.474160    3.372850
  H      6.746940   -5.554330    4.714190
  H      7.281400   -5.076970    3.096920
  H      2.495940    5.399020    2.159970
  H      1.969580    5.693570    0.508890
  H      4.847800    6.178980    1.540620
  H      3.603370    7.421330    1.271780
  H      4.280950    6.507430   -0.102600
  H      9.447250   -5.920400   -6.143840
  H     10.932510   -5.042920   -6.492720
  H      8.699170   -5.636470   -8.542510
  H     10.291550   -6.434570   -8.450920
  H     10.179470   -4.720890   -8.899160
  H      3.711010    3.763870   -8.655480
  H      3.748070    2.406010   -9.788640
  H      5.972340    4.535750   -9.512860
  H      4.751840    4.480710  -10.811890
  H      5.979430    3.193000  -10.675740
  H     10.208900    1.677080   -5.815270

----------------------------
CARTESIAN COORDINATES (A.U.)
----------------------------
  NO LB      ZA    FRAG     MASS         X           Y           Z
   0 C     6.0000    0    12.011    0.316302   -5.234315   -4.175822
   1 C     6.0000    0    12.011   -1.774396   -6.093346   -2.863048
   2 C     6.0000    0    12.011   -3.985527   -7.369384   -3.949169
   3 C     6.0000    0    12.011   -5.604606   -8.215773   -1.814950
   4 C     6.0000    0    12.011   -4.512798   -7.372237    0.455556
   5 C     6.0000    0    12.011   -2.119120   -6.019080   -0.072188
   6 C     6.0000    0    12.011   -7.867176   -9.593818   -1.722958
   7 C     6.0000    0    12.011   -8.932660  -10.065192    0.639238
   8 C     6.0000    0    12.011   -7.823750   -9.173411    2.885272
   9 C     6.0000    0    12.011   -5.580418   -7.813092    2.813198
  10 F     9.0000    0    18.998   -8.960023   -9.667423    5.071193
  11 F     9.0000    0    18.998  -11.066671  -11.384787    0.820576
  12 O     8.0000    0    15.999   -0.757761   -5.096138    1.540807
  13 C     6.0000    0    12.011   -4.584910   -7.687614   -6.474542
  14 C     6.0000    0    12.011   -6.825672   -8.951633   -7.306154
  15 C     6.0000    0    12.011   -3.096902   -6.729712   -8.517752
  16 N     7.0000    0    14.007   -8.628867   -9.960350   -8.051858
  17 N     7.0000    0    14.007   -1.959627   -5.973538  -10.238555
  18 C     6.0000    0    12.011    2.500202   -3.950756   -3.345892
  19 O     8.0000    0    15.999    4.296273   -3.530424   -5.257180
  20 C     6.0000    0    12.011    6.181143   -2.256938   -4.183211
  21 C     6.0000    0    12.011    5.728572   -1.779423   -1.648748
  22 C     6.0000    0    12.011    3.392890   -2.873933   -1.080508
  23 C     6.0000    0    12.011   20.966682    5.909193   -6.436936
  24 C     6.0000    0    12.011   21.307513    7.489230   -4.400700
  25 C     6.0000    0    12.011   19.674014    8.283350   -2.329050
  26 C     6.0000    0    12.011   21.344494    9.261680   -0.298633
  27 C     6.0000    0    12.011   23.819507    9.481852   -1.266816
  28 C     6.0000    0    12.011   23.903656    8.495264   -3.895557
  29 C     6.0000    0    12.011   20.840712   10.043139    2.179629
  30 C     6.0000    0    12.011   22.840950   11.002685    3.598341
  31 C     6.0000    0    12.011   25.290923   11.238901    2.591589
  32 C     6.0000    0    12.011   25.805647   10.476982    0.133301
  33 F     9.0000    0    18.998   27.101318   12.202056    4.040745
  34 F     9.0000    0    18.998   22.470582   11.734802    5.973651
  35 O     8.0000    0    15.999   25.725106    8.430049   -5.287699
  36 C     6.0000    0    12.011   17.067156    8.513160   -2.388482
  37 C     6.0000    0    12.011   15.586764    9.216988   -0.242509
  38 C     6.0000    0    12.011   15.656891    8.247861   -4.679661
  39 N     7.0000    0    14.007   14.304962    9.719561    1.470301
  40 N     7.0000    0    14.007   14.506520    8.131662   -6.545444
  41 C     6.0000    0    12.011    8.590071   -1.293858   -5.004240
  42 C     6.0000    0    12.011    9.692670   -0.176784   -2.805639
  43 C     6.0000    0    12.011    7.913682   -0.335237   -0.486831
  44 C     6.0000    0    12.011    9.835023   -1.306028   -7.349334
  45 C     6.0000    0    12.011   12.227001   -0.243926   -7.455291
  46 C     6.0000    0    12.011   13.303407    0.901380   -5.263586
  47 C     6.0000    0    12.011   12.046021    0.958677   -2.932099
  48 C     6.0000    0    12.011   13.988868   -0.004214   -9.782848
  49 C     6.0000    0    12.011   16.114394    1.566073   -8.635160
  50 C     6.0000    0    12.011   15.646214    1.974575   -6.098581
  51 C     6.0000    0    12.011    7.205091    2.381603    0.253526
  52 C     6.0000    0    12.011    9.001654   -1.896076    1.700451
  53 C     6.0000    0    12.011   15.047833   -2.568100  -10.638005
  54 C     6.0000    0    12.011   12.577507    1.465161  -11.853062
  55 C     6.0000    0    12.011   10.879172   -3.717620    1.303231
  56 C     6.0000    0    12.011   11.719760   -5.257502    3.274215
  57 C     6.0000    0    12.011   10.705695   -5.044435    5.713247
  58 C     6.0000    0    12.011    8.805160   -3.231791    6.090606
  59 C     6.0000    0    12.011    7.961530   -1.687318    4.127011
  60 C     6.0000    0    12.011    5.059572    3.557296   -0.748256
  61 C     6.0000    0    12.011    4.509907    6.074033   -0.180658
  62 C     6.0000    0    12.011    6.074260    7.507769    1.401364
  63 C     6.0000    0    12.011    8.251697    6.333171    2.366183
  64 C     6.0000    0    12.011    8.805217    3.818702    1.804934
  65 C     6.0000    0    12.011   11.647686    0.301090  -14.034656
  66 C     6.0000    0    12.011   10.238839    1.686486  -15.794142
  67 C     6.0000    0    12.011    9.711529    4.250240  -15.415819
  68 C     6.0000    0    12.011   10.632544    5.393921  -13.204669
  69 C     6.0000    0    12.011   12.048705    4.036606  -11.454726
  70 C     6.0000    0    12.011   16.975126   -2.629648  -12.464048
  71 C     6.0000    0    12.011   18.105920   -4.897773  -13.177004
  72 C     6.0000    0    12.011   17.353450   -7.207869  -12.099633
  73 C     6.0000    0    12.011   15.399019   -7.142182  -10.323687
  74 C     6.0000    0    12.011   14.273101   -4.866461   -9.591097
  75 C     6.0000    0    12.011   11.636574   -6.661398    7.886281
  76 C     6.0000    0    12.011   12.196992   -9.421078    7.214993
  77 C     6.0000    0    12.011    5.372113   10.190877    2.097464
  78 C     6.0000    0    12.011    7.476796   12.150126    1.789287
  79 C     6.0000    0    12.011   18.641411   -9.664305  -12.789118
  80 C     6.0000    0    12.011   18.426266  -10.388429  -15.583834
  81 C     6.0000    0    12.011    8.290115    5.795809  -17.347043
  82 C     6.0000    0    12.011   10.059825    7.303810  -19.083872
  83 C     6.0000    0    12.011   18.319421    2.938959   -9.193329
  84 C     6.0000    0    12.011   19.029769    4.151709   -6.942551
  85 O     8.0000    0    15.999   17.371440    3.474337   -5.032643
  86 H     1.0000    0     1.008    0.371482   -5.581779   -6.208128
  87 H     1.0000    0     1.008   -8.831937  -10.324368   -3.384802
  88 H     1.0000    0     1.008   -4.692171   -7.113817    4.537081
  89 H     1.0000    0     1.008    2.376368   -2.966435    0.695306
  90 H     1.0000    0     1.008   22.512610    5.950351   -7.816474
  91 H     1.0000    0     1.008   18.980712    9.925220    3.053854
  92 H     1.0000    0     1.008   27.699284   10.667013   -0.660157
  93 H     1.0000    0     1.008    8.943696   -2.118118   -9.021553
  94 H     1.0000    0     1.008   12.888499    1.878615   -1.292573
  95 H     1.0000    0     1.008   11.703357   -3.953099   -0.572077
  96 H     1.0000    0     1.008   13.199000   -6.642425    2.885517
  97 H     1.0000    0     1.008    7.958582   -3.022598    7.964081
  98 H     1.0000    0     1.008    6.475997   -0.301203    4.488799
  99 H     1.0000    0     1.008    3.792510    2.503982   -1.986896
 100 H     1.0000    0     1.008    2.816542    6.941059   -0.985114
 101 H     1.0000    0     1.008    9.551829    7.396785    3.564118
 102 H     1.0000    0     1.008   10.493933    2.953925    2.615910
 103 H     1.0000    0     1.008   12.023534   -1.697295  -14.376129
 104 H     1.0000    0     1.008    9.523086    0.743173  -17.488300
 105 H     1.0000    0     1.008   10.215500    7.384861  -12.838743
 106 H     1.0000    0     1.008   12.733277    5.001746   -9.763440
 107 H     1.0000    0     1.008   17.610604   -0.868802  -13.333586
 108 H     1.0000    0     1.008   19.627905   -4.871109  -14.575193
 109 H     1.0000    0     1.008   14.754736   -8.901460   -9.452429
 110 H     1.0000    0     1.008   12.797225   -4.911039   -8.157475
 111 H     1.0000    0     1.008   10.226914   -6.582521    9.418168
 112 H     1.0000    0     1.008   13.360855   -5.787456    8.680249
 113 H     1.0000    0     1.008   10.530801  -10.344663    6.373763
 114 H     1.0000    0     1.008   12.749869  -10.496163    8.908528
 115 H     1.0000    0     1.008   13.759852   -9.594083    5.852331
 116 H     1.0000    0     1.008    4.716643   10.202669    4.081752
 117 H     1.0000    0     1.008    3.721967   10.759288    0.961663
 118 H     1.0000    0     1.008    9.161014   11.676580    2.911350
 119 H     1.0000    0     1.008    6.809382   14.024281    2.403316
 120 H     1.0000    0     1.008    8.089823   12.297261   -0.193886
 121 H     1.0000    0     1.008   17.852715  -11.187935  -11.610175
 122 H     1.0000    0     1.008   20.659450   -9.529738  -12.269463
 123 H     1.0000    0     1.008   16.439049  -10.651385  -16.143004
 124 H     1.0000    0     1.008   19.448211  -12.159575  -15.969924
 125 H     1.0000    0     1.008   19.236410   -8.921189  -16.816975
 126 H     1.0000    0     1.008    7.012793    7.112684  -16.356487
 127 H     1.0000    0     1.008    7.082826    4.546700  -18.497849
 128 H     1.0000    0     1.008   11.286087    8.571325  -17.976700
 129 H     1.0000    0     1.008    8.979676    8.467315  -20.431511
 130 H     1.0000    0     1.008   11.299485    6.033896  -20.174225
 131 H     1.0000    0     1.008   19.292025    3.169222  -10.989268

--------------------------------
INTERNAL COORDINATES (ANGSTROEM)
--------------------------------
 C      0   0   0     0.000000000000     0.00000000     0.00000000
 C      1   0   0     1.383201899579     0.00000000     0.00000000
 C      2   1   0     1.468123745261   126.29972251     0.00000000
 C      3   2   1     1.486666272201   107.48635385   173.41528599
 C      4   3   2     1.405938822282   108.46501701     3.19861629
 C      5   4   3     1.481624742943   110.10177222   358.31061478
 C      4   3   2     1.402737831991   132.44553756   182.76928488
 C      7   4   3     1.393798616336   117.99813891   180.43893504
 C      8   7   4     1.407016747128   121.92814084     0.88465102
 C      9   8   7     1.388845771315   120.47248936   358.92917619
 F      9   8   7     1.329638111706   118.70769643   179.18664704
 F      8   7   4     1.331195682272   120.11212850   180.60710917
 O      6   5   4     1.219046920180   124.53235019   180.49536795
 C      3   2   1     1.383779783528   128.07747356   351.11860149
 C     14   3   2     1.430769797906   122.94901892   180.70798313
 C     14   3   2     1.430389651389   124.10337512   358.56772774
 N     15  14   3     1.162396464336   178.05834160   174.76360848
 N     16  14   3     1.162548023524   177.48184318   190.59148460
 C      1   2   3     1.410604698064   131.08470636   178.50295247
 O     19   1   2     1.405617830920   113.96266164   176.27071630
 C     20  19   1     1.331163189583   106.23400400   178.37823550
 C     21  20  19     1.385630357852   112.08950657   359.41773059
 C     22  21  20     1.397695541311   106.58934747     0.95951496
 C     21  20  19     9.017420452779   146.74933162   185.62699522
 C     24  21  20     1.375753351768   107.54239732   159.04613390
 C     25  24  21     1.457945751357   133.34417600   349.88378907
 C     26  25  24     1.484549455896   106.95893276   160.73481216
 C     27  26  25     1.411181538322   108.58243218    10.16553410
 C     28  27  26     1.486481144246   109.78915301   356.10705991
 C     27  26  25     1.400697027412   131.85601401   186.86863384
 C     30  27  26     1.393497702115   117.86759534   183.23572117
 C     31  30  27     1.407224937030   121.88443926     1.19528174
 C     32  31  30     1.388890131508   120.62931310   358.99843879
 F     32  31  30     1.328777740030   118.67362222   179.08303617
 F     31  30  27     1.329832612813   120.22775787   181.02143419
 O     29  28  27     1.213650886005   127.00037971   179.05861685
 C     26  25  24     1.385197009346   126.77584191   330.28490858
 C     37  26  25     1.428987842705   123.42149139   177.61314399
 C     37  26  25     1.430613135722   122.01409012   352.68268202
 N     38  37  26     1.162903692014   177.14432526   217.13467923
 N     39  37  26     1.161541265518   177.40254375   259.50820222
 C     21  20  19     1.439959955346   135.53533778   178.14371909
 C     42  21  20     1.429506145597   105.19594064   181.96330555
 C     22  21  20     1.516295857872   110.64656866   179.83717256
 C     42  21  20     1.405014396545   132.84115631     1.82607127
 C     45  42  21     1.386085067700   117.52043970   181.77745804
 C     46  45  42     1.427204413180   120.25091860   357.49039870
 C     43  42  21     1.384334765004   120.48560297   180.38043893
 C     46  45  42     1.549970662368   127.92596267   180.27269233
 C     49  46  45     1.524622674271    99.89392590   174.12131835
 C     50  49  46     1.381983654534   109.87115489     2.91514687
 C     44  22  21     1.536569752859   112.88442203   111.96595231
 C     44  22  21     1.534075814978   108.71021529   239.17731843
 C     49  46  45     1.536092350023   112.41165879   289.83379788
 C     49  46  45     1.537056138630   108.39074992    57.36290395
 C     53  44  22     1.400159825877   121.58045425    87.53369190
 C     56  53  44     1.396326233120   121.04229383   184.85026494
 C     57  56  53     1.402329650724   121.24275796     0.35658697
 C     58  57  56     1.404077148379   117.38205855     0.30613309
 C     59  58  57     1.395344782840   121.56126536   359.62353231
 C     52  44  22     1.398978258051   121.16663776   341.98208747
 C     61  52  44     1.395891373460   120.78860165   183.75220127
 C     62  61  52     1.400630305006   121.48452059     0.00000000
 C     63  62  61     1.405240492229   117.52862080     1.12102408
 C     64  63  62     1.394453881668   121.12598876   358.82255731
 C     55  49  46     1.397967869481   122.45872795   252.62322972
 C     66  55  49     1.400067813250   120.38912201   176.05023105
 C     67  66  55     1.399472752146   121.24240097   359.59622138
 C     68  67  66     1.404609916169   117.88397051   359.74194402
 C     69  68  67     1.391053323385   121.26572483     0.70821492
 C     54  49  46     1.405329751090   119.19510035   189.87534959
 C     71  54  49     1.393193040501   121.18975934   175.79872675
 C     72  71  54     1.406405380038   121.16057416     0.18837419
 C     73  72  71     1.397879064619   117.41244284     1.14194166
 C     54  49  46     1.397938174062   123.00495591     6.55986646
 C     58  57  56     1.515626867669   121.90688251   181.35707688
 C     76  58  57     1.531922816626   115.16146156   320.03143888
 C     63  62  61     1.513172676465   120.57386156   183.11996849
 C     78  63  62     1.530348866435   115.53432530   228.55916046
 C     73  72  71     1.512402349013   121.44520940   182.41778213
 C     80  73  72     1.531973109620   114.48024897   298.37951461
 C     68  67  66     1.509670390648   121.85015555   177.36862927
 C     82  68  67     1.535755171959   112.50767579   263.08195489
 C     50  49  46     1.405910597940   144.12025838   189.61502935
 C     84  50  49     1.404201065090   106.26877375   172.25189959
 O     51  50  49     1.334734848949   112.38701542   183.89050574
 H      1   2   3     1.091445609914   117.44563434   357.96469216
 H      7   4   3     1.087867021791   123.86590845     0.80133854
 H     10   9   8     1.090893679879   121.40892666   180.21671006
 H     23  22  21     1.083894693824   130.09855247   178.40871793
 H     24  21  20     1.096650397210   138.14346941   337.52414423
 H     30  27  26     1.089356900791   123.55011660     3.76114193
 H     33  32  31     1.091125938148   120.91587082   179.61445277
 H     45  42  21     1.090961533007   121.03082459     1.94978135
 H     48  43  42     1.090169348542   121.54938262   177.81069904
 H     56  53  44     1.091120510576   119.92040324     4.65050017
 H     57  56  53     1.091856831915   118.64483742   180.52679937
 H     59  58  57     1.093537146191   119.44159583   179.48994352
 H     60  59  58     1.092082544774   119.54875208   179.83698709
 H     61  52  44     1.090816975345   119.95390505     3.83230603
 H     62  61  52     1.093025340145   119.17747500   180.22339662
 H     64  63  62     1.091781769403   119.97627506   178.29211756
 H     65  64  63     1.091860963585   119.21785671   181.17635532
 H     66  55  49     1.091107681258   119.97833886   355.87512589
 H     67  66  55     1.093786994849   119.37348136   180.12930387
 H     69  68  67     1.093704347299   119.50713664   181.30077809
 H     70  69  68     1.092284093357   118.86196349   179.79948053
 H     71  54  49     1.092274827138   119.55905111   356.22516613
 H     72  71  54     1.093757497894   119.23212052   181.27779812
 H     74  73  72     1.093394863258   119.53905692   179.66491885
 H     75  54  49     1.089060208483   120.34585642     2.73620251
 H     76  58  57     1.102422677016   108.45747752   196.66434421
 H     76  58  57     1.105879525943   108.68249815    82.73202035
 H     77  76  58     1.102019390619   111.19610095   303.83418066
 H     77  76  58     1.101087819113   110.80872342   183.46152641
 H     77  76  58     1.101058950057   112.11911200    64.12665566
 H     78  63  62     1.105863824709   108.26785222   106.03031097
 H     78  63  62     1.101924168943   108.53819315   351.94116975
 H     79  78  63     1.099856683164   112.20074627   302.12166063
 H     79  78  63     1.101772896245   110.18902263   182.00383830
 H     79  78  63     1.101200636623   111.33688386    61.98105602
 H     80  73  72     1.101578167630   108.76647532   175.42114842
 H     80  73  72     1.105034286436   108.66791286    60.68522651
 H     81  80  73     1.101254312409   111.22029105   298.65912524
 H     81  80  73     1.101196604926   110.82409750   178.31118704
 H     81  80  73     1.101116393257   111.51765164    58.71963381
 H     82  68  67     1.103295018071   109.01483424   141.72923064
 H     82  68  67     1.102693301558   109.74080820    25.29823691
 H     83  82  68     1.101927142691   110.92748613   302.23834350
 H     83  82  68     1.101984699395   111.18091540   182.00780365
 H     83  82  68     1.102202749135   111.06400331    61.59786496
 H     84  50  49     1.087633238643   129.36185650   355.56477031

---------------------------
INTERNAL COORDINATES (A.U.)
---------------------------
 C      0   0   0     0.000000000000     0.00000000     0.00000000
 C      1   0   0     2.613872778125     0.00000000     0.00000000
 C      2   1   0     2.774351809251   126.29972251     0.00000000
 C      3   2   1     2.809392106998   107.48635385   173.41528599
 C      4   3   2     2.656839335161   108.46501701     3.19861629
 C      5   4   3     2.799864997403   110.10177222   358.31061478
 C      4   3   2     2.650790340154   132.44553756   182.76928488
 C      7   4   3     2.633897670713   117.99813891   180.43893504
 C      8   7   4     2.658876317914   121.92814084     0.88465102
 C      9   8   7     2.624538150040   120.47248936   358.92917619
 F      9   8   7     2.512651888348   118.70769643   179.18664704
 F      8   7   4     2.515595270153   120.11212850   180.60710917
 O      6   5   4     2.303664823540   124.53235019   180.49536795
 C      3   2   1     2.614964820524   128.07747356   351.11860149
 C     14   3   2     2.703763078728   122.94901892   180.70798313
 C     14   3   2     2.703044705920   124.10337512   358.56772774
 N     15  14   3     2.196610976633   178.05834160   174.76360848
 N     16  14   3     2.196897381992   177.48184318   190.59148460
 C      1   2   3     2.665656562563   131.08470636   178.50295247
 O     19   1   2     2.656232749395   113.96266164   176.27071630
 C     20  19   1     2.515533867868   106.23400400   178.37823550
 C     21  20  19     2.618461899187   112.08950657   359.41773059
 C     22  21  20     2.641261791680   106.58934747     0.95951496
 C     21  20  19    17.040455090173   146.74933162   185.62699522
 C     24  21  20     2.599797062665   107.54239732   159.04613390
 C     25  24  21     2.755118188179   133.34417600   349.88378907
 C     26  25  24     2.805391903905   106.95893276   160.73481216
 C     27  26  25     2.666746632674   108.58243218    10.16553410
 C     28  27  26     2.809042265864   109.78915301   356.10705991
 C     27  26  25     2.646933778406   131.85601401   186.86863384
 C     30  27  26     2.633329025246   117.86759534   183.23572117
 C     31  30  27     2.659269739812   121.88443926     1.19528174
 C     32  31  30     2.624621978656   120.62931310   358.99843879
 F     32  31  30     2.511026021508   118.67362222   179.08303617
 F     31  30  27     2.513019442173   120.22775787   181.02143419
 O     29  28  27     2.293467796740   127.00037971   179.05861685
 C     26  25  24     2.617642989190   126.77584191   330.28490858
 C     37  26  25     2.700395671416   123.42149139   177.61314399
 C     37  26  25     2.703467030105   122.01409012   352.68268202
 N     38  37  26     2.197569498033   177.14432526   217.13467923
 N     39  37  26     2.194994885076   177.40254375   259.50820222
 C     21  20  19     2.721129959417   135.53533778   178.14371909
 C     42  21  20     2.701375121936   105.19594064   181.96330555
 C     22  21  20     2.865383909377   110.64656866   179.83717256
 C     42  21  20     2.655092423688   132.84115631     1.82607127
 C     45  42  21     2.619321176270   117.52043970   181.77745804
 C     46  45  42     2.697025478034   120.25091860   357.49039870
 C     43  42  21     2.616013583525   120.48560297   180.38043893
 C     46  45  42     2.929020067487   127.92596267   180.27269233
 C     49  46  45     2.881119311938    99.89392590   174.12131835
 C     50  49  46     2.611570628625   109.87115489     2.91514687
 C     44  22  21     2.903696018570   112.88442203   111.96595231
 C     44  22  21     2.898983158980   108.71021529   239.17731843
 C     49  46  45     2.902793857955   112.41165879   289.83379788
 C     49  46  45     2.904615154473   108.39074992    57.36290395
 C     53  44  22     2.645918614626   121.58045425    87.53369190
 C     56  53  44     2.638674174207   121.04229383   184.85026494
 C     57  56  53     2.650018989346   121.24275796     0.35658697
 C     58  57  56     2.653321281333   117.38205855     0.30613309
 C     59  58  57     2.636819501964   121.56126536   359.62353231
 C     52  44  22     2.643685775027   121.16663776   341.98208747
 C     61  52  44     2.637852408543   120.78860165   183.75220127
 C     62  61  52     2.646807691331   121.48452059     0.00000000
 C     63  62  61     2.655519682610   117.52862080     1.12102408
 C     64  63  62     2.635135942737   121.12598876   358.82255731
 C     55  49  46     2.641776417340   122.45872795   252.62322972
 C     66  55  49     2.645744735961   120.38912201   176.05023105
 C     67  66  55     2.644620233442   121.24240097   359.59622138
 C     68  67  66     2.654328066549   117.88397051   359.74194402
 C     69  68  67     2.628709818878   121.26572483     0.70821492
 C     54  49  46     2.655688357413   119.19510035   189.87534959
 C     71  54  49     2.632753298232   121.18975934   175.79872675
 C     72  71  54     2.657721001545   121.16057416     0.18837419
 C     73  72  71     2.641608600472   117.41244284     1.14194166
 C     54  49  46     2.641720301131   123.00495591     6.55986646
 C     58  57  56     2.864119701107   121.90688251   181.35707688
 C     76  58  57     2.894914581729   115.16146156   320.03143888
 C     63  62  61     2.859481951851   120.57386156   183.11996849
 C     78  63  62     2.891940246920   115.53432530   228.55916046
 C     73  72  71     2.858026243934   121.44520940   182.41778213
 C     80  73  72     2.895009621714   114.48024897   298.37951461
 C     68  67  66     2.852863590815   121.85015555   177.36862927
 C     82  68  67     2.902156683756   112.50767579   263.08195489
 C     50  49  46     2.656785998884   144.12025838   189.61502935
 C     84  50  49     2.653555449981   106.26877375   172.25189959
 O     51  50  49     2.522283325915   112.38701542   183.89050574
 H      1   2   3     2.062533292808   117.44563434   357.96469216
 H      7   4   3     2.055770741309   123.86590845     0.80133854
 H     10   9   8     2.061490296197   121.40892666   180.21671006
 H     23  22  21     2.048264129338   130.09855247   178.40871793
 H     24  21  20     2.072368915382   138.14346941   337.52414423
 H     30  27  26     2.058586204591   123.55011660     3.76114193
 H     33  32  31     2.061929200718   120.91587082   179.61445277
 H     45  42  21     2.061618520025   121.03082459     1.94978135
 H     48  43  42     2.060121508339   121.54938262   177.81069904
 H     56  53  44     2.061918944093   119.92040324     4.65050017
 H     57  56  53     2.063310389771   118.64483742   180.52679937
 H     59  58  57     2.066485723571   119.44159583   179.48994352
 H     60  59  58     2.063736925259   119.54875208   179.83698709
 H     61  52  44     2.061345345634   119.95390505     3.83230603
 H     62  61  52     2.065518550311   119.17747500   180.22339662
 H     64  63  62     2.063168542179   119.97627506   178.29211756
 H     65  64  63     2.063318197494   119.21785671   181.17635532
 H     66  55  49     2.061894700195   119.97833886   355.87512589
 H     67  66  55     2.066957869109   119.37348136   180.12930387
 H     69  68  67     2.066801687874   119.50713664   181.30077809
 H     70  69  68     2.064117796883   118.86196349   179.79948053
 H     71  54  49     2.064100286268   119.55905111   356.22516613
 H     72  71  54     2.066902127943   119.23212052   181.27779812
 H     74  73  72     2.066216847795   119.53905692   179.66491885
 H     75  54  49     2.058025537383   120.34585642     2.73620251
 H     76  58  57     2.083276943385   108.45747752   196.66434421
 H     76  58  57     2.089809441143   108.68249815    82.73202035
 H     77  76  58     2.082514842540   111.19610095   303.83418066
 H     77  76  58     2.080754427521   110.80872342   183.46152641
 H     77  76  58     2.080699872910   112.11911200    64.12665566
 H     78  63  62     2.089779770111   108.26785222   106.03031097
 H     78  63  62     2.082334899650   108.53819315   351.94116975
 H     79  78  63     2.078427917743   112.20074627   302.12166063
 H     79  78  63     2.082049035680   110.18902263   182.00383830
 H     79  78  63     2.080967621718   111.33688386    61.98105602
 H     80  73  72     2.081681051928   108.76647532   175.42114842
 H     80  73  72     2.088212169958   108.66791286    60.68522651
 H     81  80  73     2.081069054253   111.22029105   298.65912524
 H     81  80  73     2.080960002914   110.82409750   178.31118704
 H     81  80  73     2.080808424827   111.51765164    58.71963381
 H     82  68  67     2.084925429074   109.01483424   141.72923064
 H     82  68  67     2.083788349653   109.74080820    25.29823691
 H     83  82  68     2.082340519221   110.92748613   302.23834350
 H     83  82  68     2.082449285627   111.18091540   182.00780365
 H     83  82  68     2.082861339920   111.06400331    61.59786496
 H     84  50  49     2.055328955184   129.36185650   355.56477031

---------------------
BASIS SET INFORMATION
---------------------
There are 5 groups of distinct atoms

 Group   1 Type C   : 11s6p2d1f contracted to 5s3p2d1f pattern {62111/411/11/1}
 Group   2 Type F   : 11s6p2d1f contracted to 5s3p2d1f pattern {62111/411/11/1}
 Group   3 Type O   : 11s6p2d1f contracted to 5s3p2d1f pattern {62111/411/11/1}
 Group   4 Type N   : 11s6p2d1f contracted to 5s3p2d1f pattern {62111/411/11/1}
 Group   5 Type H   : 5s1p contracted to 3s1p pattern {311/1}

Atom   0C    basis set group =>   1
Atom   1C    basis set group =>   1
Atom   2C    basis set group =>   1
Atom   3C    basis set group =>   1
Atom   4C    basis set group =>   1
Atom   5C    basis set group =>   1
Atom   6C    basis set group =>   1
Atom   7C    basis set group =>   1
Atom   8C    basis set group =>   1
Atom   9C    basis set group =>   1
Atom  10F    basis set group =>   2
Atom  11F    basis set group =>   2
Atom  12O    basis set group =>   3
Atom  13C    basis set group =>   1
Atom  14C    basis set group =>   1
Atom  15C    basis set group =>   1
Atom  16N    basis set group =>   4
Atom  17N    basis set group =>   4
Atom  18C    basis set group =>   1
Atom  19O    basis set group =>   3
Atom  20C    basis set group =>   1
Atom  21C    basis set group =>   1
Atom  22C    basis set group =>   1
Atom  23C    basis set group =>   1
Atom  24C    basis set group =>   1
Atom  25C    basis set group =>   1
Atom  26C    basis set group =>   1
Atom  27C    basis set group =>   1
Atom  28C    basis set group =>   1
Atom  29C    basis set group =>   1
Atom  30C    basis set group =>   1
Atom  31C    basis set group =>   1
Atom  32C    basis set group =>   1
Atom  33F    basis set group =>   2
Atom  34F    basis set group =>   2
Atom  35O    basis set group =>   3
Atom  36C    basis set group =>   1
Atom  37C    basis set group =>   1
Atom  38C    basis set group =>   1
Atom  39N    basis set group =>   4
Atom  40N    basis set group =>   4
Atom  41C    basis set group =>   1
Atom  42C    basis set group =>   1
Atom  43C    basis set group =>   1
Atom  44C    basis set group =>   1
Atom  45C    basis set group =>   1
Atom  46C    basis set group =>   1
Atom  47C    basis set group =>   1
Atom  48C    basis set group =>   1
Atom  49C    basis set group =>   1
Atom  50C    basis set group =>   1
Atom  51C    basis set group =>   1
Atom  52C    basis set group =>   1
Atom  53C    basis set group =>   1
Atom  54C    basis set group =>   1
Atom  55C    basis set group =>   1
Atom  56C    basis set group =>   1
Atom  57C    basis set group =>   1
Atom  58C    basis set group =>   1
Atom  59C    basis set group =>   1
Atom  60C    basis set group =>   1
Atom  61C    basis set group =>   1
Atom  62C    basis set group =>   1
Atom  63C    basis set group =>   1
Atom  64C    basis set group =>   1
Atom  65C    basis set group =>   1
Atom  66C    basis set group =>   1
Atom  67C    basis set group =>   1
Atom  68C    basis set group =>   1
Atom  69C    basis set group =>   1
Atom  70C    basis set group =>   1
Atom  71C    basis set group =>   1
Atom  72C    basis set group =>   1
Atom  73C    basis set group =>   1
Atom  74C    basis set group =>   1
Atom  75C    basis set group =>   1
Atom  76C    basis set group =>   1
Atom  77C    basis set group =>   1
Atom  78C    basis set group =>   1
Atom  79C    basis set group =>   1
Atom  80C    basis set group =>   1
Atom  81C    basis set group =>   1
Atom  82C    basis set group =>   1
Atom  83C    basis set group =>   1
Atom  84C    basis set group =>   1
Atom  85O    basis set group =>   3
Atom  86H    basis set group =>   5
Atom  87H    basis set group =>   5
Atom  88H    basis set group =>   5
Atom  89H    basis set group =>   5
Atom  90H    basis set group =>   5
Atom  91H    basis set group =>   5
Atom  92H    basis set group =>   5
Atom  93H    basis set group =>   5
Atom  94H    basis set group =>   5
Atom  95H    basis set group =>   5
Atom  96H    basis set group =>   5
Atom  97H    basis set group =>   5
Atom  98H    basis set group =>   5
Atom  99H    basis set group =>   5
Atom 100H    basis set group =>   5
Atom 101H    basis set group =>   5
Atom 102H    basis set group =>   5
Atom 103H    basis set group =>   5
Atom 104H    basis set group =>   5
Atom 105H    basis set group =>   5
Atom 106H    basis set group =>   5
Atom 107H    basis set group =>   5
Atom 108H    basis set group =>   5
Atom 109H    basis set group =>   5
Atom 110H    basis set group =>   5
Atom 111H    basis set group =>   5
Atom 112H    basis set group =>   5
Atom 113H    basis set group =>   5
Atom 114H    basis set group =>   5
Atom 115H    basis set group =>   5
Atom 116H    basis set group =>   5
Atom 117H    basis set group =>   5
Atom 118H    basis set group =>   5
Atom 119H    basis set group =>   5
Atom 120H    basis set group =>   5
Atom 121H    basis set group =>   5
Atom 122H    basis set group =>   5
Atom 123H    basis set group =>   5
Atom 124H    basis set group =>   5
Atom 125H    basis set group =>   5
Atom 126H    basis set group =>   5
Atom 127H    basis set group =>   5
Atom 128H    basis set group =>   5
Atom 129H    basis set group =>   5
Atom 130H    basis set group =>   5
Atom 131H    basis set group =>   5
---------------------------------
AUXILIARY/J BASIS SET INFORMATION
---------------------------------
There are 5 groups of distinct atoms

 Group   1 Type C   : 12s5p4d2f1g contracted to 6s4p3d1f1g pattern {711111/2111/211/2/1}
 Group   2 Type F   : 12s5p4d2f1g contracted to 6s4p3d1f1g pattern {711111/2111/211/2/1}
 Group   3 Type O   : 12s5p4d2f1g contracted to 6s4p3d1f1g pattern {711111/2111/211/2/1}
 Group   4 Type N   : 12s5p4d2f1g contracted to 6s4p3d1f1g pattern {711111/2111/211/2/1}
 Group   5 Type H   : 5s2p1d contracted to 3s1p1d pattern {311/2/1}

Atom   0C    basis set group =>   1
Atom   1C    basis set group =>   1
Atom   2C    basis set group =>   1
Atom   3C    basis set group =>   1
Atom   4C    basis set group =>   1
Atom   5C    basis set group =>   1
Atom   6C    basis set group =>   1
Atom   7C    basis set group =>   1
Atom   8C    basis set group =>   1
Atom   9C    basis set group =>   1
Atom  10F    basis set group =>   2
Atom  11F    basis set group =>   2
Atom  12O    basis set group =>   3
Atom  13C    basis set group =>   1
Atom  14C    basis set group =>   1
Atom  15C    basis set group =>   1
Atom  16N    basis set group =>   4
Atom  17N    basis set group =>   4
Atom  18C    basis set group =>   1
Atom  19O    basis set group =>   3
Atom  20C    basis set group =>   1
Atom  21C    basis set group =>   1
Atom  22C    basis set group =>   1
Atom  23C    basis set group =>   1
Atom  24C    basis set group =>   1
Atom  25C    basis set group =>   1
Atom  26C    basis set group =>   1
Atom  27C    basis set group =>   1
Atom  28C    basis set group =>   1
Atom  29C    basis set group =>   1
Atom  30C    basis set group =>   1
Atom  31C    basis set group =>   1
Atom  32C    basis set group =>   1
Atom  33F    basis set group =>   2
Atom  34F    basis set group =>   2
Atom  35O    basis set group =>   3
Atom  36C    basis set group =>   1
Atom  37C    basis set group =>   1
Atom  38C    basis set group =>   1
Atom  39N    basis set group =>   4
Atom  40N    basis set group =>   4
Atom  41C    basis set group =>   1
Atom  42C    basis set group =>   1
Atom  43C    basis set group =>   1
Atom  44C    basis set group =>   1
Atom  45C    basis set group =>   1
Atom  46C    basis set group =>   1
Atom  47C    basis set group =>   1
Atom  48C    basis set group =>   1
Atom  49C    basis set group =>   1
Atom  50C    basis set group =>   1
Atom  51C    basis set group =>   1
Atom  52C    basis set group =>   1
Atom  53C    basis set group =>   1
Atom  54C    basis set group =>   1
Atom  55C    basis set group =>   1
Atom  56C    basis set group =>   1
Atom  57C    basis set group =>   1
Atom  58C    basis set group =>   1
Atom  59C    basis set group =>   1
Atom  60C    basis set group =>   1
Atom  61C    basis set group =>   1
Atom  62C    basis set group =>   1
Atom  63C    basis set group =>   1
Atom  64C    basis set group =>   1
Atom  65C    basis set group =>   1
Atom  66C    basis set group =>   1
Atom  67C    basis set group =>   1
Atom  68C    basis set group =>   1
Atom  69C    basis set group =>   1
Atom  70C    basis set group =>   1
Atom  71C    basis set group =>   1
Atom  72C    basis set group =>   1
Atom  73C    basis set group =>   1
Atom  74C    basis set group =>   1
Atom  75C    basis set group =>   1
Atom  76C    basis set group =>   1
Atom  77C    basis set group =>   1
Atom  78C    basis set group =>   1
Atom  79C    basis set group =>   1
Atom  80C    basis set group =>   1
Atom  81C    basis set group =>   1
Atom  82C    basis set group =>   1
Atom  83C    basis set group =>   1
Atom  84C    basis set group =>   1
Atom  85O    basis set group =>   3
Atom  86H    basis set group =>   5
Atom  87H    basis set group =>   5
Atom  88H    basis set group =>   5
Atom  89H    basis set group =>   5
Atom  90H    basis set group =>   5
Atom  91H    basis set group =>   5
Atom  92H    basis set group =>   5
Atom  93H    basis set group =>   5
Atom  94H    basis set group =>   5
Atom  95H    basis set group =>   5
Atom  96H    basis set group =>   5
Atom  97H    basis set group =>   5
Atom  98H    basis set group =>   5
Atom  99H    basis set group =>   5
Atom 100H    basis set group =>   5
Atom 101H    basis set group =>   5
Atom 102H    basis set group =>   5
Atom 103H    basis set group =>   5
Atom 104H    basis set group =>   5
Atom 105H    basis set group =>   5
Atom 106H    basis set group =>   5
Atom 107H    basis set group =>   5
Atom 108H    basis set group =>   5
Atom 109H    basis set group =>   5
Atom 110H    basis set group =>   5
Atom 111H    basis set group =>   5
Atom 112H    basis set group =>   5
Atom 113H    basis set group =>   5
Atom 114H    basis set group =>   5
Atom 115H    basis set group =>   5
Atom 116H    basis set group =>   5
Atom 117H    basis set group =>   5
Atom 118H    basis set group =>   5
Atom 119H    basis set group =>   5
Atom 120H    basis set group =>   5
Atom 121H    basis set group =>   5
Atom 122H    basis set group =>   5
Atom 123H    basis set group =>   5
Atom 124H    basis set group =>   5
Atom 125H    basis set group =>   5
Atom 126H    basis set group =>   5
Atom 127H    basis set group =>   5
Atom 128H    basis set group =>   5
Atom 129H    basis set group =>   5
Atom 130H    basis set group =>   5
Atom 131H    basis set group =>   5


           ************************************************************
           *        Program running with 6 parallel MPI-processes     *
           *              working on a common directory               *
           ************************************************************
------------------------------------------------------------------------------
                           ORCA GTO INTEGRAL CALCULATION
                           -- RI-GTO INTEGRALS CHOSEN --
------------------------------------------------------------------------------

                         BASIS SET STATISTICS AND STARTUP INFO

Gaussian basis set:
 # of primitive gaussian shells          ... 1996
 # of primitive gaussian functions       ... 4324
 # of contracted shells                  ... 1130
 # of contracted basis functions         ... 2942
 Highest angular momentum                ...    3
 Maximum contraction depth               ...    6
Auxiliary gaussian basis set:
 # of primitive gaussian shells          ... 2432
 # of primitive gaussian functions       ... 6756
 # of contracted shells                  ... 1520
 # of contracted aux-basis functions     ... 4720
 Highest angular momentum                ...    4
 Maximum contraction depth               ...    7
Ratio of auxiliary to basis functions    ...  1.60
Integral package used                  ... LIBINT
 One Electron integrals                  ... done
 Ordering auxiliary basis shells         ... done
 Integral threshhold             Thresh  ...  2.500e-11
 Primitive cut-off               TCut    ...  2.500e-12
 Pre-screening matrix                    ... done
 Shell pair data                         ... 
 Ordering of the shell pairs             ... done (   0.048 sec) 213429 of 639015 pairs
 Determination of significant pairs      ... done (   0.001 sec)
 Creation of shell pair data             ... done (   0.021 sec)
 Storage of shell pair data              ... done (   0.036 sec)
 Shell pair data done in (   0.107 sec)
 Computing two index integrals           ... done
 Cholesky decomposition of the V-matrix  ... done


Timings:
 Total evaluation time                   ...  10.030 sec (  0.167 min)
 One electron matrix time                ...   3.876 sec (  0.065 min) = 38.6%
 Schwartz matrix evaluation time         ...   4.645 sec (  0.077 min) = 46.3%
 Two index repulsion integral time       ...   0.545 sec (  0.009 min) =  5.4%
 Cholesky decomposition of V             ...   0.840 sec (  0.014 min) =  8.4%
 Three index repulsion integral time     ...   0.000 sec (  0.000 min) =  0.0%



           ************************************************************
           *        Program running with 6 parallel MPI-processes     *
           *              working on a common directory               *
           ************************************************************
-------------------------------------------------------------------------------
                                 ORCA SCF
-------------------------------------------------------------------------------

------------
SCF SETTINGS
------------
Hamiltonian:
 Density Functional     Method          .... DFT(GTOs)
 Exchange Functional    Exchange        .... B88
   X-Alpha parameter    XAlpha          ....  0.666667
   Becke's b parameter  XBeta           ....  0.004200
 Correlation Functional Correlation     .... LYP
 LDA part of GGA corr.  LDAOpt          .... VWN-5
 Gradients option       PostSCFGGA      .... off
 Hybrid DFT is turned on
   Fraction HF Exchange ScalHFX         ....  0.200000
   Scaling of DF-GGA-X  ScalDFX         ....  0.720000
   Scaling of DF-GGA-C  ScalDFC         ....  0.810000
   Scaling of DF-LDA-C  ScalLDAC        ....  1.000000
   Perturbative correction              ....  0.000000
   Density functional embedding theory  .... OFF
   NL short-range parameter             ....  4.800000
 RI-approximation to the Coulomb term is turned on
   Number of auxiliary basis functions  .... 4720
   RIJ-COSX (HFX calculated with COS-X)).... on


General Settings:
 Integral files         IntName         .... IDF-4F
 Hartree-Fock type      HFTyp           .... RHF
 Total Charge           Charge          ....    0
 Multiplicity           Mult            ....    1
 Number of Electrons    NEL             ....  586
 Basis Dimension        Dim             .... 2942
 Nuclear Repulsion      ENuc            ....  13531.0884356237 Eh

Convergence Acceleration:
 DIIS                   CNVDIIS         .... on
   Start iteration      DIISMaxIt       ....    12
   Startup error        DIISStart       ....  0.200000
   # of expansion vecs  DIISMaxEq       ....     5
   Bias factor          DIISBfac        ....   1.050
   Max. coefficient     DIISMaxC        ....  10.000
 Newton-Raphson         CNVNR           .... off
 SOSCF                  CNVSOSCF        .... on
   Start iteration      SOSCFMaxIt      ....   150
   Startup grad/error   SOSCFStart      ....  0.003300
 Level Shifting         CNVShift        .... on
   Level shift para.    LevelShift      ....    0.2500
   Turn off err/grad.   ShiftErr        ....    0.0010
 Zerner damping         CNVZerner       .... off
 Static damping         CNVDamp         .... on
   Fraction old density DampFac         ....    0.7000
   Max. Damping (<1)    DampMax         ....    0.9800
   Min. Damping (>=0)   DampMin         ....    0.0000
   Turn off err/grad.   DampErr         ....    0.1000
 Fernandez-Rico         CNVRico         .... off

SCF Procedure:
 Maximum # iterations   MaxIter         ....   125
 SCF integral mode      SCFMode         .... Direct
   Integral package                     .... LIBINT
 Reset frequency        DirectResetFreq ....    20
 Integral Threshold     Thresh          ....  2.500e-11 Eh
 Primitive CutOff       TCut            ....  2.500e-12 Eh

Convergence Tolerance:
 Convergence Check Mode ConvCheckMode   .... Total+1el-Energy
 Convergence forced     ConvForced      .... 1
 Energy Change          TolE            ....  1.000e-08 Eh
 1-El. energy change                    ....  1.000e-05 Eh
 Orbital Gradient       TolG            ....  1.000e-05
 Orbital Rotation angle TolX            ....  1.000e-05
 DIIS Error             TolErr          ....  5.000e-07


Diagonalization of the overlap matrix:
Smallest eigenvalue                        ... 2.091e-06
Time for diagonalization                   ...    1.625 sec
Threshold for overlap eigenvalues          ... 1.000e-08
Number of eigenvalues below threshold      ... 0
Time for construction of square roots      ...    1.155 sec
Total time needed                          ...    2.799 sec

-------------------
DFT GRID GENERATION
-------------------

General Integration Accuracy     IntAcc      ...  4.670
Radial Grid Type                 RadialGrid  ... Gauss-Chebyshev
Angular Grid (max. acc.)         AngularGrid ... Lebedev-302
Angular grid pruning method      GridPruning ... 3 (G Style)
Weight generation scheme         WeightScheme... Becke
Basis function cutoff            BFCut       ...    1.0000e-11
Integration weight cutoff        WCut        ...    1.0000e-14
Grids for H and He will be reduced by one unit

# of grid points (after initial pruning)     ... 690596 (   0.0 sec)
# of grid points (after weights+screening)   ... 579577 (   9.4 sec)
nearest neighbour list constructed           ...    0.0 sec
Grid point re-assignment to atoms done       ...    0.1 sec
Grid point division into batches done        ...    1.9 sec
Reduced shell lists constructed in    4.7 sec

Total number of grid points                  ...   579577
Total number of batches                      ...     9126
Average number of points per batch           ...       63
Average number of grid points per atom       ...     4391
Average number of shells per batch           ...   144.85 (12.82%)
Average number of basis functions per batch  ...   372.18 (12.65%)
Average number of large shells per batch     ...    87.62 (60.49%)
Average number of large basis fcns per batch ...   232.38 (62.44%)
Maximum spatial batch extension              ...  20.26, 20.73, 19.62 au
Average spatial batch extension              ...   0.37,  0.40,  0.35 au

Time for grid setup =   15.484 sec

------------------------------
INITIAL GUESS: MODEL POTENTIAL
------------------------------
Loading Hartree-Fock densities                     ... done
Calculating cut-offs                               ... done
Setting up the integral package                    ... done
Initializing the effective Hamiltonian             ... done
Starting the Coulomb interaction                   ... done (   7.8 sec)
Reading the grid                                   ... done
Mapping shells                                     ... done
Starting the XC term evaluation                    ... done (   6.1 sec)
  promolecular density results
     # of electrons  =    585.978157294
     EX              =   -493.337816925
     EC              =    -20.151104429
     EX+EC           =   -513.488921354
Transforming the Hamiltonian                       ... done (   0.9 sec)
Diagonalizing the Hamiltonian                      ... done (   1.7 sec)
Back transforming the eigenvectors                 ... done (   0.4 sec)
Now organizing SCF variables                       ... done
                      ------------------
                      INITIAL GUESS DONE (  32.9 sec)
                      ------------------
--------------------
COSX GRID GENERATION
--------------------

General Integration Accuracy     IntAcc      ...  3.340
Radial Grid Type                 RadialGrid  ... Gauss-Chebyshev
Angular Grid (max. acc.)         AngularGrid ... Lebedev-50
Angular grid pruning method      GridPruning ... 3 (G Style)
Weight generation scheme         WeightScheme... Becke
Basis function cutoff            BFCut       ...    1.0000e-11
Integration weight cutoff        WCut        ...    1.0000e-14
Grids for H and He will be reduced by one unit

# of grid points (after initial pruning)     ...  64544 (   0.0 sec)
# of grid points (after weights+screening)   ...  56816 (   0.9 sec)
nearest neighbour list constructed           ...    0.0 sec
Grid point re-assignment to atoms done       ...    0.0 sec
Grid point division into batches done        ...    0.0 sec
Reduced shell lists constructed in    0.5 sec

Total number of grid points                  ...    56816
Total number of batches                      ...      958
Average number of points per batch           ...       59
Average number of grid points per atom       ...      430
Average number of shells per batch           ...   179.94 (15.92%)
Average number of basis functions per batch  ...   464.10 (15.77%)
Average number of large shells per batch     ...   107.84 (59.93%)
Average number of large basis fcns per batch ...   290.09 (62.51%)
Maximum spatial batch extension              ...  14.70, 24.34, 18.61 au
Average spatial batch extension              ...   0.76,  0.94,  0.66 au

Overlap Fitting                  UseSFitting ... on
Constructing numerical overlap ... done (      0.5 sec)
Inverting numerical overlap    ... done (      0.4 sec)
Obtaining analytic overlap     ... done (      0.0 sec)
Final contraction and storage  ... done (      0.8 sec)


General Integration Accuracy     IntAcc      ...  3.670
Radial Grid Type                 RadialGrid  ... Gauss-Chebyshev
Angular Grid (max. acc.)         AngularGrid ... Lebedev-50
Angular grid pruning method      GridPruning ... 3 (G Style)
Weight generation scheme         WeightScheme... Becke
Basis function cutoff            BFCut       ...    1.0000e-11
Integration weight cutoff        WCut        ...    1.0000e-14
Grids for H and He will be reduced by one unit

# of grid points (after initial pruning)     ...  80868 (   0.0 sec)
# of grid points (after weights+screening)   ...  70851 (   1.1 sec)
nearest neighbour list constructed           ...    0.0 sec
Grid point re-assignment to atoms done       ...    0.0 sec
Grid point division into batches done        ...    0.0 sec
Reduced shell lists constructed in    0.6 sec

Total number of grid points                  ...    70851
Total number of batches                      ...     1169
Average number of points per batch           ...       60
Average number of grid points per atom       ...      537
Average number of shells per batch           ...   178.13 (15.76%)
Average number of basis functions per batch  ...   459.19 (15.61%)
Average number of large shells per batch     ...   106.07 (59.55%)
Average number of large basis fcns per batch ...   284.88 (62.04%)
Maximum spatial batch extension              ...  16.28, 27.24, 20.00 au
Average spatial batch extension              ...   0.72,  0.90,  0.61 au

Overlap Fitting                  UseSFitting ... on
Constructing numerical overlap ... done (      0.7 sec)
Inverting numerical overlap    ... done (      0.4 sec)
Obtaining analytic overlap     ... done (      0.0 sec)
Final contraction and storage  ... done (      0.8 sec)


General Integration Accuracy     IntAcc      ...  4.010
Radial Grid Type                 RadialGrid  ... Gauss-Chebyshev
Angular Grid (max. acc.)         AngularGrid ... Lebedev-110
Angular grid pruning method      GridPruning ... 3 (G Style)
Weight generation scheme         WeightScheme... Becke
Basis function cutoff            BFCut       ...    1.0000e-11
Integration weight cutoff        WCut        ...    1.0000e-14
Grids for H and He will be reduced by one unit

# of grid points (after initial pruning)     ... 156704 (   0.0 sec)
# of grid points (after weights+screening)   ... 135893 (   2.2 sec)
nearest neighbour list constructed           ...    0.0 sec
Grid point re-assignment to atoms done       ...    0.0 sec
Grid point division into batches done        ...    0.1 sec
Reduced shell lists constructed in    1.1 sec

Total number of grid points                  ...   135893
Total number of batches                      ...     2190
Average number of points per batch           ...       62
Average number of grid points per atom       ...     1029
Average number of shells per batch           ...   161.13 (14.26%)
Average number of basis functions per batch  ...   417.31 (14.18%)
Average number of large shells per batch     ...    98.12 (60.89%)
Average number of large basis fcns per batch ...   263.37 (63.11%)
Maximum spatial batch extension              ...  18.69, 25.30, 19.06 au
Average spatial batch extension              ...   0.61,  0.71,  0.52 au

Overlap Fitting                  UseSFitting ... on
Constructing numerical overlap ... done (      1.1 sec)
Inverting numerical overlap    ... done (      0.4 sec)
Obtaining analytic overlap     ... done (      0.0 sec)
Final contraction and storage  ... done (      0.8 sec)

Time for X-Grid setup             =   13.278 sec
--------------
SCF ITERATIONS
--------------
ITER       Energy         Delta-E        Max-DP      RMS-DP      [F,P]     Damp
               ***  Starting incremental Fock matrix formation  ***
  0  -3763.9776073452   0.000000000000 0.44036583  0.00078459  0.2903534 0.7000
  1  -3764.8840880885  -0.906480743299 0.26943515  0.00061753  0.1034929 0.7000
                               ***Turning on DIIS***
  2  -3765.2271398002  -0.343051711727 0.22735949  0.00088067  0.0463133 0.0000
  3  -3765.8046926350  -0.577552834777 0.32414913  0.00057923  0.0556179 0.0000
  4  -3765.9120199992  -0.107327364216 0.05766563  0.00015467  0.0360418 0.0000
  5  -3765.9246506738  -0.012630674610 0.01715308  0.00006824  0.0107916 0.0000
                      *** Initiating the SOSCF procedure ***
                           *** Shutting down DIIS ***
                      *** Re-Reading the Fockian *** 
                      *** Removing any level shift *** 
ITER      Energy       Delta-E        Grad      Rot      Max-DP    RMS-DP
  6  -3765.92568379  -0.0010331209  0.000417  0.000417  0.015003  0.000027
               *** Restarting incremental Fock matrix formation ***
  7  -3765.92575969  -0.0000758907  0.000447  0.004897  0.023742  0.000069
  8  -3765.92575213   0.0000075564  0.000414  0.001615  0.009470  0.000027
  9  -3765.92577959  -0.0000274615  0.000151  0.000907  0.008608  0.000028
 10  -3765.92577566   0.0000039329  0.000162  0.000498  0.002098  0.000004
 11  -3765.92578292  -0.0000072671  0.000047  0.000411  0.002502  0.000010
 12  -3765.92578213   0.0000007965  0.000069  0.000146  0.000801  0.000002
 13  -3765.92578340  -0.0000012684  0.000017  0.000242  0.001557  0.000003
 14  -3765.92578323   0.0000001617  0.000028  0.000121  0.000690  0.000001
 15  -3765.92578354  -0.0000003100  0.000003  0.000042  0.000927  0.000002
 16  -3765.92578364  -0.0000000939  0.000006  0.000020  0.001556  0.000001
 17  -3765.92578347   0.0000001690  0.000003  0.000015  0.003520  0.000002
 18  -3765.92578358  -0.0000001125  0.000007  0.000008  0.000792  0.000001
                  ***Gradient check signals convergence***
              ***Rediagonalizing the Fockian in SOSCF/NRSCF***

               *****************************************************
               *                     SUCCESS                       *
               *           SCF CONVERGED AFTER  19 CYCLES          *
               *****************************************************

Setting up the final grid:

General Integration Accuracy     IntAcc      ...  5.010
Radial Grid Type                 RadialGrid  ... Gauss-Chebyshev
Angular Grid (max. acc.)         AngularGrid ... Lebedev-434
Angular grid pruning method      GridPruning ... 3 (G Style)
Weight generation scheme         WeightScheme... Becke
Basis function cutoff            BFCut       ...    1.0000e-11
Integration weight cutoff        WCut        ...    1.0000e-14
Grids for H and He will be reduced by one unit

# of grid points (after initial pruning)     ... 1228484 (   0.1 sec)
# of grid points (after weights+screening)   ... 1027725 (  16.2 sec)
nearest neighbour list constructed           ...    0.0 sec
Grid point re-assignment to atoms done       ...    0.1 sec
Grid point division into batches done        ...    6.3 sec
Reduced shell lists constructed in   11.2 sec

Total number of grid points                  ...  1027725
Total number of batches                      ...    16129
Average number of points per batch           ...       63
Average number of grid points per atom       ...     7786
Average number of shells per batch           ...   143.18 (12.67%)
Average number of basis functions per batch  ...   365.62 (12.43%)
Average number of large shells per batch     ...    85.99 (60.06%)
Average number of large basis fcns per batch ...   227.23 (62.15%)
Maximum spatial batch extension              ...  20.10, 21.97, 16.96 au
Average spatial batch extension              ...   0.30,  0.32,  0.29 au

Final grid set up in   29.7 sec
Final integration                            ... done (  15.2 sec)
Change in XC energy                          ...     0.000093796
Integrated number of electrons               ...   585.999943238
Previous integrated no of electrons          ...   586.000168731
Old exchange energy                            =    -99.894708580 Eh
New exchange energy                            =    -99.894666217 Eh
Exchange energy change after final integration =      0.000042362 Eh
Total energy after final integration           =  -3765.925647567 Eh
Final COS-X integration done in                =   412.464 sec

----------------
TOTAL SCF ENERGY
----------------

Total Energy       :        -3765.92564757 Eh         -102476.04665 eV

Components:
Nuclear Repulsion  :        13531.08843562 Eh          368199.63524 eV
Electronic Energy  :       -17297.01408319 Eh         -470675.68189 eV
One Electron Energy:       -32088.37935960 Eh         -873169.19344 eV
Two Electron Energy:        14791.36527641 Eh          402493.51155 eV

Virial components:
Potential Energy   :        -7513.87007121 Eh         -204462.79933 eV
Kinetic Energy     :         3747.94442364 Eh          101986.75267 eV
Virial Ratio       :            2.00479762


DFT components:
N(Alpha)           :      292.999971619048 electrons
N(Beta)            :      292.999971619048 electrons
N(Total)           :      585.999943238096 electrons
E(X)               :     -397.204464749414 Eh       
E(C)               :      -23.714771694873 Eh       
E(XC)              :     -420.919236444287 Eh       
DFET-embed. en.    :        0.000000000000 Eh       

---------------
SCF CONVERGENCE
---------------

  Last Energy change         ...   -1.4263e-07  Tolerance :   1.0000e-08
  Last MAX-Density change    ...    3.2196e-15  Tolerance :   1.0000e-07
  Last RMS-Density change    ...    1.0900e-17  Tolerance :   5.0000e-09
  Last Orbital Gradient      ...    1.7147e-06  Tolerance :   1.0000e-05
  Last Orbital Rotation      ...    3.7162e-06  Tolerance :   1.0000e-05

             **** THE GBW FILE WAS UPDATED (IDF-4F.gbw) ****
             **** DENSITY FILE WAS UPDATED (IDF-4F.scfp) ****
             **** ENERGY FILE WAS UPDATED (IDF-4F.en.tmp) ****
             **** THE GBW FILE WAS UPDATED (IDF-4F.gbw) ****
             **** DENSITY FILE WAS UPDATED (IDF-4F.scfp) ****
----------------
ORBITAL ENERGIES
----------------

  NO   OCC          E(Eh)            E(eV) 
   0   2.0000     -24.729146      -672.9143 
   1   2.0000     -24.728635      -672.9004 
   2   2.0000     -24.725309      -672.8099 
   3   2.0000     -24.723215      -672.7529 
   4   2.0000     -19.230823      -523.2973 
   5   2.0000     -19.227163      -523.1977 
   6   2.0000     -19.134758      -520.6832 
   7   2.0000     -19.133370      -520.6455 
   8   2.0000     -14.337998      -390.1568 
   9   2.0000     -14.334109      -390.0509 
  10   2.0000     -14.332519      -390.0077 
  11   2.0000     -14.330785      -389.9605 
[...]
   Maximum residual norm  :     0.000007783610
   Rebuilding the expansion space

                       ****Iteration    7****
   Time for densities:    22.858
   Time for K (COSX):   411.179
   Time for XC-Integration:    11.957
   Time for Sigma-Completion:    80.163
   Size of expansion space: 6
   Lowest Energy          :     0.046211117924
   Maximum Energy change  :     0.000039982873 (vector 2)
   Maximum residual norm  :     0.000001627322

                       ****Iteration    8****
   Time for densities:    11.695
   Time for K (COSX):   412.731
   Time for XC-Integration:     6.541
   Time for Sigma-Completion:    40.336
   Size of expansion space: 9
   Lowest Energy          :     0.046211117921
   Maximum Energy change  :     0.000011716652 (vector 2)
   Maximum residual norm  :     0.000000769668

                       ****Iteration    9****
   Time for densities:    11.930
   Time for K (COSX):   419.360
   Time for XC-Integration:     6.934
   Time for Sigma-Completion:    39.338
   Size of expansion space: 12
   Lowest Energy          :     0.046211117920
   Maximum Energy change  :     0.000004529408 (vector 2)
   Maximum residual norm  :     0.000000714207

                       ****Iteration   10****
   Time for densities:    12.251
   Time for K (COSX):   422.130
   Time for XC-Integration:     6.951
   Time for Sigma-Completion:    39.427
   Size of expansion space: 15
   Lowest Energy          :     0.046211117920
   Maximum Energy change  :     0.000002504480 (vector 2)
   Maximum residual norm  :     0.000001547822
   Rebuilding the expansion space

                       ****Iteration   11****
   Time for densities:    19.808
   Time for K (COSX):   415.744
   Time for XC-Integration:    10.240
   Time for Sigma-Completion:    65.873
   Size of expansion space: 5
   Lowest Energy          :     0.046211117983
   Maximum Energy change  :     0.000001581823 (vector 2)
   Maximum residual norm  :     0.000000998111

                       ****Iteration   12****
   Time for densities:    12.147
   Time for K (COSX):   435.943
   Time for XC-Integration:     7.651
   Time for Sigma-Completion:    40.688
   Size of expansion space: 8
   Lowest Energy          :     0.046211117983
   Maximum Energy change  :     0.000000246443 (vector 2)

         *** CONVERGENCE OF ENERGIES REACHED ***

Storing the converged CI vectors               ... IDF-4F.cis3

                 *** DAVIDSON DONE ***

------------------------------------
TD-DFT/TDA EXCITED STATES (TRIPLETS)
------------------------------------

the weight of the individual excitations are printed if larger than 1.0e-02

STATE  1:  E=   0.046211 au      1.257 eV    10142.2 cm**-1
   290a -> 293a  :     0.010671 (c=  0.10330188)
   290a -> 294a  :     0.015323 (c=  0.12378714)
   291a -> 294a  :     0.017665 (c= -0.13290999)
   292a -> 293a  :     0.904243 (c=  0.95091681)

STATE  2:  E=   0.059636 au      1.623 eV    13088.6 cm**-1
   289a -> 293a  :     0.031201 (c=  0.17663666)
   290a -> 293a  :     0.120758 (c= -0.34750309)
   291a -> 293a  :     0.137944 (c=  0.37140822)
   291a -> 294a  :     0.010285 (c= -0.10141422)
   292a -> 294a  :     0.607904 (c= -0.77968201)
   292a -> 296a  :     0.026934 (c= -0.16411577)

STATE  3:  E=   0.078621 au      2.139 eV    17255.2 cm**-1
   282a -> 293a  :     0.010098 (c=  0.10048736)
   284a -> 293a  :     0.024404 (c=  0.15621711)
   287a -> 293a  :     0.019099 (c=  0.13820061)
   289a -> 293a  :     0.071669 (c=  0.26771075)
   290a -> 293a  :     0.247897 (c= -0.49789269)
   290a -> 294a  :     0.014054 (c= -0.11854860)
   290a -> 295a  :     0.010656 (c= -0.10322970)
   291a -> 293a  :     0.113963 (c=  0.33758420)
   291a -> 295a  :     0.013314 (c=  0.11538450)
   292a -> 293a  :     0.022799 (c=  0.15099322)
   292a -> 294a  :     0.294805 (c=  0.54295953)
   292a -> 295a  :     0.010705 (c=  0.10346674)
   292a -> 296a  :     0.059788 (c= -0.24451619)

------------------------------
TD-DFT/TDA SPIN-ORBIT COUPLING
------------------------------

Calculating the spin-orbit integrals:             

Loading the effective charges         ... done
Entering the SOC calc. section        ... 
------------------------------------------------------------------------------
                         ORCA SPIN-ORBIT COUPLING CALCULATION
------------------------------------------------------------------------------

GBW file                                    ... IDF-4F.gbw
Input density                               ... IDF-4F.cisp0
Output integrals                            ... IDF-4F.cis
Operator type                               ... Mean-field/Effective potential
   One-Electron Terms                       ... 1
   Coulomb Contribution                     ... 2
   Exchange Contribution                    ... 3
   Correlation Contribution                 ... 0
   Maximum number of centers                ... 4
Setting up the integration grid             ... done
Evaluating density on the grid              ... (NumEl=  586.000169) done
Evaluating Coulomb term semi-analytically   ... done
One-Center Exchange (+SOO)                  ... done
Evaluating the spin-orbit operator          ... done
Transforming the SOC integrals              ... done
Constructing the SOC matrix:                ... done
Diagonalizing the SOC matrix:               ... done

      --------------------------------------------------------------------------------
                      CALCULATED SOCME BETWEEN TRIPLETS AND SINGLETS                  
      --------------------------------------------------------------------------------
           Root                          <T|HSO|S>  (Re, Im) cm-1                     
         T      S             Z                     X                     Y           
      --------------------------------------------------------------------------------
         1      0    (   0.00 ,   -0.51 )    (   0.00 ,   -0.06 )    (  -0.00 ,    0.02 )
         1      1    (   0.00 ,    0.11 )    (   0.00 ,   -0.08 )    (  -0.00 ,   -0.03 )
         1      2    (   0.00 ,   -0.55 )    (   0.00 ,    0.38 )    (  -0.00 ,    0.07 )
         1      3    (   0.00 ,    0.14 )    (   0.00 ,   -0.10 )    (  -0.00 ,    0.08 )
         2      0    (   0.00 ,    0.20 )    (   0.00 ,   -0.53 )    (  -0.00 ,    0.29 )
         2      1    (   0.00 ,   -0.06 )    (   0.00 ,    0.02 )    (  -0.00 ,   -0.03 )
         2      2    (   0.00 ,    0.15 )    (   0.00 ,   -0.24 )    (  -0.00 ,    0.02 )
         2      3    (   0.00 ,    0.18 )    (   0.00 ,   -0.14 )    (  -0.00 ,    0.02 )
         3      0    (   0.00 ,   -0.24 )    (   0.00 ,   -0.59 )    (  -0.00 ,    0.46 )
         3      1    (   0.00 ,   -0.55 )    (   0.00 ,    0.27 )    (  -0.00 ,   -0.04 )
         3      2    (   0.00 ,   -0.03 )    (   0.00 ,   -0.10 )    (  -0.00 ,    0.05 )
         3      3    (   0.00 ,    0.16 )    (   0.00 ,   -0.28 )    (  -0.00 ,    0.06 )

SOC stabilization of the ground state:  -0.0001 cm-1
Eigenvalues of the SOC matrix:

   State:        cm-1         eV
     0:          0.00         0.0000
     1:      10142.17         1.2575
     2:      10142.17         1.2575
     3:      10142.17         1.2575
     4:      13088.63         1.6228
     5:      13088.63         1.6228
     6:      13088.63         1.6228
     7:      15247.32         1.8904
     8:      17255.25         2.1394
     9:      17255.25         2.1394
    10:      17255.25         2.1394
    11:      18086.29         2.2424
    12:      19009.66         2.3569

The threshold for printing is 0.0100
Eigenvectors of the SOC matrix:

             E(cm-1)  Weight      Real         Imag     : Root  Spin  Ms
 STATE  0:      0.00
                      1.00000     -0.61932      0.78514 : 0     0     0
 STATE  1:  10142.17
                      0.30463     -0.51321     -0.20309 : 1     1     0
                      0.34769      0.58861      0.03499 : 1     1    -1
                      0.34769     -0.45316     -0.37727 : 1     1     1
 STATE  2:  10142.17
                      0.49992      0.43097      0.56052 : 1     1    -1
                      0.49992      0.00270      0.70704 : 1     1     1
 STATE  3:  10142.17
                      0.69521      0.50835     -0.66090 : 1     1     0
                      0.15239      0.11935     -0.37169 : 1     1    -1
                      0.15239     -0.32862      0.21072 : 1     1     1
 STATE  4:  13088.63
                      0.55704      0.64651      0.37293 : 2     1     0
                      0.22148     -0.46801      0.04949 : 2     1    -1
                      0.22148      0.19148      0.42990 : 2     1     1
 STATE  5:  13088.63
                      0.44295     -0.16453     -0.64489 : 2     1     0
                      0.27852     -0.40518     -0.33816 : 2     1    -1
                      0.27852     -0.19366      0.49094 : 2     1     1
 STATE  6:  13088.63
                      0.50000     -0.67191     -0.22032 : 2     1    -1
                      0.50000     -0.00014     -0.70711 : 2     1     1
 STATE  7:  15247.32
                      1.00000     -0.13102      0.99138 : 1     0     0
 STATE  8:  17255.25
                      0.07661      0.27213     -0.05052 : 3     1     0
                      0.46170      0.63421     -0.24388 : 3     1    -1
                      0.46170     -0.67948      0.00000 : 3     1     1
 STATE  9:  17255.25
                      0.49976     -0.65655      0.26209 : 3     1    -1
                      0.49976     -0.70693      0.00000 : 3     1     1
 STATE 10:  17255.25
                      0.92291      0.92682     -0.25279 : 3     1     0
                      0.03855     -0.16915      0.09968 : 3     1    -1
                      0.03855      0.19633      0.00000 : 3     1     1
 STATE 11:  18086.29
                      1.00000     -0.47521      0.87987 : 2     0     0
 STATE 12:  19009.66
                      1.00000     -0.22676      0.97395 : 3     0     0

-----------------------------
TD-DFT/TDA-EXCITATION SPECTRA
-----------------------------

Center of mass = (  9.7046,  0.2412, -3.5951)
Calculating the Dipole integrals                  ... done
Transforming integrals                            ... done
Calculating the Linear Momentum integrals         ... done
Transforming integrals                            ... done
Calculating angular momentum integrals            ... done
Transforming integrals                            ... done

-----------------------------------------------------------------------------
         ABSORPTION SPECTRUM VIA TRANSITION ELECTRIC DIPOLE MOMENTS
-----------------------------------------------------------------------------
State   Energy    Wavelength  fosc         T2        TX        TY        TZ  
        (cm-1)      (nm)                 (au**2)    (au)      (au)      (au) 
-----------------------------------------------------------------------------
   1   15247.3    655.9   1.401577202  30.26210   4.42991   3.23373   0.42542
   2   18086.3    552.9   0.307424326   5.59583   2.13497   1.01758  -0.04757
   3   19009.7    526.0   0.058271826   1.00916  -0.85739  -0.51895   0.06873
   4   10142.2    986.0   spin forbidden (mult=3)
   5   13088.6    764.0   spin forbidden (mult=3)
   6   17255.2    579.5   spin forbidden (mult=3)

-----------------------------------------------------------------------------
         ABSORPTION SPECTRUM VIA TRANSITION VELOCITY DIPOLE MOMENTS
-----------------------------------------------------------------------------
State   Energy    Wavelength   fosc        P2         PX        PY        PZ  
        (cm-1)      (nm)                 (au**2)     (au)      (au)      (au) 
-----------------------------------------------------------------------------
   1   15247.3    655.9   0.121869999   0.01270  -0.10615  -0.02815   0.02530
   2   18086.3    552.9   0.039300176   0.00486  -0.05056  -0.04572   0.01456
   3   19009.7    526.0   0.022125839   0.00287   0.04795   0.02381  -0.00285
   4   10142.2    986.0   spin forbidden (mult=3)
   5   13088.6    764.0   spin forbidden (mult=3)
   6   17255.2    579.5   spin forbidden (mult=3)

-------------------------------------------------------------------
                             CD SPECTRUM
-------------------------------------------------------------------
State  Energy     Wavelength     R         MX        MY        MZ   
       (cm-1)       (nm)     (1e40*cgs)   (au)      (au)      (au)  
-------------------------------------------------------------------
   1   15247.3    655.9    -149.46735   0.34462  -0.62713   0.43325
   2   18086.3    552.9     42.88380   0.18217  -0.28625   0.14077
   3   19009.7    526.0      3.70758  -0.11570   0.16725  -0.06611
   4   10142.2    986.0 spin forbidden
   5   13088.6    764.0 spin forbidden
   6   17255.2    579.5 spin forbidden

-------------------------------------------
SOC CORRECTED TD-DFT/TDA-EXCITATION SPECTRA
--------------------------------------------

-----------------------------------------------------------------------------
  SOC CORRECTED ABSORPTION SPECTRUM VIA TRANSITION ELECTRIC DIPOLE MOMENTS*  
-----------------------------------------------------------------------------
State   Energy  Wavelength   fosc         T2         TX        TY        TZ  
        (cm-1)    (nm)                  (au**2)     (au)      (au)      (au) 
-----------------------------------------------------------------------------
   1   10142.2    986.0   0.000000000   0.00000   0.00008   0.00003   0.00001
   2   10142.2    986.0   0.000000001   0.00000   0.00012   0.00008   0.00001
   3   10142.2    986.0   0.000000002   0.00000   0.00022   0.00014   0.00001
   4   13088.6    764.0   0.000000000   0.00000   0.00001   0.00000   0.00002
   5   13088.6    764.0   0.000000000   0.00000   0.00005   0.00002   0.00001
   6   13088.6    764.0   0.000000000   0.00000   0.00002   0.00003   0.00001
   7   15247.3    655.9   1.401577116  30.26209   4.42991   3.23373   0.42542
   8   17255.2    579.5   0.000000023   0.00000   0.00057   0.00034   0.00002
   9   17255.2    579.5   0.000000016   0.00000   0.00047   0.00029   0.00002
  10   17255.2    579.5   0.000000073   0.00000   0.00094   0.00071   0.00013
  11   18086.3    552.9   0.307424280   5.59583   2.13497   1.01758   0.04757
  12   19009.7    526.0   0.058271839   1.00916   0.85739   0.51895   0.06873

-----------------------------------------------------------------------------
  SOC CORRECTED ABSORPTION SPECTRUM VIA TRANSITION VELOCITY DIPOLE MOMENTS*  
-----------------------------------------------------------------------------
State   Energy  Wavelength   fosc         P2         PX        PY        PZ  
        (cm-1)    (nm)                  (au**2)     (au)      (au)      (au) 
-----------------------------------------------------------------------------
   1   10142.2    986.0   0.000000000   0.00000   0.00000   0.00000   0.00000
   2   10142.2    986.0   0.000000001   0.00000   0.00001   0.00000   0.00000
   3   10142.2    986.0   0.000000000   0.00000   0.00000   0.00000   0.00000
   4   13088.6    764.0   0.000000000   0.00000   0.00000   0.00000   0.00000
   5   13088.6    764.0   0.000000000   0.00000   0.00000   0.00000   0.00000
   6   13088.6    764.0   0.000000000   0.00000   0.00000   0.00000   0.00000
   7   15247.3    655.9   0.121869996   0.01270   0.10615   0.02815   0.02530
   8   17255.2    579.5   0.000000001   0.00000   0.00001   0.00001   0.00000
   9   17255.2    579.5   0.000000001   0.00000   0.00001   0.00000   0.00000
  10   17255.2    579.5   0.000000003   0.00000   0.00002   0.00000   0.00001
  11   18086.3    552.9   0.039300174   0.00486   0.05056   0.04572   0.01456
  12   19009.7    526.0   0.022125839   0.00287   0.04795   0.02381   0.00285

-------------------------------------------------------------------
                    SOC CORRECTED CD SPECTRUM*                     
-------------------------------------------------------------------
State   Energy Wavelength       R         MX        MY        MZ   
        (cm-1)   (nm)       (1e40*sgs)   (au)      (au)      (au)  
-------------------------------------------------------------------
   1   10142.2    986.0      0.00000   0.00001   0.00001   0.00000
   2   10142.2    986.0      0.00000   0.00001   0.00001   0.00001
   3   10142.2    986.0      0.00000   0.00000   0.00000   0.00001
   4   13088.6    764.0      0.00000   0.00000   0.00001   0.00000
   5   13088.6    764.0      0.00000   0.00001   0.00002   0.00001
   6   13088.6    764.0      0.00000   0.00000   0.00000   0.00000
   7   15247.3    655.9    149.46734   0.34462   0.62713   0.43325
   8   17255.2    579.5      0.00000   0.00002   0.00004   0.00003
   9   17255.2    579.5      0.00000   0.00002   0.00004   0.00003
  10   17255.2    579.5      0.00001   0.00008   0.00015   0.00010
  11   18086.3    552.9     42.88379   0.18217   0.28625   0.14077
  12   19009.7    526.0      3.70758   0.11570   0.16725   0.06611

*The X,Y and Z components are the absolute values of the complex numbers

Total run time:    13099.095 sec

           *** ORCA-CIS/TD-DFT FINISHED WITHOUT ERROR ***

---------------------------
SOC CIS/TD-DFT TOTAL ENERGY
---------------------------

    E(SCF)        =  -3765.925647567 Eh
    E(SOC CIS)    =      0.046211118 Eh (SOC Root  1)
    ----------------------------- ---------
    E(tot)        =  -3765.879436449 Eh


-------------------------   --------------------
FINAL SINGLE POINT ENERGY     -3765.879436449159
-------------------------   --------------------


                            ***************************************
                            *     ORCA property calculations      *
                            ***************************************

                                    ---------------------
                                    Active property flags
                                    ---------------------
   (+) Dipole Moment


------------------------------------------------------------------------------
                       ORCA ELECTRIC PROPERTIES CALCULATION
------------------------------------------------------------------------------

Dipole Moment Calculation                       ... on
Quadrupole Moment Calculation                   ... off
Polarizability Calculation                      ... off
GBWName                                         ... IDF-4F.gbw
Electron density file                           ... IDF-4F.scfp
The origin for moment calculation is the CENTER OF MASS  = ( 9.704641,  0.241182 -3.595149)

-------------
DIPOLE MOMENT
-------------
                                X             Y             Z
Electronic contribution:    -31.98544       6.24624      47.56395
Nuclear contribution   :     34.74692      -6.58742     -46.92958
                        -----------------------------------------
Total Dipole Moment    :      2.76148      -0.34118       0.63438
                        -----------------------------------------
Magnitude (a.u.)       :      2.85388
Magnitude (Debye)      :      7.25397



--------------------
Rotational spectrum 
--------------------
 
Rotational constants in cm-1:     0.000873     0.000373     0.000319 
Rotational constants in MHz :    26.171551    11.169247     9.564367 

 Dipole components along the rotational axes: 
x,y,z [a.u.] :     2.132655    -0.209407    -1.884817 
x,y,z [Debye]:     5.420779    -0.532271    -4.790823 

 

Timings for individual modules:

Sum of individual times         ...    17232.702 sec (= 287.212 min)
GTO integral calculation        ...       10.814 sec (=   0.180 min)   0.1 %
SCF iterations                  ...     4121.693 sec (=  68.695 min)  23.9 %
CIS module                      ...    13100.194 sec (= 218.337 min)  76.0 %
                             ****ORCA TERMINATED NORMALLY****
TOTAL RUN TIME: 0 days 4 hours 47 minutes 16 seconds 391 msec
