
                                 *****************
                                 * O   R   C   A *
                                 *****************

           --- An Ab Initio, DFT and Semiempirical electronic structure package ---

                  #######################################################
                  #                        -***-                        #
                  #          Department of theory and spectroscopy      #
                  #               Directorship: Frank Neese             #
                  #        Max Planck Institute fuer Kohlenforschung    #
                  #                Kaiser Wilhelm Platz 1               #
                  #                 D-45470 Muelheim/Ruhr               #
                  #                      Germany                        #
                  #                                                     #
                  #                  All rights reserved                #
                  #                        -***-                        #
                  #######################################################


                         Program Version 4.2.0 -  RELEASE  -


 With contributions from (in alphabetic order):
   Daniel Aravena         : Magnetic Suceptibility
   Michael Atanasov       : Ab Initio Ligand Field Theory (pilot matlab implementation)
   Alexander A. Auer      : GIAO ZORA, VPT2
   Ute Becker             : Parallelization
   Giovanni Bistoni       : ED, misc. LED, open-shell LED, HFLED
   Martin Brehm           : Molecular dynamics
   Dmytro Bykov           : SCF Hessian
   Vijay G. Chilkuri      : MRCI spin determinant printing, contributions to CSF-ICE
   Dipayan Datta          : RHF DLPNO-CCSD density
   Achintya Kumar Dutta   : EOM-CC, STEOM-CC
   Dmitry Ganyushin       : Spin-Orbit,Spin-Spin,Magnetic field MRCI
   Miquel Garcia          : C-PCM Hessian, Gaussian charge scheme
   Yang Guo               : DLPNO-NEVPT2, CIM, IAO-localization
   Andreas Hansen         : Spin unrestricted coupled pair/coupled cluster methods
   Benjamin Helmich-Paris : CASSCF linear response (MC-RPA)
   Lee Huntington         : MR-EOM, pCC
   Robert Izsak           : Overlap fitted RIJCOSX, COSX-SCS-MP3, EOM
   Christian Kollmar      : KDIIS, OOCD, Brueckner-CCSD(T), CCSD density
   Simone Kossmann        : Meta GGA functionals, TD-DFT gradient, OOMP2, MP2 Hessian
   Martin Krupicka        : AUTO-CI
   Lucas Lang             : DCDCAS
   Dagmar Lenk            : GEPOL surface, SMD
   Dimitrios Liakos       : Extrapolation schemes; Compound Job, initial MDCI parallelization
   Dimitrios Manganas     : Further ROCIS development; embedding schemes
   Dimitrios Pantazis     : SARC Basis sets
   Taras Petrenko         : DFT Hessian,TD-DFT gradient, ASA, ECA, R-Raman, ABS, FL, XAS/XES, NRVS
   Peter Pinski           : DLPNO-MP2, DLPNO-MP2 Gradient
   Christoph Reimann      : Effective Core Potentials
   Marius Retegan         : Local ZFS, SOC
   Christoph Riplinger    : Optimizer, TS searches, QM/MM, DLPNO-CCSD(T), (RO)-DLPNO pert. Triples
   Tobias Risthaus        : Range-separated hybrids, TD-DFT gradient, RPA, STAB
   Michael Roemelt        : Original ROCIS implementation
   Masaaki Saitow         : Open-shell DLPNO-CCSD energy and density
   Barbara Sandhoefer     : DKH picture change effects
   Avijit Sen             : IP-ROCIS
   Kantharuban Sivalingam : CASSCF convergence, NEVPT2, FIC-MRCI
   Bernardo de Souza      : ESD, SOC TD-DFT
   Georgi Stoychev        : AutoAux, RI-MP2 NMR
   Willem Van den Heuvel  : Paramagnetic NMR
   Boris Wezisla          : Elementary symmetry handling
   Frank Wennmohs         : Technical directorship


 We gratefully acknowledge several colleagues who have allowed us to
 interface, adapt or use parts of their codes:
   Stefan Grimme, W. Hujo, H. Kruse,             : VdW corrections, initial TS optimization,
                  C. Bannwarth                     DFT functionals, gCP, sTDA/sTD-DF
   Ed Valeev, F. Pavosevic, A. Kumar             : LibInt (2-el integral package), F12 methods
   Garnet Chan, S. Sharma, J. Yang, R. Olivares  : DMRG
   Ulf Ekstrom                                   : XCFun DFT Library
   Mihaly Kallay                                 : mrcc  (arbitrary order and MRCC methods)
   Andreas Klamt, Michael Diedenhofen            : otool_cosmo (COSMO solvation model)
   Jiri Pittner, Ondrej Demel                    : Mk-CCSD
   Frank Weinhold                                : gennbo (NPA and NBO analysis)
   Christopher J. Cramer and Donald G. Truhlar   : smd solvation model
   Lars Goerigk                                  : TD-DFT with DH, B97 family of functionals
   V. Asgeirsson, H. Jonsson                     : NEB implementation
   FAccTs GmbH                                   : IRC, NEB, NEB-TS, Multilevel, MM, QM/MM, CI optimization
   S Lehtola, MJT Oliveira, MAL Marques          : LibXC Library


 Your calculation uses the libint2 library for the computation of 2-el integrals
 For citations please refer to: http://libint.valeyev.net

 Your ORCA version has been built with support for libXC version: 4.2.3
 For citations please refer to: https://tddft.org/programs/libxc/

 This ORCA versions uses:
   CBLAS   interface :  Fast vector & matrix operations
   LAPACKE interface :  Fast linear algebra routines
   SCALAPACK package :  Parallel linear algebra routines


----- Orbital basis set information -----
Your calculation utilizes the basis: def2-TZVP
   F. Weigend and R. Ahlrichs, Phys. Chem. Chem. Phys. 7, 3297 (2005).

----- AuxJ basis set information -----
Your calculation utilizes the auxiliary basis: def2/J
   F. Weigend, Phys. Chem. Chem. Phys. 8, 1057 (2006).

================================================================================
                                        WARNINGS
                       Please study these warnings very carefully!
================================================================================

INFO   : Checking CIS options ...

WARNING: (CIS/TDDFT): Spin-orbit needs TRIPLETS set to TRUE
  ===> : ajusting flags

WARNING: CIS/ROCIS methods need fully converged wavefunctions
  ===> : Setting SCFConvForced true
         You can overwrite this default with %scf ConvForced false 


INFO   : the flag for use of LIBINT has been found!

================================================================================
                                       INPUT FILE
================================================================================
NAME = IDIC.inp
|  1> # ORCA input file
|  2> # IDIC.out
|  3> ! B3LYP def2-TZVP def2/J RIJCOSX Grid4 TightSCF
|  4> 
|  5> %maxcore 2000
|  6> %tddft
|  7>   maxdim 5
|  8>   nroots 3
|  9>   dosoc true
| 10>   end
| 11> 
| 12> 
| 13> 
| 14> * xyz 0 1
| 15>    C        2.88652         1.02659        -0.08700
| 16>    C        2.83118        -0.38114        -0.23083
| 17>    C        1.61277        -1.02068        -0.21882
| 18>    C        0.46945        -0.22943        -0.12969
| 19>    C        0.52501         1.18369        -0.03973
| 20>    C        1.74388         1.81817         0.01433
| 21>    C       -0.90866        -0.59764        -0.07326
| 22>    C       -1.71299         0.53344         0.04841
| 23>    C       -0.86804         1.78008         0.02930
| 24>    C        4.26573         1.38863        -0.05776
| 25>    C        5.07584         0.26095        -0.18322
| 26>    C        4.22668        -0.97767        -0.32318
| 27>    S       -1.81135        -2.04477        -0.10141
| 28>    C       -3.31494        -1.12372         0.04327
| 29>    C       -3.06386         0.24412         0.11096
| 30>    S        5.15732         2.83704         0.06519
| 31>    C        6.66755         1.92889        -0.06935
| 32>    C        6.42600         0.56437        -0.20584
| 33>    C       -1.07359         2.63495         1.28901
| 34>    C       -1.23448         2.55801        -1.25702
| 35>    C       -0.38346         3.78448        -1.55617
| 36>    C       -0.85488         1.84330         2.57332
| 37>    C        4.51144        -1.58692        -1.71319
| 38>    C        4.43366        -1.96230         0.84451
| 39>    C        3.70239        -2.82597        -2.07238
| 40>    C        5.80714        -2.61813         0.89981
| 41>    C        7.84450         2.69675        -0.04753
| 42>    C       -4.49522        -1.88667         0.06658
| 43>    C       -5.81797        -1.53133         0.12786
| 44>    C        9.16969         2.34844        -0.09703
| 45>    C        9.77421         0.99716        -0.09216
| 46>    C       11.23315         1.21074        -0.04539
| 47>    C       11.51369         2.58655        -0.04546
| 48>    C       10.25128         3.32172        -0.10333
| 49>    C       -6.41477        -0.17656         0.15125
| 50>    C       -7.87553        -0.38114         0.13369
| 51>    C       -8.16442        -1.75501         0.12284
| 52>    C       -6.90542        -2.49851         0.13882
| 53>    C       12.23602         0.26187        -0.00458
| 54>    C       13.55147         0.70058         0.03816
| 55>    C       13.83844         2.05806         0.04168
| 56>    C       12.83195         3.01402         0.00018
| 57>    C       -8.87259         0.57466         0.12623
| 58>    C      -10.19148         0.14498         0.10614
| 59>    C      -10.48713        -1.21065         0.09319
| 60>    C       -9.48631        -2.17340         0.10152
| 61>    O        9.22436        -0.08656        -0.11004
| 62>    O       -5.85965         0.90410         0.17539
| 63>    C       -6.81175        -3.86555         0.17815
| 64>    C       10.14898         4.68602        -0.18855
| 65>    C        8.96121         5.44015        -0.30184
| 66>    C       11.25408         5.56468        -0.19620
| 67>    C       -5.62882        -4.63393         0.22841
| 68>    C       -7.92326        -4.73621         0.18701
| 69>    N        8.05874         6.14357        -0.40815
| 70>    N       12.09718         6.34392        -0.20563
| 71>    N       -8.77025        -5.51116         0.19419
| 72>    N       -4.73134        -5.34981         0.27798
| 73>    H        1.51920        -2.09430        -0.26153
| 74>    H        1.83750         2.88468         0.14608
| 75>    H       -3.85495         0.96452         0.20418
| 76>    H        7.22959        -0.13852        -0.32027
| 77>    H       -2.09011         3.03236         1.27554
| 78>    H       -0.37878         3.47488         1.26659
| 79>    H       -2.28042         2.85886        -1.16749
| 80>    H       -1.16075         1.86619        -2.10041
| 81>    H       -0.41704         4.50100        -0.74021
| 82>    H       -0.76600         4.27462        -2.44868
| 83>    H        0.65020         3.50661        -1.74275
| 84>    H       -1.56771         1.02546         2.65019
| 85>    H       -0.98463         2.49102         3.43687
| 86>    H        0.15022         1.42736         2.60328
| 87>    H        5.57537        -1.82366        -1.75892
| 88>    H        4.31806        -0.81123        -2.45937
| 89>    H        3.66633        -2.73539         0.78279
| 90>    H        4.26415        -1.41059         1.77335
| 91>    H        3.83323        -3.61422        -1.33632
| 92>    H        4.03817        -3.20541        -3.03508
| 93>    H        2.64481        -2.59221        -2.15603
| 94>    H        5.85552        -3.27662         1.76444
| 95>    H        6.59380        -1.87597         0.99731
| 96>    H        5.99790        -3.21458         0.01217
| 97>    H        7.64416         3.75932         0.02440
| 98>    H       -4.30031        -2.95133         0.01483
| 99>    H       11.98680        -0.78820        -0.00659
|100>    H       14.35774        -0.01668         0.06972
|101>    H       14.86728         2.38362         0.07722
|102>    H       13.08856         4.06028         0.00623
|103>    H       -8.61608         1.62287         0.13628
|104>    H      -10.99353         0.86762         0.10027
|105>    H      -11.51859        -1.52928         0.07606
|106>    H       -9.75026        -3.21772         0.08928
|107> *
|108> 
|109>                          ****END OF INPUT****
================================================================================

                       ****************************
                       * Single Point Calculation *
                       ****************************

---------------------------------
CARTESIAN COORDINATES (ANGSTROEM)
---------------------------------
  C      2.886520    1.026590   -0.087000
  C      2.831180   -0.381140   -0.230830
  C      1.612770   -1.020680   -0.218820
  C      0.469450   -0.229430   -0.129690
  C      0.525010    1.183690   -0.039730
  C      1.743880    1.818170    0.014330
  C     -0.908660   -0.597640   -0.073260
  C     -1.712990    0.533440    0.048410
  C     -0.868040    1.780080    0.029300
  C      4.265730    1.388630   -0.057760
  C      5.075840    0.260950   -0.183220
  C      4.226680   -0.977670   -0.323180
  S     -1.811350   -2.044770   -0.101410
  C     -3.314940   -1.123720    0.043270
  C     -3.063860    0.244120    0.110960
  S      5.157320    2.837040    0.065190
  C      6.667550    1.928890   -0.069350
  C      6.426000    0.564370   -0.205840
  C     -1.073590    2.634950    1.289010
  C     -1.234480    2.558010   -1.257020
  C     -0.383460    3.784480   -1.556170
  C     -0.854880    1.843300    2.573320
  C      4.511440   -1.586920   -1.713190
  C      4.433660   -1.962300    0.844510
  C      3.702390   -2.825970   -2.072380
  C      5.807140   -2.618130    0.899810
  C      7.844500    2.696750   -0.047530
  C     -4.495220   -1.886670    0.066580
  C     -5.817970   -1.531330    0.127860
  C      9.169690    2.348440   -0.097030
  C      9.774210    0.997160   -0.092160
  C     11.233150    1.210740   -0.045390
  C     11.513690    2.586550   -0.045460
  C     10.251280    3.321720   -0.103330
  C     -6.414770   -0.176560    0.151250
  C     -7.875530   -0.381140    0.133690
  C     -8.164420   -1.755010    0.122840
  C     -6.905420   -2.498510    0.138820
  C     12.236020    0.261870   -0.004580
  C     13.551470    0.700580    0.038160
  C     13.838440    2.058060    0.041680
  C     12.831950    3.014020    0.000180
  C     -8.872590    0.574660    0.126230
  C    -10.191480    0.144980    0.106140
  C    -10.487130   -1.210650    0.093190
  C     -9.486310   -2.173400    0.101520
  O      9.224360   -0.086560   -0.110040
  O     -5.859650    0.904100    0.175390
  C     -6.811750   -3.865550    0.178150
  C     10.148980    4.686020   -0.188550
  C      8.961210    5.440150   -0.301840
  C     11.254080    5.564680   -0.196200
  C     -5.628820   -4.633930    0.228410
  C     -7.923260   -4.736210    0.187010
  N      8.058740    6.143570   -0.408150
  N     12.097180    6.343920   -0.205630
  N     -8.770250   -5.511160    0.194190
  N     -4.731340   -5.349810    0.277980
  H      1.519200   -2.094300   -0.261530
  H      1.837500    2.884680    0.146080
  H     -3.854950    0.964520    0.204180
  H      7.229590   -0.138520   -0.320270
  H     -2.090110    3.032360    1.275540
  H     -0.378780    3.474880    1.266590
  H     -2.280420    2.858860   -1.167490
  H     -1.160750    1.866190   -2.100410
  H     -0.417040    4.501000   -0.740210
  H     -0.766000    4.274620   -2.448680
  H      0.650200    3.506610   -1.742750
  H     -1.567710    1.025460    2.650190
  H     -0.984630    2.491020    3.436870
  H      0.150220    1.427360    2.603280
  H      5.575370   -1.823660   -1.758920
  H      4.318060   -0.811230   -2.459370
  H      3.666330   -2.735390    0.782790
  H      4.264150   -1.410590    1.773350
  H      3.833230   -3.614220   -1.336320
  H      4.038170   -3.205410   -3.035080
  H      2.644810   -2.592210   -2.156030
  H      5.855520   -3.276620    1.764440
  H      6.593800   -1.875970    0.997310
  H      5.997900   -3.214580    0.012170
  H      7.644160    3.759320    0.024400
  H     -4.300310   -2.951330    0.014830
  H     11.986800   -0.788200   -0.006590
  H     14.357740   -0.016680    0.069720
  H     14.867280    2.383620    0.077220
  H     13.088560    4.060280    0.006230
  H     -8.616080    1.622870    0.136280
  H    -10.993530    0.867620    0.100270
  H    -11.518590   -1.529280    0.076060
  H     -9.750260   -3.217720    0.089280

----------------------------
CARTESIAN COORDINATES (A.U.)
----------------------------
  NO LB      ZA    FRAG     MASS         X           Y           Z
   0 C     6.0000    0    12.011    5.454732    1.939974   -0.164406
   1 C     6.0000    0    12.011    5.350155   -0.720250   -0.436205
   2 C     6.0000    0    12.011    3.047694   -1.928806   -0.413510
   3 C     6.0000    0    12.011    0.887132   -0.433560   -0.245079
   4 C     6.0000    0    12.011    0.992125    2.236850   -0.075079
   5 C     6.0000    0    12.011    3.295456    3.435843    0.027080
   6 C     6.0000    0    12.011   -1.717119   -1.129376   -0.138441
   7 C     6.0000    0    12.011   -3.237082    1.008056    0.091482
   8 C     6.0000    0    12.011   -1.640358    3.363864    0.055369
   9 C     6.0000    0    12.011    8.061061    2.624130   -0.109151
  10 C     6.0000    0    12.011    9.591947    0.493124   -0.346236
  11 C     6.0000    0    12.011    7.987268   -1.847529   -0.610722
  12 S    16.0000    0    32.060   -3.422955   -3.864055   -0.191637
  13 C     6.0000    0    12.011   -6.264329   -2.123523    0.081768
  14 C     6.0000    0    12.011   -5.789856    0.461320    0.209684
  15 S    16.0000    0    32.060    9.745922    5.361229    0.123191
  16 C     6.0000    0    12.011   12.599843    3.645074   -0.131053
  17 C     6.0000    0    12.011   12.143380    1.066505   -0.388981
  18 C     6.0000    0    12.011   -2.028791    4.979334    2.435876
  19 C     6.0000    0    12.011   -2.332829    4.833938   -2.375424
  20 C     6.0000    0    12.011   -0.724634    7.151631   -2.940735
  21 C     6.0000    0    12.011   -1.615489    3.483332    4.862870
  22 C     6.0000    0    12.011    8.525386   -2.998844   -3.237460
  23 C     6.0000    0    12.011    8.378403   -3.708210    1.595893
  24 C     6.0000    0    12.011    6.996503   -5.340309   -3.916231
  25 C     6.0000    0    12.011   10.973904   -4.947549    1.700394
  26 C     6.0000    0    12.011   14.823957    5.096119   -0.089819
  27 C     6.0000    0    12.011   -8.494735   -3.565290    0.125818
  28 C     6.0000    0    12.011  -10.994370   -2.893794    0.241620
  29 C     6.0000    0    12.011   17.328203    4.437908   -0.183360
  30 C     6.0000    0    12.011   18.470580    1.884359   -0.174157
  31 C     6.0000    0    12.011   21.227577    2.287967   -0.085775
  32 C     6.0000    0    12.011   21.757721    4.887871   -0.085907
  33 C     6.0000    0    12.011   19.372112    6.277141   -0.195265
  34 C     6.0000    0    12.011  -12.122159   -0.333650    0.285821
  35 C     6.0000    0    12.011  -14.882595   -0.720250    0.252637
  36 C     6.0000    0    12.011  -15.428518   -3.316488    0.232134
  37 C     6.0000    0    12.011  -13.049353   -4.721500    0.262332
  38 C     6.0000    0    12.011   23.122727    0.494863   -0.008655
  39 C     6.0000    0    12.011   25.608567    1.323904    0.072112
  40 C     6.0000    0    12.011   26.150862    3.889170    0.078764
  41 C     6.0000    0    12.011   24.248871    5.695672    0.000340
  42 C     6.0000    0    12.011  -16.766765    1.085950    0.238540
  43 C     6.0000    0    12.011  -19.259106    0.273972    0.200576
  44 C     6.0000    0    12.011  -19.817804   -2.287797    0.176104
  45 C     6.0000    0    12.011  -17.926528   -4.107131    0.191845
  46 O     8.0000    0    15.999   17.431514   -0.163575   -0.207945
  47 O     8.0000    0    15.999  -11.073134    1.708501    0.331439
  48 C     6.0000    0    12.011  -12.872342   -7.304831    0.336655
  49 C     6.0000    0    12.011   19.178793    8.855294   -0.356308
  50 C     6.0000    0    12.011   16.934233   10.280394   -0.570395
  51 C     6.0000    0    12.011   21.267129   10.515721   -0.370764
  52 C     6.0000    0    12.011  -10.636928   -8.756859    0.431632
  53 C     6.0000    0    12.011  -14.972791   -8.950140    0.353398
  54 N     7.0000    0    14.007   15.228812   11.609665   -0.771292
  55 N     7.0000    0    14.007   22.860357   11.988271   -0.388584
  56 N     7.0000    0    14.007  -16.573371  -10.414583    0.366966
  57 N     7.0000    0    14.007   -8.940937  -10.109676    0.525306
  58 H     1.0000    0     1.008    2.870872   -3.957653   -0.494220
  59 H     1.0000    0     1.008    3.472372    5.451255    0.276051
  60 H     1.0000    0     1.008   -7.284800    1.822679    0.385844
  61 H     1.0000    0     1.008   13.661945   -0.261765   -0.605223
  62 H     1.0000    0     1.008   -3.949735    5.730330    2.410421
  63 H     1.0000    0     1.008   -0.715790    6.566572    2.393508
  64 H     1.0000    0     1.008   -4.309369    5.402462   -2.206236
  65 H     1.0000    0     1.008   -2.193500    3.526588   -3.969200
  66 H     1.0000    0     1.008   -0.788091    8.505657   -1.398794
  67 H     1.0000    0     1.008   -1.447530    8.077861   -4.627335
  68 H     1.0000    0     1.008    1.228700    6.626533   -3.293320
  69 H     1.0000    0     1.008   -2.962543    1.937839    5.008133
  70 H     1.0000    0     1.008   -1.860681    4.707346    6.494743
  71 H     1.0000    0     1.008    0.283875    2.697319    4.919486
  72 H     1.0000    0     1.008   10.535922   -3.446218   -3.323877
  73 H     1.0000    0     1.008    8.159951   -1.533003   -4.647536
  74 H     1.0000    0     1.008    6.928360   -5.169138    1.479259
  75 H     1.0000    0     1.008    8.058076   -2.665629    3.351146
  76 H     1.0000    0     1.008    7.243755   -6.829886   -2.525279
  77 H     1.0000    0     1.008    7.631035   -6.057347   -5.735470
  78 H     1.0000    0     1.008    4.997967   -4.898567   -4.074306
  79 H     1.0000    0     1.008   11.065329   -6.191914    3.334308
  80 H     1.0000    0     1.008   12.460476   -3.545070    1.884643
  81 H     1.0000    0     1.008   11.334388   -6.074676    0.022998
  82 H     1.0000    0     1.008   14.445369    7.104085    0.046109
  83 H     1.0000    0     1.008   -8.126408   -5.577205    0.028025
  84 H     1.0000    0     1.008   22.651769   -1.489482   -0.012453
  85 H     1.0000    0     1.008   27.132197   -0.031521    0.131752
  86 H     1.0000    0     1.008   28.095088    4.504389    0.145925
  87 H     1.0000    0     1.008   24.733794    7.672817    0.011773
  88 H     1.0000    0     1.008  -16.282032    3.066780    0.257532
  89 H     1.0000    0     1.008  -20.774761    1.639564    0.189483
  90 H     1.0000    0     1.008  -21.766981   -2.889920    0.143733
  91 H     1.0000    0     1.008  -18.425321   -6.080610    0.168715

--------------------------------
INTERNAL COORDINATES (ANGSTROEM)
--------------------------------
 C      0   0   0     0.000000000000     0.00000000     0.00000000
 C      1   0   0     1.416140295804     0.00000000     0.00000000
 C      2   1   0     1.376109944663   119.71579690     0.00000000
 C      3   2   1     1.393270017549   117.59301421     3.12599030
 C      4   3   2     1.417070163965   122.56205609   359.37478439
 C      5   4   3     1.375184144360   119.82408489   357.45720828
 C      4   3   2     1.427567904199   130.40763193   181.20807753
 C      7   4   3     1.393230886896   110.57098434   178.38648575
 C      8   7   4     1.506126483467   110.30297886     2.09400535
 C      1   2   3     1.426235661909   106.99015035   176.63219308
 C     10   1   2     1.394159462221   110.77791415     0.23576171
 C     11  10   1     1.508257607838   110.20978556     0.55819670
 S      7   4   3     1.705821472341   136.80338404   359.08987660
 C     13   7   4     1.769194249652    90.38585341   179.62251657
 C      8   7   4     1.382920215269   113.45561512   180.11311658
 S     10   1   2     1.705268588434   136.27709437   179.01840713
 C     16  10   1     1.767380006394    90.27738224   181.76971439
 C     11  10   1     1.384018564326   113.01687245   177.95036171
 C      9   8   7     1.536204024048   112.03282167   237.23790322
 C      9   8   7     1.547279063679   107.08780168   114.40016068
 C     20   9   8     1.522482979806   115.84826235   186.46607391
 C     19   9   8     1.524465795845   112.49845835    53.98412736
 C     12  11  10     1.544150776382   107.68146416   116.74598122
 C     12  11  10     1.541375000900   112.25305286   242.89469129
 C     23  12  11     1.522768617059   115.81050789   182.34724196
 C     24  12  11     1.523029346172   115.06692717   292.28489498
 C     17  16  10     1.405452380730   115.70005114   178.92881641
 C     14  13   7     1.405594869441   115.62086363   179.78310269
 C     28  14  13     1.371017620784   132.08241709   182.15307174
 C     27  17  16     1.371093958195   132.06923143   178.31557220
 C     30  27  17     1.480346508659   128.78960656   355.02527195
 C     31  30  27     1.475232108144   105.77162597   184.64107421
 C     32  31  30     1.404121024912   109.84322230   359.02376080
 C     30  27  17     1.455043152797   123.27663527   177.99278772
 C     29  28  14     1.480580658053   128.81123107     1.93258102
 C     35  29  28     1.475120709501   105.78752306   176.47544778
 C     36  35  29     1.403956527639   109.85081129     0.90908813
 C     29  28  14     1.455371009915   123.29764907   179.86630577
 C     32  31  30     1.381219739904   128.28216634   178.95930784
 C     39  32  31     1.387336251310   118.17222930   180.11777770
 C     40  39  32     1.387485539276   120.36950616     0.10924480
 C     33  32  31     1.386586830350   119.47369569   179.76413707
 C     36  35  29     1.381208867333   128.23875521   180.99014180
 C     43  36  35     1.387263256415   118.16673798   179.84899921
 C     44  43  36     1.387555159949   120.35206084   359.95945306
 C     37  36  35     1.386685943752   119.44092319   180.19635466
 O     31  30  27     1.215361573895   128.98693090     4.04354933
 O     35  29  28     1.215140728311   129.04491616   356.70879619
 C     38  29  28     1.370809716700   127.72630054     4.52660480
 C     34  30  27     1.370781612220   127.62804276   353.37753048
 C     50  34  30     1.411504252172   126.83675975   359.35311443
 C     50  34  30     1.411859740945   124.14729865   180.39289399
 C     49  38  29     1.411473441798   126.95400856     0.59050460
 C     49  38  29     1.411942567989   124.14795401   179.95432635
 N     51  50  34     1.149153433359   174.45351821   186.52117452
 N     52  50  34     1.148094731501   175.73930401   181.92926812
 N     54  49  38     1.148037941446   175.61531314   178.25532292
 N     53  49  38     1.149091688987   174.41581206   175.98163064
 H      3   2   1     1.078535763617   122.62207807   183.98800544
 H      6   5   4     1.078687325873   122.54055878   183.98110191
 H     15   8   7     1.074006292579   125.66918557   180.06872676
 H     18  11  10     1.073734354997   126.03830538   181.67536437
 H     19   9   8     1.091526023235   108.48748724   292.74491163
 H     19   9   8     1.090296288813   109.06043936   175.07293774
 H     20   9   8     1.092024187919   107.28884831    64.16901003
 H     20   9   8     1.093324159342   107.88989111   308.51042618
 H     21  20   9     1.086424985169   111.49636190   302.12170214
 H     21  20   9     1.087726147199   109.12562288   182.96697135
 H     21  20   9     1.086497505243   111.06971457    64.02019536
 H     22  19   9     1.087611084625   110.85502840   298.27877431
 H     22  19   9     1.087241860581   110.03807894   178.53086967
 H     22  19   9     1.088177235197   110.74456161    58.66921749
 H     23  12  11     1.090909760429   107.65042079    59.62649319
 H     23  12  11     1.093560877546   107.56273140   304.25487051
 H     24  12  11     1.090996258197   108.38239024   169.55226123
 H     24  12  11     1.093554438425   107.47928858    53.94195965
 H     25  23  12     1.086389198998   111.50482388   303.39605853
 H     25  23  12     1.087894393772   109.18060131   184.11705924
 H     25  23  12     1.086331678862   111.11941210    65.21865677
 H     26  24  12     1.087903829114   109.24461397   179.00838572
 H     26  24  12     1.085882899396   111.23926825    59.79338707
 H     26  24  12     1.086299567201   111.41532823   298.26971635
 H     27  17  16     1.083681247139   112.45251462   358.47390206
 H     28  14  13     1.083590737410   112.42536571     1.39215451
 H     39  32  31     1.079241239668   120.04563467     0.12456114
 H     40  39  32     1.079596801635   119.92960222   180.05859632
 H     41  40  39     1.079705585241   119.48350695   179.87623774
 H     42  33  32     1.077286072592   121.73949857   180.28112030
 H     43  36  35     1.079186076031   120.03363159   359.82926884
 H     44  43  36     1.079595863738   119.93763900   179.97490270
 H     45  44  43     1.079688957710   119.47380770   180.09355966
 H     46  37  36     1.077229633133   121.75268198   179.79079628

---------------------------
INTERNAL COORDINATES (A.U.)
---------------------------
 C      0   0   0     0.000000000000     0.00000000     0.00000000
 C      1   0   0     2.676117326280     0.00000000     0.00000000
 C      2   1   0     2.600470925578   119.71579690     0.00000000
 C      3   2   1     2.632898763771   117.59301421     3.12599030
 C      4   3   2     2.677874522445   122.56205609   359.37478439
 C      5   4   3     2.598721416552   119.82408489   357.45720828
 C      4   3   2     2.697712376513   130.40763193   181.20807753
 C      7   4   3     2.632824817553   110.57098434   178.38648575
 C      8   7   4     2.846166576798   110.30297886     2.09400535
 C      1   2   3     2.695194803439   106.99015035   176.63219308
 C     10   1   2     2.634579570612   110.77791415     0.23576171
 C     11  10   1     2.850193818216   110.20978556     0.55819670
 S      7   4   3     3.223535416087   136.80338404   359.08987660
 C     13   7   4     3.343292609550    90.38585341   179.62251657
 C      8   7   4     2.613340471922   113.45561512   180.11311658
 S     10   1   2     3.222490616919   136.27709437   179.01840713
 C     16  10   1     3.339864186652    90.27738224   181.76971439
 C     11  10   1     2.615416050840   113.01687245   177.95036171
 C      9   8   7     2.903004891278   112.03282167   237.23790322
 C      9   8   7     2.923933683104   107.08780168   114.40016068
 C     20   9   8     2.877075875390   115.84826235   186.46607391
 C     19   9   8     2.880822854677   112.49845835    53.98412736
 C     12  11  10     2.918022076843   107.68146416   116.74598122
 C     12  11  10     2.912776621374   112.25305286   242.89469129
 C     23  12  11     2.877615651572   115.81050789   182.34724196
 C     24  12  11     2.878108358190   115.06692717   292.28489498
 C     17  16  10     2.655920093848   115.70005114   178.92881641
 C     14  13   7     2.656189358489   115.62086363   179.78310269
 C     28  14  13     2.590847828062   132.08241709   182.15307174
 C     27  17  16     2.590992084863   132.06923143   178.31557220
 C     30  27  17     2.797449484673   128.78960656   355.02527195
 C     31  30  27     2.787784668360   105.77162597   184.64107421
 C     32  31  30     2.653404195965   109.84322230   359.02376080
 C     30  27  17     2.749633071823   123.27663527   177.99278772
 C     29  28  14     2.797891962901   128.81123107     1.93258102
 C     35  29  28     2.787574155433   105.78752306   176.47544778
 C     36  35  29     2.653093341169   109.85081129     0.90908813
 C     29  28  14     2.750252631987   123.29764907   179.86630577
 C     32  31  30     2.610127039184   128.28216634   178.95930784
 C     39  32  31     2.621685570638   118.17222930   180.11777770
 C     40  39  32     2.621967684008   120.36950616     0.10924480
 C     33  32  31     2.620269370263   119.47369569   179.76413707
 C     36  35  29     2.610106493003   128.23875521   180.99014180
 C     43  36  35     2.621547630277   118.16673798   179.84899921
 C     44  43  36     2.622099248012   120.35206084   359.95945306
 C     37  36  35     2.620456667450   119.44092319   180.19635466
 O     31  30  27     2.296700528353   128.98693090     4.04354933
 O     35  29  28     2.296283190681   129.04491616   356.70879619
 C     38  29  28     2.590454946282   127.72630054     4.52660480
 C     34  30  27     2.590401836511   127.62804276   353.37753048
 C     50  34  30     2.667356473471   126.83675975   359.35311443
 C     50  34  30     2.668028249894   124.14729865   180.39289399
 C     49  38  29     2.667298250301   126.95400856     0.59050460
 C     49  38  29     2.668184770325   124.14795401   179.95432635
 N     51  50  34     2.171585274903   174.45351821   186.52117452
 N     52  50  34     2.169584618334   175.73930401   181.92926812
 N     54  49  38     2.169477300684   175.61531314   178.25532292
 N     53  49  38     2.171468594951   174.41581206   175.98163064
 H      3   2   1     2.038137218875   122.62207807   183.98800544
 H      6   5   4     2.038423630033   122.54055878   183.98110191
 H     15   8   7     2.029577759083   125.66918557   180.06872676
 H     18  11  10     2.029063871526   126.03830538   181.67536437
 H     19   9   8     2.062685251963   108.48748724   292.74491163
 H     19   9   8     2.060361390688   109.06043936   175.07293774
 H     20   9   8     2.063626646785   107.28884831    64.16901003
 H     20   9   8     2.066083236755   107.88989111   308.51042618
 H     21  20   9     2.053045687019   111.49636190   302.12170214
 H     21  20   9     2.055504526911   109.12562288   182.96697135
 H     21  20   9     2.053182730099   111.06971457    64.02019536
 H     22  19   9     2.055287090159   110.85502840   298.27877431
 H     22  19   9     2.054589357833   110.03807894   178.53086967
 H     22  19   9     2.056356959689   110.74456161    58.66921749
 H     23  12  11     2.061520684033   107.65042079    59.62649319
 H     23  12  11     2.066530569333   107.56273140   304.25487051
 H     24  12  11     2.061684141125   108.38239024   169.55226123
 H     24  12  11     2.066518401158   107.47928858    53.94195965
 H     25  23  12     2.052978060957   111.50482388   303.39605853
 H     25  23  12     2.055822466857   109.18060131   184.11705924
 H     25  23  12     2.052869363653   111.11941210    65.21865677
 H     26  24  12     2.055840297069   109.24461397   179.00838572
 H     26  24  12     2.052021293366   111.23926825    59.79338707
 H     26  24  12     2.052808681406   111.41532823   298.26971635
 H     27  17  16     2.047860773558   112.45251462   358.47390206
 H     28  14  13     2.047689734958   112.42536571     1.39215451
 H     39  32  31     2.039470375406   120.04563467     0.12456114
 H     40  39  32     2.040142290147   119.92960222   180.05859632
 H     41  40  39     2.040347861370   119.48350695   179.87623774
 H     42  33  32     2.035775645086   121.73949857   180.28112030
 H     43  36  35     2.039366131240   120.03363159   359.82926884
 H     44  43  36     2.040140517779   119.93763900   179.97490270
 H     45  44  43     2.040316439890   119.47380770   180.09355966
 H     46  37  36     2.035668989966   121.75268198   179.79079628

---------------------
BASIS SET INFORMATION
---------------------
There are 5 groups of distinct atoms

 Group   1 Type C   : 11s6p2d1f contracted to 5s3p2d1f pattern {62111/411/11/1}
 Group   2 Type S   : 14s9p3d1f contracted to 5s5p2d1f pattern {73211/51111/21/1}
 Group   3 Type O   : 11s6p2d1f contracted to 5s3p2d1f pattern {62111/411/11/1}
 Group   4 Type N   : 11s6p2d1f contracted to 5s3p2d1f pattern {62111/411/11/1}
 Group   5 Type H   : 5s1p contracted to 3s1p pattern {311/1}

Atom   0C    basis set group =>   1
Atom   1C    basis set group =>   1
Atom   2C    basis set group =>   1
Atom   3C    basis set group =>   1
Atom   4C    basis set group =>   1
Atom   5C    basis set group =>   1
Atom   6C    basis set group =>   1
Atom   7C    basis set group =>   1
Atom   8C    basis set group =>   1
Atom   9C    basis set group =>   1
Atom  10C    basis set group =>   1
Atom  11C    basis set group =>   1
Atom  12S    basis set group =>   2
Atom  13C    basis set group =>   1
Atom  14C    basis set group =>   1
Atom  15S    basis set group =>   2
Atom  16C    basis set group =>   1
Atom  17C    basis set group =>   1
Atom  18C    basis set group =>   1
Atom  19C    basis set group =>   1
Atom  20C    basis set group =>   1
Atom  21C    basis set group =>   1
Atom  22C    basis set group =>   1
Atom  23C    basis set group =>   1
Atom  24C    basis set group =>   1
Atom  25C    basis set group =>   1
Atom  26C    basis set group =>   1
Atom  27C    basis set group =>   1
Atom  28C    basis set group =>   1
Atom  29C    basis set group =>   1
Atom  30C    basis set group =>   1
Atom  31C    basis set group =>   1
Atom  32C    basis set group =>   1
Atom  33C    basis set group =>   1
Atom  34C    basis set group =>   1
Atom  35C    basis set group =>   1
Atom  36C    basis set group =>   1
Atom  37C    basis set group =>   1
Atom  38C    basis set group =>   1
Atom  39C    basis set group =>   1
Atom  40C    basis set group =>   1
Atom  41C    basis set group =>   1
Atom  42C    basis set group =>   1
Atom  43C    basis set group =>   1
Atom  44C    basis set group =>   1
Atom  45C    basis set group =>   1
Atom  46O    basis set group =>   3
Atom  47O    basis set group =>   3
Atom  48C    basis set group =>   1
Atom  49C    basis set group =>   1
Atom  50C    basis set group =>   1
Atom  51C    basis set group =>   1
Atom  52C    basis set group =>   1
Atom  53C    basis set group =>   1
Atom  54N    basis set group =>   4
Atom  55N    basis set group =>   4
Atom  56N    basis set group =>   4
Atom  57N    basis set group =>   4
Atom  58H    basis set group =>   5
Atom  59H    basis set group =>   5
Atom  60H    basis set group =>   5
Atom  61H    basis set group =>   5
Atom  62H    basis set group =>   5
Atom  63H    basis set group =>   5
Atom  64H    basis set group =>   5
Atom  65H    basis set group =>   5
Atom  66H    basis set group =>   5
Atom  67H    basis set group =>   5
Atom  68H    basis set group =>   5
Atom  69H    basis set group =>   5
Atom  70H    basis set group =>   5
Atom  71H    basis set group =>   5
Atom  72H    basis set group =>   5
Atom  73H    basis set group =>   5
Atom  74H    basis set group =>   5
Atom  75H    basis set group =>   5
Atom  76H    basis set group =>   5
Atom  77H    basis set group =>   5
Atom  78H    basis set group =>   5
Atom  79H    basis set group =>   5
Atom  80H    basis set group =>   5
Atom  81H    basis set group =>   5
Atom  82H    basis set group =>   5
Atom  83H    basis set group =>   5
Atom  84H    basis set group =>   5
Atom  85H    basis set group =>   5
Atom  86H    basis set group =>   5
Atom  87H    basis set group =>   5
Atom  88H    basis set group =>   5
Atom  89H    basis set group =>   5
Atom  90H    basis set group =>   5
Atom  91H    basis set group =>   5
---------------------------------
AUXILIARY/J BASIS SET INFORMATION
---------------------------------
There are 5 groups of distinct atoms

 Group   1 Type C   : 12s5p4d2f1g contracted to 6s4p3d1f1g pattern {711111/2111/211/2/1}
 Group   2 Type S   : 14s5p5d2f1g contracted to 8s4p3d1f1g pattern {71111111/2111/311/2/1}
 Group   3 Type O   : 12s5p4d2f1g contracted to 6s4p3d1f1g pattern {711111/2111/211/2/1}
 Group   4 Type N   : 12s5p4d2f1g contracted to 6s4p3d1f1g pattern {711111/2111/211/2/1}
 Group   5 Type H   : 5s2p1d contracted to 3s1p1d pattern {311/2/1}

Atom   0C    basis set group =>   1
Atom   1C    basis set group =>   1
Atom   2C    basis set group =>   1
Atom   3C    basis set group =>   1
Atom   4C    basis set group =>   1
Atom   5C    basis set group =>   1
Atom   6C    basis set group =>   1
Atom   7C    basis set group =>   1
Atom   8C    basis set group =>   1
Atom   9C    basis set group =>   1
Atom  10C    basis set group =>   1
Atom  11C    basis set group =>   1
Atom  12S    basis set group =>   2
Atom  13C    basis set group =>   1
Atom  14C    basis set group =>   1
Atom  15S    basis set group =>   2
Atom  16C    basis set group =>   1
Atom  17C    basis set group =>   1
Atom  18C    basis set group =>   1
Atom  19C    basis set group =>   1
Atom  20C    basis set group =>   1
Atom  21C    basis set group =>   1
Atom  22C    basis set group =>   1
Atom  23C    basis set group =>   1
Atom  24C    basis set group =>   1
Atom  25C    basis set group =>   1
Atom  26C    basis set group =>   1
Atom  27C    basis set group =>   1
Atom  28C    basis set group =>   1
Atom  29C    basis set group =>   1
Atom  30C    basis set group =>   1
Atom  31C    basis set group =>   1
Atom  32C    basis set group =>   1
Atom  33C    basis set group =>   1
Atom  34C    basis set group =>   1
Atom  35C    basis set group =>   1
Atom  36C    basis set group =>   1
Atom  37C    basis set group =>   1
Atom  38C    basis set group =>   1
Atom  39C    basis set group =>   1
Atom  40C    basis set group =>   1
Atom  41C    basis set group =>   1
Atom  42C    basis set group =>   1
Atom  43C    basis set group =>   1
Atom  44C    basis set group =>   1
Atom  45C    basis set group =>   1
Atom  46O    basis set group =>   3
Atom  47O    basis set group =>   3
Atom  48C    basis set group =>   1
Atom  49C    basis set group =>   1
Atom  50C    basis set group =>   1
Atom  51C    basis set group =>   1
Atom  52C    basis set group =>   1
Atom  53C    basis set group =>   1
Atom  54N    basis set group =>   4
Atom  55N    basis set group =>   4
Atom  56N    basis set group =>   4
Atom  57N    basis set group =>   4
Atom  58H    basis set group =>   5
Atom  59H    basis set group =>   5
Atom  60H    basis set group =>   5
Atom  61H    basis set group =>   5
Atom  62H    basis set group =>   5
Atom  63H    basis set group =>   5
Atom  64H    basis set group =>   5
Atom  65H    basis set group =>   5
Atom  66H    basis set group =>   5
Atom  67H    basis set group =>   5
Atom  68H    basis set group =>   5
Atom  69H    basis set group =>   5
Atom  70H    basis set group =>   5
Atom  71H    basis set group =>   5
Atom  72H    basis set group =>   5
Atom  73H    basis set group =>   5
Atom  74H    basis set group =>   5
Atom  75H    basis set group =>   5
Atom  76H    basis set group =>   5
Atom  77H    basis set group =>   5
Atom  78H    basis set group =>   5
Atom  79H    basis set group =>   5
Atom  80H    basis set group =>   5
Atom  81H    basis set group =>   5
Atom  82H    basis set group =>   5
Atom  83H    basis set group =>   5
Atom  84H    basis set group =>   5
Atom  85H    basis set group =>   5
Atom  86H    basis set group =>   5
Atom  87H    basis set group =>   5
Atom  88H    basis set group =>   5
Atom  89H    basis set group =>   5
Atom  90H    basis set group =>   5
Atom  91H    basis set group =>   5
------------------------------------------------------------------------------
                           ORCA GTO INTEGRAL CALCULATION
                           -- RI-GTO INTEGRALS CHOSEN --
------------------------------------------------------------------------------

                         BASIS SET STATISTICS AND STARTUP INFO

Gaussian basis set:
 # of primitive gaussian shells          ... 1378
 # of primitive gaussian functions       ... 2974
 # of contracted shells                  ...  778
 # of contracted basis functions         ... 2014
 Highest angular momentum                ...    3
 Maximum contraction depth               ...    7
Auxiliary gaussian basis set:
 # of primitive gaussian shells          ... 1670
 # of primitive gaussian functions       ... 4618
 # of contracted shells                  ... 1044
 # of contracted aux-basis functions     ... 3220
 Highest angular momentum                ...    4
 Maximum contraction depth               ...    7
Ratio of auxiliary to basis functions    ...  1.60
Integral package used                  ... LIBINT
 One Electron integrals                  ... done
 Ordering auxiliary basis shells         ... done
 Integral threshhold             Thresh  ...  2.500e-11
 Primitive cut-off               TCut    ...  2.500e-12
 Pre-screening matrix                    ... done
 Shell pair data                         ... 
 Ordering of the shell pairs             ... done (   0.027 sec) 117230 of 303031 pairs
 Determination of significant pairs      ... done (   0.001 sec)
 Creation of shell pair data             ... done (   0.015 sec)
 Storage of shell pair data              ... done (   0.020 sec)
 Shell pair data done in (   0.062 sec)
 Computing two index integrals           ... done
 Cholesky decomposition of the V-matrix  ... done


Timings:
 Total evaluation time                   ...   4.584 sec (  0.076 min)
 One electron matrix time                ...   1.601 sec (  0.027 min) = 34.9%
 Schwartz matrix evaluation time         ...   2.335 sec (  0.039 min) = 50.9%
 Two index repulsion integral time       ...   0.248 sec (  0.004 min) =  5.4%
 Cholesky decomposition of V             ...   0.321 sec (  0.005 min) =  7.0%
 Three index repulsion integral time     ...   0.000 sec (  0.000 min) =  0.0%

-------------------------------------------------------------------------------
                                 ORCA SCF
-------------------------------------------------------------------------------

------------
SCF SETTINGS
------------
Hamiltonian:
 Density Functional     Method          .... DFT(GTOs)
 Exchange Functional    Exchange        .... B88
   X-Alpha parameter    XAlpha          ....  0.666667
   Becke's b parameter  XBeta           ....  0.004200
 Correlation Functional Correlation     .... LYP
 LDA part of GGA corr.  LDAOpt          .... VWN-5
 Gradients option       PostSCFGGA      .... off
 Hybrid DFT is turned on
   Fraction HF Exchange ScalHFX         ....  0.200000
   Scaling of DF-GGA-X  ScalDFX         ....  0.720000
   Scaling of DF-GGA-C  ScalDFC         ....  0.810000
   Scaling of DF-LDA-C  ScalLDAC        ....  1.000000
   Perturbative correction              ....  0.000000
   Density functional embedding theory  .... OFF
   NL short-range parameter             ....  4.800000
 RI-approximation to the Coulomb term is turned on
   Number of auxiliary basis functions  .... 3220
   RIJ-COSX (HFX calculated with COS-X)).... on


General Settings:
 Integral files         IntName         .... IDIC
 Hartree-Fock type      HFTyp           .... RHF
 Total Charge           Charge          ....    0
 Multiplicity           Mult            ....    1
 Number of Electrons    NEL             ....  410
 Basis Dimension        Dim             .... 2014
 Nuclear Repulsion      ENuc            ....   7333.8670253290 Eh

Convergence Acceleration:
 DIIS                   CNVDIIS         .... on
   Start iteration      DIISMaxIt       ....    12
   Startup error        DIISStart       ....  0.200000
   # of expansion vecs  DIISMaxEq       ....     5
   Bias factor          DIISBfac        ....   1.050
   Max. coefficient     DIISMaxC        ....  10.000
 Newton-Raphson         CNVNR           .... off
 SOSCF                  CNVSOSCF        .... on
   Start iteration      SOSCFMaxIt      ....   150
   Startup grad/error   SOSCFStart      ....  0.003300
 Level Shifting         CNVShift        .... on
   Level shift para.    LevelShift      ....    0.2500
   Turn off err/grad.   ShiftErr        ....    0.0010
 Zerner damping         CNVZerner       .... off
 Static damping         CNVDamp         .... on
   Fraction old density DampFac         ....    0.7000
   Max. Damping (<1)    DampMax         ....    0.9800
   Min. Damping (>=0)   DampMin         ....    0.0000
   Turn off err/grad.   DampErr         ....    0.1000
 Fernandez-Rico         CNVRico         .... off

SCF Procedure:
 Maximum # iterations   MaxIter         ....   125
 SCF integral mode      SCFMode         .... Direct
   Integral package                     .... LIBINT
 Reset frequency        DirectResetFreq ....    20
 Integral Threshold     Thresh          ....  2.500e-11 Eh
 Primitive CutOff       TCut            ....  2.500e-12 Eh

Convergence Tolerance:
 Convergence Check Mode ConvCheckMode   .... Total+1el-Energy
 Convergence forced     ConvForced      .... 1
 Energy Change          TolE            ....  1.000e-08 Eh
 1-El. energy change                    ....  1.000e-05 Eh
 Orbital Gradient       TolG            ....  1.000e-05
 Orbital Rotation angle TolX            ....  1.000e-05
 DIIS Error             TolErr          ....  5.000e-07


Diagonalization of the overlap matrix:
Smallest eigenvalue                        ... 2.221e-06
Time for diagonalization                   ...    1.822 sec
Threshold for overlap eigenvalues          ... 1.000e-08
Number of eigenvalues below threshold      ... 0
Time for construction of square roots      ...    0.634 sec
Total time needed                          ...    2.467 sec

-------------------
DFT GRID GENERATION
-------------------

General Integration Accuracy     IntAcc      ...  4.670
Radial Grid Type                 RadialGrid  ... Gauss-Chebyshev
Angular Grid (max. acc.)         AngularGrid ... Lebedev-302
Angular grid pruning method      GridPruning ... 3 (G Style)
Weight generation scheme         WeightScheme... Becke
Basis function cutoff            BFCut       ...    1.0000e-11
Integration weight cutoff        WCut        ...    1.0000e-14
Grids for H and He will be reduced by one unit

# of grid points (after initial pruning)     ... 476960 (   0.8 sec)
# of grid points (after weights+screening)   ... 405134 (  11.6 sec)
nearest neighbour list constructed           ...    0.0 sec
Grid point re-assignment to atoms done       ...    0.1 sec
Grid point division into batches done        ...    1.4 sec
Reduced shell lists constructed in   13.5 sec

Total number of grid points                  ...   405134
Total number of batches                      ...     6380
Average number of points per batch           ...       63
Average number of grid points per atom       ...     4404
Average number of shells per batch           ...   164.38 (21.13%)
Average number of basis functions per batch  ...   405.47 (20.13%)
Average number of large shells per batch     ...   100.36 (61.05%)
Average number of large basis fcns per batch ...   251.55 (62.04%)
Maximum spatial batch extension              ...  19.94, 20.47, 25.09 au
Average spatial batch extension              ...   2.03,  2.07,  2.32 au

Time for grid setup =   25.938 sec

------------------------------
INITIAL GUESS: MODEL POTENTIAL
------------------------------
Loading Hartree-Fock densities                     ... done
Calculating cut-offs                               ... done
Setting up the integral package                    ... done
Initializing the effective Hamiltonian             ... done
Starting the Coulomb interaction                   ... done (  19.7 sec)
Reading the grid                                   ... done
Mapping shells                                     ... done
Starting the XC term evaluation                    ... done (  21.1 sec)
  promolecular density results
     # of electrons  =    409.982184737
     EX              =   -360.070643413
     EC              =    -14.215579268
     EX+EC           =   -374.286222681
Transforming the Hamiltonian                       ... done (   0.6 sec)
Diagonalizing the Hamiltonian                      ... done (   1.8 sec)
Back transforming the eigenvectors                 ... done (   0.3 sec)
Now organizing SCF variables                       ... done
                      ------------------
                      INITIAL GUESS DONE (  69.9 sec)
                      ------------------
--------------------
COSX GRID GENERATION
--------------------

General Integration Accuracy     IntAcc      ...  3.340
Radial Grid Type                 RadialGrid  ... Gauss-Chebyshev
Angular Grid (max. acc.)         AngularGrid ... Lebedev-50
Angular grid pruning method      GridPruning ... 3 (G Style)
Weight generation scheme         WeightScheme... Becke
Basis function cutoff            BFCut       ...    1.0000e-11
Integration weight cutoff        WCut        ...    1.0000e-14
Grids for H and He will be reduced by one unit

# of grid points (after initial pruning)     ...  44716 (   0.0 sec)
# of grid points (after weights+screening)   ...  39660 (   1.1 sec)
nearest neighbour list constructed           ...    0.0 sec
Grid point re-assignment to atoms done       ...    0.0 sec
Grid point division into batches done        ...    0.0 sec
Reduced shell lists constructed in    1.5 sec

Total number of grid points                  ...    39660
Total number of batches                      ...      665
Average number of points per batch           ...       59
Average number of grid points per atom       ...      431
Average number of shells per batch           ...   198.68 (25.54%)
Average number of basis functions per batch  ...   496.11 (24.63%)
Average number of large shells per batch     ...   122.91 (61.86%)
Average number of large basis fcns per batch ...   313.34 (63.16%)
Maximum spatial batch extension              ...  21.09, 17.97, 35.81 au
Average spatial batch extension              ...   3.75,  3.90,  5.63 au

Overlap Fitting                  UseSFitting ... on
Constructing numerical overlap ... done (      1.7 sec)
Inverting numerical overlap    ... done (      0.2 sec)
Obtaining analytic overlap     ... done (      0.0 sec)
Final contraction and storage  ... done (      0.3 sec)


General Integration Accuracy     IntAcc      ...  3.670
Radial Grid Type                 RadialGrid  ... Gauss-Chebyshev
Angular Grid (max. acc.)         AngularGrid ... Lebedev-50
Angular grid pruning method      GridPruning ... 3 (G Style)
Weight generation scheme         WeightScheme... Becke
Basis function cutoff            BFCut       ...    1.0000e-11
Integration weight cutoff        WCut        ...    1.0000e-14
Grids for H and He will be reduced by one unit

# of grid points (after initial pruning)     ...  56148 (   0.1 sec)
# of grid points (after weights+screening)   ...  49535 (   1.3 sec)
nearest neighbour list constructed           ...    0.0 sec
Grid point re-assignment to atoms done       ...    0.0 sec
Grid point division into batches done        ...    0.0 sec
Reduced shell lists constructed in    1.9 sec

Total number of grid points                  ...    49535
Total number of batches                      ...      819
Average number of points per batch           ...       60
Average number of grid points per atom       ...      538
Average number of shells per batch           ...   194.00 (24.94%)
Average number of basis functions per batch  ...   483.56 (24.01%)
Average number of large shells per batch     ...   119.21 (61.45%)
Average number of large basis fcns per batch ...   303.03 (62.67%)
Maximum spatial batch extension              ...  23.04, 18.38, 39.19 au
Average spatial batch extension              ...   3.51,  3.65,  5.08 au

Overlap Fitting                  UseSFitting ... on
Constructing numerical overlap ... done (      2.0 sec)
Inverting numerical overlap    ... done (      0.2 sec)
Obtaining analytic overlap     ... done (      0.0 sec)
Final contraction and storage  ... done (      0.3 sec)


General Integration Accuracy     IntAcc      ...  4.010
Radial Grid Type                 RadialGrid  ... Gauss-Chebyshev
Angular Grid (max. acc.)         AngularGrid ... Lebedev-110
Angular grid pruning method      GridPruning ... 3 (G Style)
Weight generation scheme         WeightScheme... Becke
Basis function cutoff            BFCut       ...    1.0000e-11
Integration weight cutoff        WCut        ...    1.0000e-14
Grids for H and He will be reduced by one unit

# of grid points (after initial pruning)     ... 108092 (   0.1 sec)
# of grid points (after weights+screening)   ...  94710 (   2.6 sec)
nearest neighbour list constructed           ...    0.0 sec
Grid point re-assignment to atoms done       ...    0.0 sec
Grid point division into batches done        ...    0.1 sec
Reduced shell lists constructed in    3.1 sec

Total number of grid points                  ...    94710
Total number of batches                      ...     1534
Average number of points per batch           ...       61
Average number of grid points per atom       ...     1029
Average number of shells per batch           ...   184.66 (23.74%)
Average number of basis functions per batch  ...   459.87 (22.83%)
Average number of large shells per batch     ...   113.95 (61.71%)
Average number of large basis fcns per batch ...   288.97 (62.84%)
Maximum spatial batch extension              ...  25.84, 19.78, 40.42 au
Average spatial batch extension              ...   3.03,  3.19,  4.06 au

Overlap Fitting                  UseSFitting ... on
Constructing numerical overlap ... done (      3.2 sec)
Inverting numerical overlap    ... done (      0.2 sec)
Obtaining analytic overlap     ... done (      0.0 sec)
Final contraction and storage  ... done (      0.3 sec)

Time for X-Grid setup             =   20.234 sec
--------------
SCF ITERATIONS
--------------
ITER       Energy         Delta-E        Max-DP      RMS-DP      [F,P]     Damp
               ***  Starting incremental Fock matrix formation  ***
  0  -3089.2993524704   0.000000000000 0.14495584  0.00103749  0.2856560 0.7000
  1  -3090.0701765481  -0.770824077697 0.13729190  0.00084134  0.1075503 0.7000
                               ***Turning on DIIS***
  2  -3090.3403071506  -0.270130602504 0.27599546  0.00125004  0.0458667 0.0000
  3  -3090.8112083891  -0.470901238472 0.14838308  0.00074116  0.0565385 0.0000
  4  -3090.8987097085  -0.087501319418 0.03673224  0.00021841  0.0349201 0.0000
  5  -3090.9115482372  -0.012838528705 0.02234418  0.00011553  0.0074900 0.0000
                      *** Initiating the SOSCF procedure ***
                           *** Shutting down DIIS ***
                      *** Re-Reading the Fockian *** 
                      *** Removing any level shift *** 
ITER      Energy       Delta-E        Grad      Rot      Max-DP    RMS-DP
  6  -3090.91229761  -0.0007493714  0.000637  0.000637  0.005875  0.000036
               *** Restarting incremental Fock matrix formation ***
  7  -3090.91237802  -0.0000804137  0.000385  0.003028  0.009195  0.000079
  8  -3090.91237313   0.0000048921  0.000457  0.002570  0.002855  0.000025
  9  -3090.91239495  -0.0000218236  0.000245  0.002055  0.003167  0.000027
 10  -3090.91239219   0.0000027623  0.000229  0.000685  0.000718  0.000003
 11  -3090.91239786  -0.0000056704  0.000064  0.000448  0.001017  0.000008
 12  -3090.91239686   0.0000010040  0.000113  0.000244  0.001110  0.000003
 13  -3090.91239823  -0.0000013715  0.000018  0.000065  0.001003  0.000003
 14  -3090.91239823   0.0000000007  0.000029  0.000045  0.000345  0.000001
 15  -3090.91239832  -0.0000000887  0.000005  0.000033  0.000837  0.000002
 16  -3090.91239826   0.0000000605  0.000007  0.000015  0.000491  0.000001
                  ***Gradient check signals convergence***
              ***Rediagonalizing the Fockian in SOSCF/NRSCF***

               *****************************************************
               *                     SUCCESS                       *
               *           SCF CONVERGED AFTER  17 CYCLES          *
               *****************************************************

Setting up the final grid:

General Integration Accuracy     IntAcc      ...  5.010
Radial Grid Type                 RadialGrid  ... Gauss-Chebyshev
Angular Grid (max. acc.)         AngularGrid ... Lebedev-434
Angular grid pruning method      GridPruning ... 3 (G Style)
Weight generation scheme         WeightScheme... Becke
Basis function cutoff            BFCut       ...    1.0000e-11
Integration weight cutoff        WCut        ...    1.0000e-14
Grids for H and He will be reduced by one unit

# of grid points (after initial pruning)     ... 849952 (   1.2 sec)
# of grid points (after weights+screening)   ... 719545 (  20.2 sec)
nearest neighbour list constructed           ...    0.0 sec
Grid point re-assignment to atoms done       ...    0.1 sec
Grid point division into batches done        ...    4.5 sec
Reduced shell lists constructed in   21.8 sec

Total number of grid points                  ...   719545
Total number of batches                      ...    11289
Average number of points per batch           ...       63
Average number of grid points per atom       ...     7821
Average number of shells per batch           ...   158.84 (20.42%)
Average number of basis functions per batch  ...   390.11 (19.37%)
Average number of large shells per batch     ...    96.67 (60.86%)
Average number of large basis fcns per batch ...   241.43 (61.89%)
Maximum spatial batch extension              ...  21.48, 21.93, 24.30 au
Average spatial batch extension              ...   1.67,  1.70,  1.87 au

Final grid set up in   43.4 sec
Final integration                            ... done (  42.0 sec)
Change in XC energy                          ...    -0.000104399
Integrated number of electrons               ...   409.999904222
Previous integrated no of electrons          ...   409.999207704
Old exchange energy                            =    -72.947388345 Eh
New exchange energy                            =    -72.947957193 Eh
Exchange energy change after final integration =     -0.000568848 Eh
Total energy after final integration           =  -3090.913071549 Eh
Final COS-X integration done in                =  1125.975 sec

----------------
TOTAL SCF ENERGY
----------------

Total Energy       :        -3090.91307155 Eh          -84108.02065 eV

Components:
Nuclear Repulsion  :         7333.86702533 Eh          199564.66743 eV
Electronic Energy  :       -10424.78009688 Eh         -283672.68808 eV
One Electron Energy:       -18810.62761949 Eh         -511863.20015 eV
Two Electron Energy:         8385.84752262 Eh          228190.51207 eV

Virial components:
Potential Energy   :        -6171.59674656 Eh         -167937.68526 eV
Kinetic Energy     :         3080.68367501 Eh           83829.66461 eV
Virial Ratio       :            2.00332050


DFT components:
N(Alpha)           :      204.999952110885 electrons
N(Beta)            :      204.999952110885 electrons
N(Total)           :      409.999904221771 electrons
E(X)               :     -289.875234620305 Eh       
E(C)               :      -16.727142440338 Eh       
E(XC)              :     -306.602377060643 Eh       
DFET-embed. en.    :        0.000000000000 Eh       

---------------
SCF CONVERGENCE
---------------

  Last Energy change         ...   -4.5081e-08  Tolerance :   1.0000e-08
  Last MAX-Density change    ...    4.3299e-15  Tolerance :   1.0000e-07
  Last RMS-Density change    ...    1.1917e-17  Tolerance :   5.0000e-09
  Last Orbital Gradient      ...    9.5389e-07  Tolerance :   1.0000e-05
  Last Orbital Rotation      ...    8.6504e-06  Tolerance :   1.0000e-05

             **** THE GBW FILE WAS UPDATED (IDIC.gbw) ****
             **** DENSITY FILE WAS UPDATED (IDIC.scfp) ****
             **** ENERGY FILE WAS UPDATED (IDIC.en.tmp) ****
             **** THE GBW FILE WAS UPDATED (IDIC.gbw) ****
             **** DENSITY FILE WAS UPDATED (IDIC.scfp) ****
----------------
ORBITAL ENERGIES
----------------

  NO   OCC          E(Eh)            E(eV) 
   0   2.0000     -88.911703     -2419.4104 
   1   2.0000     -88.911665     -2419.4094 
   2   2.0000     -19.130786      -520.5752 
   3   2.0000     -19.130533      -520.5683 
   4   2.0000     -14.327062      -389.8592 
   5   2.0000     -14.326972      -389.8567 
   6   2.0000     -14.322538      -389.7361 
   7   2.0000     -14.322456      -389.7338 
   8   2.0000     -10.275911      -279.6217 
   9   2.0000     -10.275638      -279.6143 
  10   2.0000     -10.252025      -278.9718 
  11   2.0000     -10.252008      -278.9713 
  12   2.0000     -10.249657      -278.9074 
  13   2.0000     -10.249590      -278.9055 
  14   2.0000     -10.235820      -278.5308 
  15   2.0000     -10.235398      -278.5193 
  16   2.0000     -10.233464      -278.4667 
  17   2.0000     -10.232891      -278.4511 
  18   2.0000     -10.228487      -278.3313 
  19   2.0000     -10.228316      -278.3266 
  20   2.0000     -10.226027      -278.2643 
  21   2.0000     -10.225950      -278.2622 
  22   2.0000     -10.221659      -278.1455 
  23   2.0000     -10.221599      -278.1439 
  24   2.0000     -10.216990      -278.0184 
  25   2.0000     -10.216890      -278.0157 
  26   2.0000     -10.216218      -277.9974 
  27   2.0000     -10.216142      -277.9954 
  28   2.0000     -10.215531      -277.9787 
  29   2.0000     -10.214056      -277.9386 
  30   2.0000     -10.212138      -277.8864 
  31   2.0000     -10.212003      -277.8827 
  32   2.0000     -10.209467      -277.8137 
  33   2.0000     -10.209105      -277.8039 
  34   2.0000     -10.204883      -277.6890 
  35   2.0000     -10.204773      -277.6860 
  36   2.0000     -10.204187      -277.6700 
  37   2.0000     -10.204060      -277.6666 
  38   2.0000     -10.203739      -277.6578 
  39   2.0000     -10.203577      -277.6534 
  40   2.0000     -10.203342      -277.6470 
  41   2.0000     -10.203215      -277.6436 
  42   2.0000     -10.203086      -277.6401 
  43   2.0000     -10.202874      -277.6343 
  44   2.0000     -10.202706      -277.6297 
  45   2.0000     -10.202588      -277.6265 
  46   2.0000     -10.202508      -277.6243 
  47   2.0000     -10.201288      -277.5911 
  48   2.0000     -10.200784      -277.5774 
  49   2.0000     -10.200134      -277.5598 
  50   2.0000     -10.188470      -277.2424 
  51   2.0000     -10.188168      -277.2341 
  52   2.0000     -10.187879      -277.2263 
  53   2.0000     -10.187193      -277.2076 
  54   2.0000     -10.172772      -276.8152 
  55   2.0000     -10.171222      -276.7730 
  56   2.0000     -10.169044      -276.7138 
  57   2.0000     -10.167742      -276.6783 
  58   2.0000      -7.987987      -217.3642 
  59   2.0000      -7.987882      -217.3613 
  60   2.0000      -5.950245      -161.9144 
  61   2.0000      -5.950151      -161.9119 
  62   2.0000      -5.946685      -161.8175 
  63   2.0000      -5.946566      -161.8143 
  64   2.0000      -5.944874      -161.7682 
  65   2.0000      -5.944787      -161.7659 
  66   2.0000      -1.061024       -28.8719 
  67   2.0000      -1.060863       -28.8675 
  68   2.0000      -0.943889       -25.6845 
  69   2.0000      -0.940942       -25.6043 
  70   2.0000      -0.940633       -25.5959 
  71   2.0000      -0.933156       -25.3925 
  72   2.0000      -0.920923       -25.0596 
  73   2.0000      -0.920876       -25.0583 
  74   2.0000      -0.916216       -24.9315 
  75   2.0000      -0.915971       -24.9248 
  76   2.0000      -0.895838       -24.3770 
  77   2.0000      -0.877320       -23.8731 
  78   2.0000      -0.868422       -23.6310 
  79   2.0000      -0.865599       -23.5541 
  80   2.0000      -0.842316       -22.9206 
  81   2.0000      -0.829899       -22.5827 
  82   2.0000      -0.825122       -22.4527 
  83   2.0000      -0.819628       -22.3032 
  84   2.0000      -0.810259       -22.0483 
  85   2.0000      -0.795689       -21.6518 
  86   2.0000      -0.783018       -21.3070 
  87   2.0000      -0.782738       -21.2994 
  88   2.0000      -0.778823       -21.1929 
  89   2.0000      -0.773809       -21.0564 
  90   2.0000      -0.771846       -21.0030 
  91   2.0000      -0.769621       -20.9424 
  92   2.0000      -0.767033       -20.8720 
  93   2.0000      -0.762443       -20.7471 
  94   2.0000      -0.735196       -20.0057 
  95   2.0000      -0.723972       -19.7003 
  96   2.0000      -0.703854       -19.1528 
  97   2.0000      -0.696832       -18.9618 
  98   2.0000      -0.693188       -18.8626 
  99   2.0000      -0.692209       -18.8360 
 100   2.0000      -0.680335       -18.5128 
 101   2.0000      -0.657404       -17.8889 
 102   2.0000      -0.646299       -17.5867 
 103   2.0000      -0.637095       -17.3362 
 104   2.0000      -0.634941       -17.2776 
 105   2.0000      -0.631127       -17.1738 
 106   2.0000      -0.621619       -16.9151 
 107   2.0000      -0.620861       -16.8945 
 108   2.0000      -0.616192       -16.7674 
 109   2.0000      -0.609104       -16.5745 
 110   2.0000      -0.604430       -16.4474 
 111   2.0000      -0.594960       -16.1897 
 112   2.0000      -0.583432       -15.8760 
 113   2.0000      -0.578662       -15.7462 
 114   2.0000      -0.576610       -15.6903 
 115   2.0000      -0.566635       -15.4189 
 116   2.0000      -0.557093       -15.1593 
 117   2.0000      -0.544743       -14.8232 
 118   2.0000      -0.541709       -14.7406 
 119   2.0000      -0.541354       -14.7310 
 120   2.0000      -0.539569       -14.6824 
 121   2.0000      -0.530438       -14.4340 
 122   2.0000      -0.510202       -13.8833 
 123   2.0000      -0.507332       -13.8052 
 124   2.0000      -0.506239       -13.7755 
 125   2.0000      -0.497190       -13.5292 
 126   2.0000      -0.493947       -13.4410 
 127   2.0000      -0.486634       -13.2420 
 128   2.0000      -0.484335       -13.1794 
 129   2.0000      -0.482216       -13.1218 
 130   2.0000      -0.478947       -13.0328 
 131   2.0000      -0.473736       -12.8910 
 132   2.0000      -0.472518       -12.8579 
 133   2.0000      -0.469007       -12.7623 
 134   2.0000      -0.465849       -12.6764 
 135   2.0000      -0.464517       -12.6402 
 136   2.0000      -0.462754       -12.5922 
 137   2.0000      -0.461448       -12.5566 
 138   2.0000      -0.461294       -12.5524 
 139   2.0000      -0.458554       -12.4779 
 140   2.0000      -0.457271       -12.4430 
 141   2.0000      -0.451960       -12.2984 
 142   2.0000      -0.450140       -12.2489 
 143   2.0000      -0.447258       -12.1705 
 144   2.0000      -0.438285       -11.9263 
 145   2.0000      -0.434080       -11.8119 
 146   2.0000      -0.431424       -11.7396 
 147   2.0000      -0.430101       -11.7036 
 148   2.0000      -0.427013       -11.6196 
 149   2.0000      -0.425266       -11.5721 
 150   2.0000      -0.423330       -11.5194 
 151   2.0000      -0.423177       -11.5152 
 152   2.0000      -0.420619       -11.4456 
 153   2.0000      -0.415927       -11.3179 
 154   2.0000      -0.410919       -11.1817 
 155   2.0000      -0.404979       -11.0200 
 156   2.0000      -0.402072       -10.9409 
 157   2.0000      -0.399381       -10.8677 
 158   2.0000      -0.393169       -10.6987 
 159   2.0000      -0.392369       -10.6769 
 160   2.0000      -0.391279       -10.6472 
 161   2.0000      -0.390946       -10.6382 
 162   2.0000      -0.390563       -10.6278 
 163   2.0000      -0.387695       -10.5497 
 164   2.0000      -0.386290       -10.5115 
 165   2.0000      -0.384541       -10.4639 
 166   2.0000      -0.383085       -10.4243 
 167   2.0000      -0.382931       -10.4201 
 168   2.0000      -0.382144       -10.3987 
 169   2.0000      -0.381303       -10.3758 
 170   2.0000      -0.380161       -10.3447 
 171   2.0000      -0.377062       -10.2604 
 172   2.0000      -0.375597       -10.2205 
 173   2.0000      -0.374905       -10.2017 
 174   2.0000      -0.374314       -10.1856 
 175   2.0000      -0.367334        -9.9957 
 176   2.0000      -0.364881        -9.9289 
 177   2.0000      -0.360540        -9.8108 
 178   2.0000      -0.359262        -9.7760 
 179   2.0000      -0.358876        -9.7655 
 180   2.0000      -0.355225        -9.6662 
 181   2.0000      -0.355052        -9.6615 
 182   2.0000      -0.353120        -9.6089 
 183   2.0000      -0.352023        -9.5790 
 184   2.0000      -0.347354        -9.4520 
 185   2.0000      -0.344738        -9.3808 
 186   2.0000      -0.341050        -9.2804 
 187   2.0000      -0.339983        -9.2514 
 188   2.0000      -0.339034        -9.2256 
 189   2.0000      -0.337575        -9.1859 
 190   2.0000      -0.334624        -9.1056 
 191   2.0000      -0.331671        -9.0252 
 192   2.0000      -0.315025        -8.5723 
 193   2.0000      -0.292247        -7.9524 
 194   2.0000      -0.287863        -7.8331 
 195   2.0000      -0.287064        -7.8114 
 196   2.0000      -0.283223        -7.7069 
 197   2.0000      -0.280380        -7.6295 
 198   2.0000      -0.276834        -7.5330 
 199   2.0000      -0.274483        -7.4691 
 200   2.0000      -0.274342        -7.4652 
 201   2.0000      -0.268064        -7.2944 
 202   2.0000      -0.262968        -7.1557 
 203   2.0000      -0.243177        -6.6172 
 204   2.0000      -0.215814        -5.8726 
 205   0.0000      -0.134835        -3.6690 
 206   0.0000      -0.118401        -3.2219 
 207   0.0000      -0.105887        -2.8813 
 208   0.0000      -0.101706        -2.7676 
 209   0.0000      -0.065812        -1.7908 
 210   0.0000      -0.046205        -1.2573 
 211   0.0000      -0.043526        -1.1844 
 212   0.0000      -0.028155        -0.7661 
 213   0.0000      -0.018318        -0.4985 
 214   0.0000      -0.017518        -0.4767 
 215   0.0000      -0.014591        -0.3970 
 216   0.0000      -0.012657        -0.3444 
 217   0.0000      -0.012496        -0.3400 
 218   0.0000      -0.000549        -0.0149 
 219   0.0000       0.000303         0.0082 
 220   0.0000       0.012103         0.3293 
 221   0.0000       0.015923         0.4333 
 222   0.0000       0.023013         0.6262 
 223   0.0000       0.027427         0.7463 
 224   0.0000       0.033817         0.9202 
 225   0.0000       0.036292         0.9875 
 226   0.0000       0.036785         1.0010 
 227   0.0000       0.037361         1.0166 
 228   0.0000       0.040268         1.0958 
 229   0.0000       0.041906         1.1403 
 230   0.0000       0.043178         1.1749 
 231   0.0000       0.047523         1.2932 
 232   0.0000       0.049863         1.3568 
 233   0.0000       0.050778         1.3817 
 234   0.0000       0.052090         1.4175 
 235   0.0000       0.054009         1.4697 
 236   0.0000       0.055043         1.4978 
 237   0.0000       0.057867         1.5746 
 238   0.0000       0.061503         1.6736 
 239   0.0000       0.069292         1.8855 
 240   0.0000       0.071942         1.9576 
 241   0.0000       0.073707         2.0057 
 242   0.0000       0.077631         2.1124 
 243   0.0000       0.079174         2.1544 
 244   0.0000       0.081609         2.2207 
 245   0.0000       0.083057         2.2601 
 246   0.0000       0.084315         2.2943 
 247   0.0000       0.085861         2.3364 
 248   0.0000       0.088206         2.4002 
 249   0.0000       0.088959         2.4207 
 250   0.0000       0.090802         2.4709 
 251   0.0000       0.093565         2.5460 
 252   0.0000       0.097399         2.6504 
 253   0.0000       0.098040         2.6678 
 254   0.0000       0.099103         2.6967 
 255   0.0000       0.100057         2.7227 
 256   0.0000       0.101274         2.7558 
 257   0.0000       0.105207         2.8628 
 258   0.0000       0.108883         2.9629 
 259   0.0000       0.111266         3.0277 
 260   0.0000       0.113566         3.0903 
 261   0.0000       0.117815         3.2059 
 262   0.0000       0.121551         3.3076 
 263   0.0000       0.124831         3.3968 
 264   0.0000       0.127175         3.4606 
 265   0.0000       0.129055         3.5118 
 266   0.0000       0.130600         3.5538 
 267   0.0000       0.131636         3.5820 
 268   0.0000       0.135254         3.6804 
 269   0.0000       0.137152         3.7321 
 270   0.0000       0.137700         3.7470 
 271   0.0000       0.139006         3.7825 
 272   0.0000       0.139818         3.8046 
 273   0.0000       0.142474         3.8769 
 274   0.0000       0.144947         3.9442 
 275   0.0000       0.146115         3.9760 
 276   0.0000       0.146937         3.9984 
 277   0.0000       0.147441         4.0121 
 278   0.0000       0.149036         4.0555 
 279   0.0000       0.149825         4.0770 
 280   0.0000       0.152203         4.1417 
 281   0.0000       0.153799         4.1851 
 282   0.0000       0.156403         4.2559 
 283   0.0000       0.158634         4.3167 
 284   0.0000       0.164204         4.4682 
 285   0.0000       0.165885         4.5140 
 286   0.0000       0.167172         4.5490 
 287   0.0000       0.169745         4.6190 
 288   0.0000       0.171554         4.6682 
 289   0.0000       0.176351         4.7988 
 290   0.0000       0.176961         4.8153 
 291   0.0000       0.178974         4.8701 
 292   0.0000       0.180464         4.9107 
 293   0.0000       0.181883         4.9493 
 294   0.0000       0.184192         5.0121 
 295   0.0000       0.187183         5.0935 
 296   0.0000       0.187965         5.1148 
 297   0.0000       0.188611         5.1324 
 298   0.0000       0.191472         5.2102 
 299   0.0000       0.191781         5.2186 
 300   0.0000       0.192693         5.2435 
 301   0.0000       0.194394         5.2897 
 302   0.0000       0.194790         5.3005 
 303   0.0000       0.197702         5.3797 
 304   0.0000       0.198411         5.3990 
 305   0.0000       0.200099         5.4450 
 306   0.0000       0.200863         5.4658 
 307   0.0000       0.203618         5.5407 
 308   0.0000       0.205690         5.5971 
 309   0.0000       0.206566         5.6210 
 310   0.0000       0.208552         5.6750 
 311   0.0000       0.210229         5.7206 
 312   0.0000       0.211512         5.7555 
 313   0.0000       0.215270         5.8578 
 314   0.0000       0.215985         5.8773 
 315   0.0000       0.216617         5.8944 
 316   0.0000       0.219239         5.9658 
 317   0.0000       0.221796         6.0354 
 318   0.0000       0.223102         6.0709 
 319   0.0000       0.224085         6.0977 
 320   0.0000       0.226949         6.1756 
 321   0.0000       0.228543         6.2190 
 322   0.0000       0.231720         6.3054 
 323   0.0000       0.232766         6.3339 
 324   0.0000       0.234447         6.3796 
 325   0.0000       0.235434         6.4065 
 326   0.0000       0.237868         6.4727 
 327   0.0000       0.238678         6.4948 
 328   0.0000       0.239994         6.5306 
 329   0.0000       0.242771         6.6061 
 330   0.0000       0.243741         6.6325 
 331   0.0000       0.245143         6.6707 
 332   0.0000       0.246970         6.7204 
 333   0.0000       0.250395         6.8136 
 334   0.0000       0.252015         6.8577 
 335   0.0000       0.253413         6.8957 
 336   0.0000       0.254740         6.9318 
 337   0.0000       0.258099         7.0232 
 338   0.0000       0.261873         7.1259 
 339   0.0000       0.262464         7.1420 
 340   0.0000       0.263912         7.1814 
 341   0.0000       0.264837         7.2066 
 342   0.0000       0.268940         7.3182 
 343   0.0000       0.269405         7.3309 
 344   0.0000       0.270215         7.3529 
 345   0.0000       0.271718         7.3938 
 346   0.0000       0.273140         7.4325 
 347   0.0000       0.275840         7.5060 
 348   0.0000       0.276225         7.5165 
 349   0.0000       0.281652         7.6641 
 350   0.0000       0.285786         7.7766 
 351   0.0000       0.287212         7.8154 
 352   0.0000       0.290866         7.9149 
 353   0.0000       0.291446         7.9307 
 354   0.0000       0.293187         7.9780 
 355   0.0000       0.294387         8.0107 
 356   0.0000       0.295790         8.0488 
 357   0.0000       0.297212         8.0876 
 358   0.0000       0.299089         8.1386 
 359   0.0000       0.299842         8.1591 
 360   0.0000       0.302181         8.2228 
 361   0.0000       0.305856         8.3228 
 362   0.0000       0.307301         8.3621 
[...]
   Time for K (COSX):  1729.978
   Time for XC-Integration:    22.423
   Time for Sigma-Completion:    83.936
   Size of expansion space: 9
   Lowest Energy          :     0.051445539178
   Maximum Energy change  :     0.000192232351 (vector 2)
   Maximum residual norm  :     0.000022210572

                       ****Iteration    9****
   Time for densities:     3.144
   Time for K (COSX):  1558.939
   Time for XC-Integration:    23.416
   Time for Sigma-Completion:    80.212
   Size of expansion space: 12
   Lowest Energy          :     0.051445539178
   Maximum Energy change  :     0.000132688328 (vector 2)
   Maximum residual norm  :     0.000005975127

                       ****Iteration   10****
   Time for densities:     2.043
   Time for K (COSX):  1259.442
   Time for XC-Integration:    15.689
   Time for Sigma-Completion:    53.847
   Size of expansion space: 14
   Lowest Energy          :     0.051445539178
   Maximum Energy change  :     0.000049251955 (vector 2)
   Maximum residual norm  :     0.000006247753
   Rebuilding the expansion space

                       ****Iteration   11****
   Time for densities:     5.107
   Time for K (COSX):  1421.640
   Time for XC-Integration:    35.328
   Time for Sigma-Completion:   134.480
   Size of expansion space: 5
   Lowest Energy          :     0.051445539218
   Maximum Energy change  :     0.000019417452 (vector 2)
   Maximum residual norm  :     0.000001825025

                       ****Iteration   12****
   Time for densities:     2.043
   Time for K (COSX):  1481.265
   Time for XC-Integration:    16.649
   Time for Sigma-Completion:    53.855
   Size of expansion space: 7
   Lowest Energy          :     0.051445539218
   Maximum Energy change  :     0.000009564714 (vector 2)
   Maximum residual norm  :     0.000001333909

                       ****Iteration   13****
   Time for densities:     2.056
   Time for K (COSX):  1539.789
   Time for XC-Integration:    16.570
   Time for Sigma-Completion:    53.848
   Size of expansion space: 9
   Lowest Energy          :     0.051445539218
   Maximum Energy change  :     0.000002848790 (vector 2)
   Maximum residual norm  :     0.000000695061

                       ****Iteration   14****
   Time for densities:     2.054
   Time for K (COSX):  1594.381
   Time for XC-Integration:    16.171
   Time for Sigma-Completion:    53.896
   Size of expansion space: 11
   Lowest Energy          :     0.051445539218
   Maximum Energy change  :     0.000002990713 (vector 2)
   Maximum residual norm  :     0.000000528163

                       ****Iteration   15****
   Time for densities:     2.040
   Time for K (COSX):  1611.042
   Time for XC-Integration:    15.796
   Time for Sigma-Completion:    53.827
   Size of expansion space: 13
   Lowest Energy          :     0.051445539218
   Maximum Energy change  :     0.000003619481 (vector 2)
   Maximum residual norm  :     0.000000205342

      *** CONVERGENCE OF RESIDUAL NORM REACHED ***

Storing the converged CI vectors               ... IDIC.cis3

                 *** DAVIDSON DONE ***

------------------------------------
TD-DFT/TDA EXCITED STATES (TRIPLETS)
------------------------------------

the weight of the individual excitations are printed if larger than 1.0e-02

STATE  1:  E=   0.051446 au      1.400 eV    11291.0 cm**-1
   203a -> 206a  :     0.048655 (c= -0.22057796)
   204a -> 205a  :     0.916385 (c= -0.95727978)

STATE  2:  E=   0.064784 au      1.763 eV    14218.5 cm**-1
   202a -> 206a  :     0.011934 (c=  0.10924334)
   203a -> 205a  :     0.355726 (c= -0.59642767)
   204a -> 206a  :     0.569845 (c= -0.75488054)
   204a -> 208a  :     0.032042 (c=  0.17900315)

STATE  3:  E=   0.082317 au      2.240 eV    18066.5 cm**-1
   201a -> 206a  :     0.034222 (c= -0.18499267)
   202a -> 205a  :     0.123980 (c=  0.35210830)
   202a -> 207a  :     0.035972 (c= -0.18966203)
   203a -> 206a  :     0.170738 (c= -0.41320499)
   203a -> 208a  :     0.053670 (c= -0.23166796)
   204a -> 207a  :     0.539201 (c=  0.73430339)

------------------------------
TD-DFT/TDA SPIN-ORBIT COUPLING
------------------------------

Calculating the spin-orbit integrals:             

Loading the effective charges         ... done
Entering the SOC calc. section        ... 
------------------------------------------------------------------------------
                         ORCA SPIN-ORBIT COUPLING CALCULATION
------------------------------------------------------------------------------

GBW file                                    ... IDIC.gbw
Input density                               ... IDIC.cisp0
Output integrals                            ... IDIC.cis
Operator type                               ... Mean-field/Effective potential
   One-Electron Terms                       ... 1
   Coulomb Contribution                     ... 2
   Exchange Contribution                    ... 3
   Correlation Contribution                 ... 0
   Maximum number of centers                ... 4
Setting up the integration grid             ... done
Evaluating density on the grid              ... (NumEl=  409.999208) done
Evaluating Coulomb term semi-analytically   ... done
One-Center Exchange (+SOO)                  ... done
Evaluating the spin-orbit operator          ... done
Transforming the SOC integrals              ... done
Constructing the SOC matrix:                ... done
Diagonalizing the SOC matrix:               ... done

      --------------------------------------------------------------------------------
                      CALCULATED SOCME BETWEEN TRIPLETS AND SINGLETS                  
      --------------------------------------------------------------------------------
           Root                          <T|HSO|S>  (Re, Im) cm-1                     
         T      S             Z                     X                     Y           
      --------------------------------------------------------------------------------
         1      0    (   0.00 ,    0.03 )    (   0.00 ,   -0.16 )    (  -0.00 ,   -0.21 )
         1      1    (   0.00 ,   -0.00 )    (   0.00 ,    0.05 )    (  -0.00 ,   -0.07 )
         1      2    (   0.00 ,   -0.02 )    (   0.00 ,    0.13 )    (  -0.00 ,    0.19 )
         1      3    (   0.00 ,   -0.02 )    (   0.00 ,    0.07 )    (  -0.00 ,   -0.36 )
         2      0    (   0.00 ,    0.10 )    (   0.00 ,   -0.09 )    (  -0.00 ,    0.21 )
         2      1    (   0.00 ,   -0.01 )    (   0.00 ,    0.08 )    (  -0.00 ,    0.07 )
         2      2    (   0.00 ,    0.00 )    (   0.00 ,    0.00 )    (  -0.00 ,   -0.14 )
         2      3    (   0.00 ,    0.00 )    (   0.00 ,    0.03 )    (  -0.00 ,    0.19 )
         3      0    (   0.00 ,   -0.00 )    (   0.00 ,   -0.09 )    (  -0.00 ,    0.47 )
         3      1    (   0.00 ,   -0.02 )    (   0.00 ,    0.07 )    (  -0.00 ,   -0.11 )
         3      2    (   0.00 ,   -0.00 )    (   0.00 ,   -0.00 )    (  -0.00 ,   -0.04 )
         3      3    (   0.00 ,    0.01 )    (   0.00 ,    0.01 )    (  -0.00 ,   -0.13 )

SOC stabilization of the ground state:  -0.0000 cm-1
Eigenvalues of the SOC matrix:

   State:        cm-1         eV
     0:          0.00         0.0000
     1:      11290.99         1.3999
     2:      11290.99         1.3999
     3:      11290.99         1.3999
     4:      14218.52         1.7629
     5:      14218.52         1.7629
     6:      14218.52         1.7629
     7:      17057.04         2.1148
     8:      18066.48         2.2400
     9:      18066.48         2.2400
    10:      18066.48         2.2400
    11:      19576.79         2.4272
    12:      21450.44         2.6595

The threshold for printing is 0.0100
Eigenvectors of the SOC matrix:

             E(cm-1)  Weight      Real         Imag     : Root  Spin  Ms
 STATE  0:      0.00
                      1.00000     -0.98161      0.19089 : 0     0     0
 STATE  1:  11290.99
                      0.49799     -0.70212      0.07091 : 1     1    -1
                      0.49799     -0.42830     -0.56085 : 1     1     1
 STATE  2:  11290.99
                      0.97981     -0.95035     -0.27684 : 1     1     0
                      0.01009     -0.09778     -0.02309 : 1     1    -1
                      0.01009      0.09489      0.03303 : 1     1     1
 STATE  3:  11290.99
                      0.01618      0.10251      0.07529 : 1     1     0
                      0.49191     -0.69667     -0.08098 : 1     1    -1
                      0.49191      0.28570      0.64054 : 1     1     1
 STATE  4:  14218.52
                      0.02141     -0.13097     -0.06523 : 2     1     0
                      0.48930      0.62470     -0.31472 : 2     1    -1
                      0.48930     -0.12524     -0.68819 : 2     1     1
 STATE  5:  14218.52
                      0.38337     -0.54256     -0.29833 : 2     1     0
                      0.30831     -0.28685     -0.47543 : 2     1    -1
                      0.30831      0.55512     -0.01246 : 2     1     1
 STATE  6:  14218.52
                      0.59522     -0.68801     -0.34908 : 2     1     0
                      0.20239      0.12383      0.43250 : 2     1    -1
                      0.20239     -0.42216      0.15547 : 2     1     1
 STATE  7:  17057.04
                      1.00000     -0.84042      0.54193 : 1     0     0
 STATE  8:  18066.48
                      0.49969     -0.19626      0.67910 : 3     1    -1
                      0.49969      0.70689      0.00000 : 3     1     1
 STATE  9:  18066.48
                      0.98801      0.76220      0.63802 : 3     1     0
 STATE 10:  18066.48
                      0.01136      0.06383      0.08536 : 3     1     0
                      0.49432      0.19882     -0.67438 : 3     1    -1
                      0.49432      0.70308      0.00000 : 3     1     1
 STATE 11:  19576.79
                      1.00000      0.99807      0.06210 : 2     0     0
 STATE 12:  21450.44
                      1.00000      0.99573     -0.09234 : 3     0     0

-----------------------------
TD-DFT/TDA-EXCITATION SPECTRA
-----------------------------

Center of mass = (  3.2197,  0.7181, -0.0574)
Calculating the Dipole integrals                  ... done
Transforming integrals                            ... done
Calculating the Linear Momentum integrals         ... done
Transforming integrals                            ... done
Calculating angular momentum integrals            ... done
Transforming integrals                            ... done

-----------------------------------------------------------------------------
         ABSORPTION SPECTRUM VIA TRANSITION ELECTRIC DIPOLE MOMENTS
-----------------------------------------------------------------------------
State   Energy    Wavelength  fosc         T2        TX        TY        TZ  
        (cm-1)      (nm)                 (au**2)    (au)      (au)      (au) 
-----------------------------------------------------------------------------
   1   17057.0    586.3   3.228346286  62.30917   7.50726   2.43601  -0.12701
   2   19576.8    510.8   0.000027833   0.00047   0.00485   0.01172   0.01752
   3   21450.4    466.2   0.241916597   3.71283   1.92582  -0.06166  -0.01560
   4   11291.0    885.7   spin forbidden (mult=3)
   5   14218.5    703.3   spin forbidden (mult=3)
   6   18066.5    553.5   spin forbidden (mult=3)

-----------------------------------------------------------------------------
         ABSORPTION SPECTRUM VIA TRANSITION VELOCITY DIPOLE MOMENTS
-----------------------------------------------------------------------------
State   Energy    Wavelength   fosc        P2         PX        PY        PZ  
        (cm-1)      (nm)                 (au**2)     (au)      (au)      (au) 
-----------------------------------------------------------------------------
   1   17057.0    586.3   0.827521499   0.09647  -0.30782  -0.04127   0.00355
   2   19576.8    510.8   0.000006881   0.00000   0.00042  -0.00055   0.00067
   3   21450.4    466.2   0.105515498   0.01547  -0.10089  -0.07274   0.00042
   4   11291.0    885.7   spin forbidden (mult=3)
   5   14218.5    703.3   spin forbidden (mult=3)
   6   18066.5    553.5   spin forbidden (mult=3)

-------------------------------------------------------------------
                             CD SPECTRUM
-------------------------------------------------------------------
State  Energy     Wavelength     R         MX        MY        MZ   
       (cm-1)       (nm)     (1e40*cgs)   (au)      (au)      (au)  
-------------------------------------------------------------------
   1   17057.0    586.3     20.52683   0.01150  -0.01871  -0.02201
   2   19576.8    510.8     -2.97804  -0.00022   0.00747  -0.36538
   3   21450.4    466.2     -1.07044  -0.00120  -0.00536   0.01824
   4   11291.0    885.7 spin forbidden
   5   14218.5    703.3 spin forbidden
   6   18066.5    553.5 spin forbidden

-------------------------------------------
SOC CORRECTED TD-DFT/TDA-EXCITATION SPECTRA
--------------------------------------------

-----------------------------------------------------------------------------
  SOC CORRECTED ABSORPTION SPECTRUM VIA TRANSITION ELECTRIC DIPOLE MOMENTS*  
-----------------------------------------------------------------------------
State   Energy  Wavelength   fosc         T2         TX        TY        TZ  
        (cm-1)    (nm)                  (au**2)     (au)      (au)      (au) 
-----------------------------------------------------------------------------
   1   11291.0    885.7   0.000000002   0.00000   0.00022   0.00005   0.00000
   2   11291.0    885.7   0.000000000   0.00000   0.00001   0.00000   0.00000
   3   11291.0    885.7   0.000000000   0.00000   0.00001   0.00001   0.00000
   4   14218.5    703.3   0.000000006   0.00000   0.00036   0.00010   0.00001
   5   14218.5    703.3   0.000000000   0.00000   0.00006   0.00002   0.00000
   6   14218.5    703.3   0.000000000   0.00000   0.00002   0.00001   0.00000
   7   17057.0    586.3   3.228346220  62.30917   7.50726   2.43601   0.12701
   8   18066.5    553.5   0.000000000   0.00000   0.00003   0.00002   0.00000
   9   18066.5    553.5   0.000000000   0.00000   0.00003   0.00001   0.00000
  10   18066.5    553.5   0.000000054   0.00000   0.00094   0.00032   0.00002
  11   19576.8    510.8   0.000027833   0.00047   0.00485   0.01172   0.01752
  12   21450.4    466.2   0.241916600   3.71283   1.92582   0.06166   0.01560

-----------------------------------------------------------------------------
  SOC CORRECTED ABSORPTION SPECTRUM VIA TRANSITION VELOCITY DIPOLE MOMENTS*  
-----------------------------------------------------------------------------
State   Energy  Wavelength   fosc         P2         PX        PY        PZ  
        (cm-1)    (nm)                  (au**2)     (au)      (au)      (au) 
-----------------------------------------------------------------------------
   1   11291.0    885.7   0.000000001   0.00000   0.00001   0.00000   0.00000
   2   11291.0    885.7   0.000000000   0.00000   0.00000   0.00000   0.00000
   3   11291.0    885.7   0.000000000   0.00000   0.00000   0.00000   0.00000
   4   14218.5    703.3   0.000000002   0.00000   0.00001   0.00000   0.00000
   5   14218.5    703.3   0.000000000   0.00000   0.00000   0.00000   0.00000
   6   14218.5    703.3   0.000000000   0.00000   0.00000   0.00000   0.00000
   7   17057.0    586.3   0.827521481   0.09647   0.30782   0.04127   0.00355
   8   18066.5    553.5   0.000000000   0.00000   0.00000   0.00000   0.00000
   9   18066.5    553.5   0.000000000   0.00000   0.00000   0.00000   0.00000
  10   18066.5    553.5   0.000000012   0.00000   0.00004   0.00000   0.00000
  11   19576.8    510.8   0.000006881   0.00000   0.00042   0.00055   0.00067
  12   21450.4    466.2   0.105515498   0.01547   0.10089   0.07274   0.00042

-------------------------------------------------------------------
                    SOC CORRECTED CD SPECTRUM*                     
-------------------------------------------------------------------
State   Energy Wavelength       R         MX        MY        MZ   
        (cm-1)   (nm)       (1e40*sgs)   (au)      (au)      (au)  
-------------------------------------------------------------------
   1   11291.0    885.7      0.00000   0.00000   0.00000   0.00001
   2   11291.0    885.7      0.00000   0.00000   0.00000   0.00000
   3   11291.0    885.7      0.00000   0.00000   0.00000   0.00001
   4   14218.5    703.3      0.00000   0.00000   0.00000   0.00001
   5   14218.5    703.3      0.00000   0.00000   0.00000   0.00000
   6   14218.5    703.3      0.00000   0.00000   0.00000   0.00000
   7   17057.0    586.3     20.52683   0.01150   0.01871   0.02201
   8   18066.5    553.5      0.00000   0.00000   0.00000   0.00000
   9   18066.5    553.5      0.00000   0.00000   0.00000   0.00000
  10   18066.5    553.5      0.00000   0.00000   0.00000   0.00000
  11   19576.8    510.8      2.97804   0.00022   0.00747   0.36538
  12   21450.4    466.2      1.07044   0.00120   0.00536   0.01824

*The X,Y and Z components are the absolute values of the complex numbers

Total run time:    43912.351 sec

           *** ORCA-CIS/TD-DFT FINISHED WITHOUT ERROR ***

---------------------------
SOC CIS/TD-DFT TOTAL ENERGY
---------------------------

    E(SCF)        =  -3090.913071549 Eh
    E(SOC CIS)    =      0.051445539 Eh (SOC Root  1)
    ----------------------------- ---------
    E(tot)        =  -3090.861626010 Eh


-------------------------   --------------------
FINAL SINGLE POINT ENERGY     -3090.861626010153
-------------------------   --------------------


                            ***************************************
                            *     ORCA property calculations      *
                            ***************************************

                                    ---------------------
                                    Active property flags
                                    ---------------------
   (+) Dipole Moment


------------------------------------------------------------------------------
                       ORCA ELECTRIC PROPERTIES CALCULATION
------------------------------------------------------------------------------

Dipole Moment Calculation                       ... on
Quadrupole Moment Calculation                   ... off
Polarizability Calculation                      ... off
GBWName                                         ... IDIC.gbw
Electron density file                           ... IDIC.scfp
The origin for moment calculation is the CENTER OF MASS  = ( 3.219706,  0.718116 -0.057387)

-------------
DIPOLE MOMENT
-------------
                                X             Y             Z
Electronic contribution:     -3.24714       3.00030       0.89367
Nuclear contribution   :      3.29363      -3.01574      -0.93156
                        -----------------------------------------
Total Dipole Moment    :      0.04649      -0.01544      -0.03789
                        -----------------------------------------
Magnitude (a.u.)       :      0.06193
Magnitude (Debye)      :      0.15741



--------------------
Rotational spectrum 
--------------------
 
Rotational constants in cm-1:     0.004325     0.000407     0.000378 
Rotational constants in MHz :   129.662213    12.212809    11.329853 

 Dipole components along the rotational axes: 
x,y,z [a.u.] :     0.041791     0.026831    -0.036998 
x,y,z [Debye]:     0.106224     0.068200    -0.094042 

 

Timings for individual modules:

Sum of individual times         ...    54613.321 sec (= 910.222 min)
GTO integral calculation        ...        4.628 sec (=   0.077 min)   0.0 %
SCF iterations                  ...    10696.231 sec (= 178.271 min)  19.6 %
CIS module                      ...    43912.461 sec (= 731.874 min)  80.4 %
                             ****ORCA TERMINATED NORMALLY****
TOTAL RUN TIME: 0 days 15 hours 10 minutes 14 seconds 447 msec
