
                                 *****************
                                 * O   R   C   A *
                                 *****************

           --- An Ab Initio, DFT and Semiempirical electronic structure package ---

                  #######################################################
                  #                        -***-                        #
                  #          Department of theory and spectroscopy      #
                  #               Directorship: Frank Neese             #
                  #        Max Planck Institute fuer Kohlenforschung    #
                  #                Kaiser Wilhelm Platz 1               #
                  #                 D-45470 Muelheim/Ruhr               #
                  #                      Germany                        #
                  #                                                     #
                  #                  All rights reserved                #
                  #                        -***-                        #
                  #######################################################


                         Program Version 4.2.0 -  RELEASE  -


 With contributions from (in alphabetic order):
   Daniel Aravena         : Magnetic Suceptibility
   Michael Atanasov       : Ab Initio Ligand Field Theory (pilot matlab implementation)
   Alexander A. Auer      : GIAO ZORA, VPT2
   Ute Becker             : Parallelization
   Giovanni Bistoni       : ED, misc. LED, open-shell LED, HFLED
   Martin Brehm           : Molecular dynamics
   Dmytro Bykov           : SCF Hessian
   Vijay G. Chilkuri      : MRCI spin determinant printing, contributions to CSF-ICE
   Dipayan Datta          : RHF DLPNO-CCSD density
   Achintya Kumar Dutta   : EOM-CC, STEOM-CC
   Dmitry Ganyushin       : Spin-Orbit,Spin-Spin,Magnetic field MRCI
   Miquel Garcia          : C-PCM Hessian, Gaussian charge scheme
   Yang Guo               : DLPNO-NEVPT2, CIM, IAO-localization
   Andreas Hansen         : Spin unrestricted coupled pair/coupled cluster methods
   Benjamin Helmich-Paris : CASSCF linear response (MC-RPA)
   Lee Huntington         : MR-EOM, pCC
   Robert Izsak           : Overlap fitted RIJCOSX, COSX-SCS-MP3, EOM
   Christian Kollmar      : KDIIS, OOCD, Brueckner-CCSD(T), CCSD density
   Simone Kossmann        : Meta GGA functionals, TD-DFT gradient, OOMP2, MP2 Hessian
   Martin Krupicka        : AUTO-CI
   Lucas Lang             : DCDCAS
   Dagmar Lenk            : GEPOL surface, SMD
   Dimitrios Liakos       : Extrapolation schemes; Compound Job, initial MDCI parallelization
   Dimitrios Manganas     : Further ROCIS development; embedding schemes
   Dimitrios Pantazis     : SARC Basis sets
   Taras Petrenko         : DFT Hessian,TD-DFT gradient, ASA, ECA, R-Raman, ABS, FL, XAS/XES, NRVS
   Peter Pinski           : DLPNO-MP2, DLPNO-MP2 Gradient
   Christoph Reimann      : Effective Core Potentials
   Marius Retegan         : Local ZFS, SOC
   Christoph Riplinger    : Optimizer, TS searches, QM/MM, DLPNO-CCSD(T), (RO)-DLPNO pert. Triples
   Tobias Risthaus        : Range-separated hybrids, TD-DFT gradient, RPA, STAB
   Michael Roemelt        : Original ROCIS implementation
   Masaaki Saitow         : Open-shell DLPNO-CCSD energy and density
   Barbara Sandhoefer     : DKH picture change effects
   Avijit Sen             : IP-ROCIS
   Kantharuban Sivalingam : CASSCF convergence, NEVPT2, FIC-MRCI
   Bernardo de Souza      : ESD, SOC TD-DFT
   Georgi Stoychev        : AutoAux, RI-MP2 NMR
   Willem Van den Heuvel  : Paramagnetic NMR
   Boris Wezisla          : Elementary symmetry handling
   Frank Wennmohs         : Technical directorship


 We gratefully acknowledge several colleagues who have allowed us to
 interface, adapt or use parts of their codes:
   Stefan Grimme, W. Hujo, H. Kruse,             : VdW corrections, initial TS optimization,
                  C. Bannwarth                     DFT functionals, gCP, sTDA/sTD-DF
   Ed Valeev, F. Pavosevic, A. Kumar             : LibInt (2-el integral package), F12 methods
   Garnet Chan, S. Sharma, J. Yang, R. Olivares  : DMRG
   Ulf Ekstrom                                   : XCFun DFT Library
   Mihaly Kallay                                 : mrcc  (arbitrary order and MRCC methods)
   Andreas Klamt, Michael Diedenhofen            : otool_cosmo (COSMO solvation model)
   Jiri Pittner, Ondrej Demel                    : Mk-CCSD
   Frank Weinhold                                : gennbo (NPA and NBO analysis)
   Christopher J. Cramer and Donald G. Truhlar   : smd solvation model
   Lars Goerigk                                  : TD-DFT with DH, B97 family of functionals
   V. Asgeirsson, H. Jonsson                     : NEB implementation
   FAccTs GmbH                                   : IRC, NEB, NEB-TS, Multilevel, MM, QM/MM, CI optimization
   S Lehtola, MJT Oliveira, MAL Marques          : LibXC Library


 Your calculation uses the libint2 library for the computation of 2-el integrals
 For citations please refer to: http://libint.valeyev.net

 Your ORCA version has been built with support for libXC version: 4.2.3
 For citations please refer to: https://tddft.org/programs/libxc/

 This ORCA versions uses:
   CBLAS   interface :  Fast vector & matrix operations
   LAPACKE interface :  Fast linear algebra routines
   SCALAPACK package :  Parallel linear algebra routines


----- Orbital basis set information -----
Your calculation utilizes the basis: def2-TZVP
   F. Weigend and R. Ahlrichs, Phys. Chem. Chem. Phys. 7, 3297 (2005).

----- AuxJ basis set information -----
Your calculation utilizes the auxiliary basis: def2/J
   F. Weigend, Phys. Chem. Chem. Phys. 8, 1057 (2006).

================================================================================
                                        WARNINGS
                       Please study these warnings very carefully!
================================================================================

INFO   : Checking CIS options ...

WARNING: (CIS/TDDFT): Spin-orbit needs TRIPLETS set to TRUE
  ===> : ajusting flags

WARNING: CIS/ROCIS methods need fully converged wavefunctions
  ===> : Setting SCFConvForced true
         You can overwrite this default with %scf ConvForced false 


INFO   : the flag for use of LIBINT has been found!

================================================================================
                                       INPUT FILE
================================================================================
NAME = IDST-4F.inp
|  1> # ORCA input file
|  2> # IDST-4F.out: Geometry 76
|  3> ! B3LYP def2-TZVP def2/J RIJCOSX Grid4 TightSCF
|  4> 
|  5> %maxcore 6000
|  6> %tddft
|  7>   maxdim 5
|  8>   nroots 3
|  9>   dosoc true
| 10>   end
| 11> %pal
| 12>   nprocs 6
| 13>   end
| 14> 
| 15> 
| 16> * xyz 0 1
| 17>    C       -1.89673        -1.18007         0.39681
| 18>    C       -2.61718        -0.16143        -0.24005
| 19>    C       -2.17535         1.12414         0.13787
| 20>    C       -2.54363         2.56986        -0.18389
| 21>    C       -1.52296         3.32933         0.68106
| 22>    C       -0.70184         2.41928         1.40881
| 23>    C       -1.14041         1.09164         1.06226
| 24>    S       -0.68122        -0.50770         1.49626
| 25>    C        0.34476         2.85179         2.23568
| 26>    C        0.58930         4.21472         2.31787
| 27>    C        1.63317         4.94456         3.16820
| 28>    C        1.28594         6.39001         2.85784
| 29>    C        0.20911         6.45728         1.97291
| 30>    C       -0.23854         5.13248         1.60673
| 31>    C       -1.28655         4.69492         0.77491
| 32>    S       -0.25171         8.07639         1.61047
| 33>    C        1.03296         8.69901         2.65543
| 34>    C        1.77921         7.65085         3.21245
| 35>    C       -2.34295         2.89696        -1.68524
| 36>    C       -0.91861         2.67908        -2.19069
| 37>    C       -4.01224         2.81349         0.26714
| 38>    C       -4.54501         4.23950         0.15417
| 39>    C        1.43385         4.62315         4.67307
| 40>    C        0.01573         4.86839         5.18700
| 41>    C        3.09190         4.67039         2.70239
| 42>    C        3.59793         3.23328         2.79706
| 43>    C        1.26870        10.08774         2.85234
| 44>    C        0.42382        11.16836         2.77211
| 45>    C       -1.02764        11.30240         2.80182
| 46>    C       -1.35130        12.66723         2.31482
| 47>    C       -0.15103        13.39881         2.19124
| 48>    C        1.00610        12.52896         2.53356
| 49>    C       -2.57451        13.30152         2.05962
| 50>    C       -2.54830        14.63860         1.67097
| 51>    C       -1.34207        15.35265         1.54557
| 52>    C       -0.12532        14.73632         1.81262
| 53>    O        2.17694        12.84872         2.56504
| 54>    C       -1.92667        10.43585         3.40134
| 55>    C       -3.34003        10.63630         3.35278
| 56>    C       -1.50983         9.33177         4.20805
| 57>    F       -3.68566        15.27765         1.41095
| 58>    F       -1.39159        16.62651         1.16705
| 59>    N       -4.49281        10.77516         3.29693
| 60>    N       -1.19744         8.46520         4.91597
| 61>    C       -0.88434        -6.35950         0.66151
| 62>    C        0.36116        -6.73639         1.09990
| 63>    C        1.65010        -6.05658         1.13376
| 64>    C        2.43959        -6.67758         2.22391
| 65>    C        1.76866        -7.84085         2.65939
| 66>    C        0.49471        -7.99880         1.90023
| 67>    C        3.65741        -6.31363         2.81252
| 68>    C        4.14105        -7.11289         3.84558
| 69>    C        3.45329        -8.25932         4.28337
| 70>    C        2.26116        -8.64631         3.68139
| 71>    O       -0.29406        -8.91716         1.96805
| 72>    C        2.13278        -5.17273         0.18637
| 73>    C        3.41728        -4.55684         0.29245
| 74>    C        1.41518        -4.89045        -1.01780
| 75>    F        5.28020        -6.80080         4.45740
| 76>    F        3.96817        -8.95550         5.29246
| 77>    N        4.45123        -4.03352         0.38155
| 78>    N        0.85652        -4.69432        -2.01748
| 79>    C       -1.97188        -2.61036         0.26058
| 80>    S       -0.66294        -3.58179         0.88888
| 81>    C       -1.41540        -5.06963         0.37410
| 82>    C       -2.64367        -4.80223        -0.23023
| 83>    C       -2.95770        -3.42749        -0.32836
| 84>    S       -4.43082        -2.77087        -1.04304
| 85>    C       -5.01095        -4.15141        -2.09669
| 86>    C       -5.99510        -3.60185        -3.12806
| 87>    C       -6.60301        -4.70433        -3.99260
| 88>    H       -3.39852        -0.36842        -0.96925
| 89>    H        0.94055         2.12964         2.79585
| 90>    H       -1.88496         5.41750         0.21708
| 91>    H        2.61878         7.83807         3.88311
| 92>    H       -2.63758         3.94423        -1.85955
| 93>    H       -3.05116         2.28250        -2.26627
| 94>    H       -0.20261         3.30389        -1.63694
| 95>    H       -0.83542         2.94416        -3.25622
| 96>    H       -0.60472         1.62990        -2.07551
| 97>    H       -4.10235         2.47395         1.31229
| 98>    H       -4.64991         2.13736        -0.32725
| 99>    H       -3.98530         4.93451         0.79527
|100>    H       -5.59532         4.27393         0.48297
|101>    H       -4.51097         4.62336        -0.87738
|102>    H        2.15708         5.22537         5.24814
|103>    H        1.71278         3.57069         4.84362
|104>    H       -0.28153         5.92443         5.09518
|105>    H       -0.06496         4.58581         6.24830
|106>    H       -0.71442         4.26256         4.63017
|107>    H        3.74916         5.32716         3.29719
|108>    H        3.18101         5.01676         1.65912
|109>    H        3.55759         2.83670         3.82342
|110>    H        4.64722         3.18421         2.46675
|111>    H        3.02541         2.55655         2.14798
|112>    H        2.31538        10.36186         3.04110
|113>    H       -3.54074        12.80842         2.15200
|114>    H        0.81307        15.28644         1.72665
|115>    H       -1.61675        -7.17718         0.64648
|116>    H        4.23098        -5.43647         2.51651
|117>    H        1.73080        -9.53946         4.01500
|118>    H       -3.28788        -5.60360        -0.58827
|119>    H       -5.48984        -4.91763        -1.46652
|120>    H       -4.13892        -4.60351        -2.59407
|121>    H       -5.46799        -2.86755        -3.75988
|122>    H       -6.79837        -3.04875        -2.61068
|123>    H       -5.82353        -5.26957        -4.52989
|124>    H       -7.28673        -4.28017        -4.74423
|125>    H       -7.17658        -5.42279        -3.38401
|126> *
|127> 
|128>                          ****END OF INPUT****
================================================================================

                       ****************************
                       * Single Point Calculation *
                       ****************************

---------------------------------
CARTESIAN COORDINATES (ANGSTROEM)
---------------------------------
  C     -1.896730   -1.180070    0.396810
  C     -2.617180   -0.161430   -0.240050
  C     -2.175350    1.124140    0.137870
  C     -2.543630    2.569860   -0.183890
  C     -1.522960    3.329330    0.681060
  C     -0.701840    2.419280    1.408810
  C     -1.140410    1.091640    1.062260
  S     -0.681220   -0.507700    1.496260
  C      0.344760    2.851790    2.235680
  C      0.589300    4.214720    2.317870
  C      1.633170    4.944560    3.168200
  C      1.285940    6.390010    2.857840
  C      0.209110    6.457280    1.972910
  C     -0.238540    5.132480    1.606730
  C     -1.286550    4.694920    0.774910
  S     -0.251710    8.076390    1.610470
  C      1.032960    8.699010    2.655430
  C      1.779210    7.650850    3.212450
  C     -2.342950    2.896960   -1.685240
  C     -0.918610    2.679080   -2.190690
  C     -4.012240    2.813490    0.267140
  C     -4.545010    4.239500    0.154170
  C      1.433850    4.623150    4.673070
  C      0.015730    4.868390    5.187000
  C      3.091900    4.670390    2.702390
  C      3.597930    3.233280    2.797060
  C      1.268700   10.087740    2.852340
  C      0.423820   11.168360    2.772110
  C     -1.027640   11.302400    2.801820
  C     -1.351300   12.667230    2.314820
  C     -0.151030   13.398810    2.191240
  C      1.006100   12.528960    2.533560
  C     -2.574510   13.301520    2.059620
  C     -2.548300   14.638600    1.670970
  C     -1.342070   15.352650    1.545570
  C     -0.125320   14.736320    1.812620
  O      2.176940   12.848720    2.565040
  C     -1.926670   10.435850    3.401340
  C     -3.340030   10.636300    3.352780
  C     -1.509830    9.331770    4.208050
  F     -3.685660   15.277650    1.410950
  F     -1.391590   16.626510    1.167050
  N     -4.492810   10.775160    3.296930
  N     -1.197440    8.465200    4.915970
  C     -0.884340   -6.359500    0.661510
  C      0.361160   -6.736390    1.099900
  C      1.650100   -6.056580    1.133760
  C      2.439590   -6.677580    2.223910
  C      1.768660   -7.840850    2.659390
  C      0.494710   -7.998800    1.900230
  C      3.657410   -6.313630    2.812520
  C      4.141050   -7.112890    3.845580
  C      3.453290   -8.259320    4.283370
  C      2.261160   -8.646310    3.681390
  O     -0.294060   -8.917160    1.968050
  C      2.132780   -5.172730    0.186370
  C      3.417280   -4.556840    0.292450
  C      1.415180   -4.890450   -1.017800
  F      5.280200   -6.800800    4.457400
  F      3.968170   -8.955500    5.292460
  N      4.451230   -4.033520    0.381550
  N      0.856520   -4.694320   -2.017480
  C     -1.971880   -2.610360    0.260580
  S     -0.662940   -3.581790    0.888880
  C     -1.415400   -5.069630    0.374100
  C     -2.643670   -4.802230   -0.230230
  C     -2.957700   -3.427490   -0.328360
  S     -4.430820   -2.770870   -1.043040
  C     -5.010950   -4.151410   -2.096690
  C     -5.995100   -3.601850   -3.128060
  C     -6.603010   -4.704330   -3.992600
  H     -3.398520   -0.368420   -0.969250
  H      0.940550    2.129640    2.795850
  H     -1.884960    5.417500    0.217080
  H      2.618780    7.838070    3.883110
  H     -2.637580    3.944230   -1.859550
  H     -3.051160    2.282500   -2.266270
  H     -0.202610    3.303890   -1.636940
  H     -0.835420    2.944160   -3.256220
  H     -0.604720    1.629900   -2.075510
  H     -4.102350    2.473950    1.312290
  H     -4.649910    2.137360   -0.327250
  H     -3.985300    4.934510    0.795270
  H     -5.595320    4.273930    0.482970
  H     -4.510970    4.623360   -0.877380
  H      2.157080    5.225370    5.248140
  H      1.712780    3.570690    4.843620
  H     -0.281530    5.924430    5.095180
  H     -0.064960    4.585810    6.248300
  H     -0.714420    4.262560    4.630170
  H      3.749160    5.327160    3.297190
  H      3.181010    5.016760    1.659120
  H      3.557590    2.836700    3.823420
  H      4.647220    3.184210    2.466750
  H      3.025410    2.556550    2.147980
  H      2.315380   10.361860    3.041100
  H     -3.540740   12.808420    2.152000
  H      0.813070   15.286440    1.726650
  H     -1.616750   -7.177180    0.646480
  H      4.230980   -5.436470    2.516510
  H      1.730800   -9.539460    4.015000
  H     -3.287880   -5.603600   -0.588270
  H     -5.489840   -4.917630   -1.466520
  H     -4.138920   -4.603510   -2.594070
  H     -5.467990   -2.867550   -3.759880
  H     -6.798370   -3.048750   -2.610680
  H     -5.823530   -5.269570   -4.529890
  H     -7.286730   -4.280170   -4.744230
  H     -7.176580   -5.422790   -3.384010

----------------------------
CARTESIAN COORDINATES (A.U.)
----------------------------
  NO LB      ZA    FRAG     MASS         X           Y           Z
   0 C     6.0000    0    12.011   -3.584300   -2.230009    0.749862
   1 C     6.0000    0    12.011   -4.945753   -0.305058   -0.453629
   2 C     6.0000    0    12.011   -4.110816    2.124317    0.260537
   3 C     6.0000    0    12.011   -4.806764    4.856332   -0.347502
   4 C     6.0000    0    12.011   -2.877977    6.291522    1.287017
   5 C     6.0000    0    12.011   -1.326285    4.571777    2.662265
   6 C     6.0000    0    12.011   -2.155063    2.062901    2.007380
   7 S    16.0000    0    32.060   -1.287319   -0.959414    2.827522
   8 C     6.0000    0    12.011    0.651502    5.389102    4.224823
   9 C     6.0000    0    12.011    1.113616    7.964667    4.380140
  10 C     6.0000    0    12.011    3.086244    9.343864    5.987030
  11 C     6.0000    0    12.011    2.430074   12.075369    5.400535
  12 C     6.0000    0    12.011    0.395161   12.202491    3.728260
  13 C     6.0000    0    12.011   -0.450775    9.698982    3.036280
  14 C     6.0000    0    12.011   -2.431227    8.872113    1.464368
  15 S    16.0000    0    32.060   -0.475663   15.262165    3.043347
  16 C     6.0000    0    12.011    1.952012   16.438747    5.018035
  17 C     6.0000    0    12.011    3.362220   14.458011    6.070651
  18 C     6.0000    0    12.011   -4.427534    5.474461   -3.184642
  19 C     6.0000    0    12.011   -1.735921    5.062727   -4.139804
  20 C     6.0000    0    12.011   -7.582035    5.316726    0.504821
  21 C     6.0000    0    12.011   -8.588824    8.011494    0.291339
  22 C     6.0000    0    12.011    2.709584    8.736487    8.830823
  23 C     6.0000    0    12.011    0.029725    9.199924    9.802009
  24 C     6.0000    0    12.011    5.842844    8.825758    5.106777
  25 C     6.0000    0    12.011    6.799102    6.110014    5.285677
  26 C     6.0000    0    12.011    2.397496   19.063066    5.390141
  27 C     6.0000    0    12.011    0.800904   21.105142    5.238529
  28 C     6.0000    0    12.011   -1.941958   21.358441    5.294672
  29 C     6.0000    0    12.011   -2.553587   23.937596    4.374376
  30 C     6.0000    0    12.011   -0.285405   25.320081    4.140843
  31 C     6.0000    0    12.011    1.901253   23.676303    4.787735
  32 C     6.0000    0    12.011   -4.865119   25.136230    3.892118
  33 C     6.0000    0    12.011   -4.815589   27.662945    3.157676
  34 C     6.0000    0    12.011   -2.536145   29.012304    2.920704
  35 C     6.0000    0    12.011   -0.236820   27.847609    3.425355
  36 O     8.0000    0    15.999    4.113820   24.280562    4.847223
  37 C     6.0000    0    12.011   -3.640879   19.720898    6.427601
  38 C     6.0000    0    12.011   -6.311742   20.099694    6.335836
  39 C     6.0000    0    12.011   -2.853165   17.634490    7.952062
  40 F     9.0000    0    18.998   -6.964888   28.870574    2.666309
  41 F     9.0000    0    18.998   -2.629724   31.419550    2.205405
  42 N     7.0000    0    14.007   -8.490180   20.362101    6.230295
  43 N     7.0000    0    14.007   -2.262834   15.996910    9.289837
  44 C     6.0000    0    12.011   -1.671160  -12.017713    1.250073
  45 C     6.0000    0    12.011    0.682493  -12.729932    2.078510
  46 C     6.0000    0    12.011    3.118237  -11.445278    2.142496
  47 C     6.0000    0    12.011    4.610157  -12.618797    4.202581
  48 C     6.0000    0    12.011    3.342283  -14.817059    5.025519
  49 C     6.0000    0    12.011    0.934866  -15.115541    3.590914
  50 C     6.0000    0    12.011    6.911503  -11.931032    5.314893
  51 C     6.0000    0    12.011    7.825450  -13.441414    7.267093
  52 C     6.0000    0    12.011    6.525772  -15.607853    8.094396
  53 C     6.0000    0    12.011    4.272973  -16.339158    6.956819
  54 O     8.0000    0    15.999   -0.555693  -16.850990    3.719076
  55 C     6.0000    0    12.011    4.030370   -9.775043    0.352188
  56 C     6.0000    0    12.011    6.457723   -8.611180    0.552650
  57 C     6.0000    0    12.011    2.674303   -9.241611   -1.923363
  58 F     9.0000    0    18.998    9.978132  -12.851649    8.423265
  59 F     9.0000    0    18.998    7.498755  -16.923442   10.001300
  60 N     7.0000    0    14.007    8.411606   -7.622248    0.721025
  61 N     7.0000    0    14.007    1.618588   -8.870979   -3.812485
  62 C     6.0000    0    12.011   -3.726313   -4.932866    0.492425
  63 S    16.0000    0    32.060   -1.252775   -6.768602    1.679740
  64 C     6.0000    0    12.011   -2.674718   -9.580212    0.706947
  65 C     6.0000    0    12.011   -4.995812   -9.074900   -0.435072
  66 C     6.0000    0    12.011   -5.589243   -6.477017   -0.620510
  67 S    16.0000    0    32.060   -8.373036   -5.236185   -1.971060
  68 C     6.0000    0    12.011   -9.469323   -7.845028   -3.962170
  69 C     6.0000    0    12.011  -11.329097   -6.806510   -5.911177
  70 C     6.0000    0    12.011  -12.477881   -8.889895   -7.544921
  71 H     1.0000    0     1.008   -6.422272   -0.696213   -1.831617
  72 H     1.0000    0     1.008    1.777382    4.024436    5.283391
  73 H     1.0000    0     1.008   -3.562058   10.237591    0.410222
  74 H     1.0000    0     1.008    4.948777   14.811806    7.338014
  75 H     1.0000    0     1.008   -4.984304    7.453515   -3.514040
  76 H     1.0000    0     1.008   -5.765857    4.313300   -4.282630
  77 H     1.0000    0     1.008   -0.382877    6.243447   -3.093368
  78 H     1.0000    0     1.008   -1.578715    5.563656   -6.153364
  79 H     1.0000    0     1.008   -1.142755    3.080065   -3.922145
  80 H     1.0000    0     1.008   -7.752318    4.675088    2.479869
  81 H     1.0000    0     1.008   -8.787056    4.039025   -0.618413
  82 H     1.0000    0     1.008   -7.531126    9.324873    1.502843
  83 H     1.0000    0     1.008  -10.573622    8.076557    0.912681
  84 H     1.0000    0     1.008   -8.524498    8.736884   -1.658008
  85 H     1.0000    0     1.008    4.076290    9.874518    9.917547
  86 H     1.0000    0     1.008    3.236685    6.747626    9.153115
  87 H     1.0000    0     1.008   -0.532015   11.195550    9.628495
  88 H     1.0000    0     1.008   -0.122757    8.665925   11.807576
  89 H     1.0000    0     1.008   -1.350058    8.055071    8.749753
  90 H     1.0000    0     1.008    7.084886   10.066873    6.230786
  91 H     1.0000    0     1.008    6.011238    9.480302    3.135282
  92 H     1.0000    0     1.008    6.722871    5.360586    7.225217
  93 H     1.0000    0     1.008    8.781973    6.017285    4.661482
  94 H     1.0000    0     1.008    5.717196    4.831179    4.059094
  95 H     1.0000    0     1.008    4.375434   19.581078    5.746846
  96 H     1.0000    0     1.008   -6.691029   24.204406    4.066691
  97 H     1.0000    0     1.008    1.536480   28.887185    3.262896
  98 H     1.0000    0     1.008   -3.055215  -13.562905    1.221670
  99 H     1.0000    0     1.008    7.995393  -10.273439    4.755515
 100 H     1.0000    0     1.008    3.270738  -18.026967    7.587250
 101 H     1.0000    0     1.008   -6.213193  -10.589269   -1.111669
 102 H     1.0000    0     1.008  -10.374294   -9.292974   -2.771321
 103 H     1.0000    0     1.008   -7.821425   -8.699373   -4.902082
 104 H     1.0000    0     1.008  -10.333004   -5.418884   -7.105143
 105 H     1.0000    0     1.008  -12.847057   -5.761303   -4.933470
 106 H     1.0000    0     1.008  -11.004877   -9.958044   -8.560252
 107 H     1.0000    0     1.008  -13.769924   -8.088349   -8.965295
 108 H     1.0000    0     1.008  -13.561771  -10.247588   -6.394852

--------------------------------
INTERNAL COORDINATES (ANGSTROEM)
--------------------------------
 C      0   0   0     0.000000000000     0.00000000     0.00000000
 C      1   0   0     1.400809163198     0.00000000     0.00000000
 C      2   1   0     1.410931430014   112.31754692     0.00000000
 C      3   2   1     1.526193295228   136.97636589   180.41061576
 C      4   3   2     1.538408408811   100.89511658   180.40223174
 C      5   4   3     1.425499603437   110.73446086   359.23580627
 C      3   2   1     1.388039598030   112.98769849   359.35868579
 S      7   3   2     1.719622020009   112.88948879   359.90630822
 C      6   5   4     1.402194871264   122.28150437   177.53645592
 C      9   6   5     1.387131281675   118.00805259   358.87051465
 C     10   9   6     1.531467306670   128.41185676   178.09485462
 C     11  10   9     1.518623621902   100.61894969   183.96913906
 C     12  11  10     1.395417215997   110.60570693     0.18982084
 C     10   9   6     1.425946206138   120.03234129     1.91825005
 C      5   4   3     1.389076512903   129.51107239   175.93422587
 S     13  12  11     1.721985777555   112.66348687   178.76824788
 C     16  13  12     1.769173274414    90.70252694     0.44917561
 C     12  11  10     1.399564593222   136.47756433   181.47956760
 C      4   3   2     1.549618886985   111.89843741   298.21338807
 C     19   4   3     1.526989139614   114.29147241   301.66017970
 C      4   3   2     1.555506017314   108.36453013    61.83889316
 C     21   4   3     1.526469984605   117.02511251   174.53414437
 C     11  10   9     1.551665739584   110.62328284   301.90125551
 C     23  11  10     1.528178993737   114.33825231   307.10822393
 C     11  10   9     1.555648211486   112.88625931    68.27302409
 C     25  11  10     1.526536577321   117.27001665   296.58353377
 C     17  16  13     1.422293186583   123.07595139   179.87239115
 C     27  17  16     1.374044632354   131.13948572    26.80555960
 C     28  27  17     1.457938797515   133.09954202    18.34894252
 C     29  28  27     1.484818414655   107.14768047   194.77823838
 C     30  29  28     1.411073841335   108.65501941   351.43797078
 C     31  30  29     1.487538853879   109.77619960     2.44427831
 C     30  29  28     1.401318503482   131.76411004   175.50438152
 C     33  30  29     1.392666045037   117.96720668   176.51695060
 C     34  33  30     1.407332006102   121.87881505   359.36528541
 C     35  34  33     1.389841334074   120.54668742   359.85211091
 O     32  31  30     1.214126745278   127.02116021   182.07309726
 C     29  28  27     1.385131067372   126.68936817    25.96212219
 C     38  29  28     1.428329361772   122.66615355   181.40727019
 C     38  29  28     1.429520638571   122.55954468     6.61723542
 F     34  33  30     1.330256769387   119.97878330   179.60192154
 F     35  34  33     1.329830410391   118.65076963   179.85359790
 N     39  38  29     1.162455612271   178.55258136   113.73182047
 N     40  38  29     1.161758065778   176.73743294   112.76530280
 C      1   2   3     5.284079364184   146.52126630   189.73862221
 C     45   1   2     1.373135868805   117.31064960   150.96770376
 C     46  45   1     1.457619449411   132.96004303   337.15333024
 C     47  46  45     1.482350323844   107.01739755   154.84480996
 C     48  47  46     1.411731910881   108.59874333    10.62757992
 C     49  48  47     1.491382147741   109.64623703   358.19619809
 C     48  47  46     1.400716561978   131.54732708   189.58360541
 C     51  48  47     1.392816269578   117.67631652   179.40977132
 C     52  51  48     1.406760692726   121.91826515     0.85023053
 C     53  52  51     1.390437023889   120.74727199     0.77365327
 O     50  49  48     1.212494434998   127.40435009   176.00354196
 C     47  46  45     1.382649130112   126.22199933   324.43663819
 C     56  47  46     1.428465508334   122.59137546   180.51327279
 C     56  47  46     1.429915083947   121.87203357   355.82479873
 F     52  51  48     1.330182920880   120.25723071   181.23499340
 F     53  52  51     1.329673130848   118.26452704   181.25117449
 N     57  56  47     1.162262980095   178.76684152   246.13371114
 N     58  56  47     1.161864051815   177.71217489   266.61633166
 C      1   2   3     1.438727083049   130.76835487   183.16687358
 S     63   1   2     1.746929036481   118.66088696   164.39071021
 C     45   1   2     1.424216924699    14.23788442   350.06336141
 C     65  45  46     1.394763313900   126.11714841   171.22981817
 C     63   1   2     1.409394491581   130.72857083   344.92806763
 S     67  63   1     1.764086126356   122.51930626   358.64713276
 C     68  67  63     1.831016065194   102.53667477   161.93225341
 C     69  68  67     1.527838830833   108.74399364   198.71379807
 C     70  69  68     1.527234798615   112.26404941   183.84234280
 H      2   1   3     1.088609064678   122.37179863   177.78551746
 H      9   6   5     1.090988897973   120.41236097   178.67029146
 H     15   5   4     1.091508448616   121.53187725     2.44195580
 H     18  12  11     1.090740092277   125.57071943   359.18243279
 H     19   4   3     1.101800919359   108.61961492   179.16504091
 H     19   4   3     1.103049571234   108.03564327    64.69032952
 H     20  19   4     1.099855717174   111.07067151   300.48432056
 H     20  19   4     1.101154922525   110.88065742   180.97900097
 H     20  19   4     1.101168487063   111.54402842    60.56686902
 H     21   4   3     1.102608609707   107.68446145    51.12334587
 H     21   4   3     1.103210894571   107.06811002   297.57365364
 H     22  21   4     1.098782687432   111.71134077   297.39283706
 H     22  21   4     1.101111239158   109.87869153   178.83475570
 H     22  21   4     1.101182375313   112.59322548    59.22833625
 H     23  11  10     1.102921604739   107.95954930   184.06418865
 H     23  11  10     1.102071367471   108.38432017    69.72569808
 H     24  23  11     1.100915483405   112.11420291   298.28963082
 H     24  23  11     1.101235679816   110.54374242   177.90111746
 H     24  23  11     1.100094841502   110.93530959    58.95758935
 H     25  11  10     1.103233692606   106.99488289   173.54559910
 H     25  11  10     1.102871280749   107.67775575    60.02283503
 H     26  25  11     1.101053069384   112.62801356   301.30392002
 H     26  25  11     1.101145796477   109.82981294   181.69534312
 H     26  25  11     1.098657130182   111.74624619    63.14601984
 H     27  17  16     1.098321962996   115.17838214   211.12552322
 H     33  30  29     1.088706612132   123.65821138   356.75228485
 H     36  35  34     1.091145566549   120.94303244   180.58610063
 H     45   1   2     1.097839191958   126.98123649   314.61294689
 H     51  48  47     1.089042758848   123.57056831     0.43739645
 H     54  53  52     1.091006088067   120.81386435   179.53086758
 H     66  65  45     1.088757568332   121.49587740   356.55741807
 H     69  68  67     1.101609254409   109.44960318    77.45646693
 H     69  68  67     1.101007536441   108.57918420   319.19445965
 H     70  69  68     1.102831788851   108.56400165    61.66405028
 H     70  69  68     1.104012847434   109.42217020   305.90485063
 H     71  70  69     1.102617736162   111.37750124   301.39458639
 H     71  70  69     1.101059671816   110.82503953   181.52906256
 H     71  70  69     1.102519435021   111.40857369    61.56824755

---------------------------
INTERNAL COORDINATES (A.U.)
---------------------------
 C      0   0   0     0.000000000000     0.00000000     0.00000000
 C      1   0   0     2.647145684332     0.00000000     0.00000000
 C      2   1   0     2.666273996467   112.31754692     0.00000000
 C      3   2   1     2.884087355408   136.97636589   180.41061576
 C      4   3   2     2.907170574774   100.89511658   180.40223174
 C      5   4   3     2.693803854510   110.73446086   359.23580627
 C      3   2   1     2.623014703315   112.98769849   359.35868579
 S      7   3   2     3.249614671678   112.88948879   359.90630822
 C      6   5   4     2.649764293079   122.28150437   177.53645592
 C      9   6   5     2.621298234160   118.00805259   358.87051465
 C     10   9   6     2.894053792661   128.41185676   178.09485462
 C     11  10   9     2.869782745899   100.61894969   183.96913906
 C     12  11  10     2.636956380793   110.60570693     0.18982084
 C     10   9   6     2.694647811305   120.03234129     1.91825005
 C      5   4   3     2.624974188450   129.51107239   175.93422587
 S     13  12  11     3.254081526085   112.66348687   178.76824788
 C     16  13  12     3.343252972095    90.70252694     0.44917561
 C     12  11  10     2.644793787922   136.47756433   181.47956760
 C      4   3   2     2.928355308353   111.89843741   298.21338807
 C     19   4   3     2.885591283343   114.29147241   301.66017970
 C      4   3   2     2.939480372390   108.36453013    61.83889316
 C     21   4   3     2.884610222554   117.02511251   174.53414437
 C     11  10   9     2.932223299203   110.62328284   301.90125551
 C     23  11  10     2.887839781775   114.33825231   307.10822393
 C     11  10   9     2.939749080433   112.88625931    68.27302409
 C     25  11  10     2.884736064551   117.27001665   296.58353377
 C     17  16  13     2.687744604784   123.07595139   179.87239115
 C     27  17  16     2.596568050933   131.13948572    26.80555960
 C     28  27  17     2.755105047322   133.09954202    18.34894252
 C     29  28  27     2.805900162302   107.14768047   194.77823838
 C     30  29  28     2.666543114863   108.65501941   351.43797078
 C     31  30  29     2.811041047399   109.77619960     2.44427831
 C     30  29  28     2.648108197977   131.76411004   175.50438152
 C     33  30  29     2.631757421132   117.96720668   176.51695060
 C     34  33  30     2.659472071035   121.87881505   359.36528541
 C     35  34  33     2.626419491003   120.54668742   359.85211091
 O     32  31  30     2.294367040445   127.02116021   182.07309726
 C     29  28  27     2.617518376920   126.68936817    25.96212219
 C     38  29  28     2.699151322788   122.66615355   181.40727019
 C     38  29  28     2.701402509687   122.55954468     6.61723542
 F     34  33  30     2.513820981936   119.97878330   179.60192154
 F     35  34  33     2.513015280199   118.65076963   179.85359790
 N     39  38  29     2.196722750032   178.55258136   113.73182047
 N     40  38  29     2.195404578194   176.73743294   112.76530280
 C      1   2   3     9.985462868213   146.52126630   189.73862221
 C     45   1   2     2.594850736706   117.31064960   150.96770376
 C     46  45   1     2.754501566863   132.96004303   337.15333024
 C     47  46  45     2.801236146594   107.01739755   154.84480996
 C     48  47  46     2.667786686083   108.59874333    10.62757992
 C     49  48  47     2.818303820249   109.64623703   358.19619809
 C     48  47  46     2.646970693387   131.54732708   189.58360541
 C     51  48  47     2.632041304371   117.67631652   179.40977132
 C     52  51  48     2.658392445218   121.91826515     0.85023053
 C     53  52  51     2.627545181614   120.74727199     0.77365327
 O     50  49  48     2.291282421049   127.40435009   176.00354196
 C     47  46  45     2.612828195216   126.22199933   324.43663819
 C     56  47  46     2.699408602504   122.59137546   180.51327279
 C     56  47  46     2.702147903423   121.87203357   355.82479873
 F     52  51  48     2.513681428482   120.25723071   181.23499340
 F     53  52  51     2.512718064937   118.26452704   181.25117449
 N     57  56  47     2.196358727975   178.76684152   246.13371114
 N     58  56  47     2.195604862778   177.71217489   266.61633166
 C      1   2   3     2.718800168419   130.76835487   183.16687358
 S     63   1   2     3.301217454344   118.66088696   164.39071021
 C     45   1   2     2.691379942977    14.23788442   350.06336141
 C     65  45  46     2.635720684911   126.11714841   171.22981817
 C     63   1   2     2.663369603746   130.72857083   344.92806763
 S     67  63   1     3.333639655462   122.51930626   358.64713276
 C     68  67  63     3.460118910028   102.53667477   161.93225341
 C     69  68  67     2.887196967044   108.74399364   198.71379807
 C     70  69  68     2.886055511576   112.26404941   183.84234280
 H      2   1   3     2.057172999146   122.37179863   177.78551746
 H      9   6   5     2.061670232317   120.41236097   178.67029146
 H     15   5   4     2.062652040745   121.53187725     2.44195580
 H     18  12  11     2.061200057691   125.57071943   359.18243279
 H     19   4   3     2.082101991691   108.61961492   179.16504091
 H     19   4   3     2.084461601772   108.03564327    64.69032952
 H     20  19   4     2.078426092286   111.07067151   300.48432056
 H     20  19   4     2.080881234591   110.88065742   180.97900097
 H     20  19   4     2.080906867853   111.54402842    60.56686902
 H     21   4   3     2.083628305250   107.68446145    51.12334587
 H     21   4   3     2.084766458697   107.06811002   297.57365364
 H     22  21   4     2.076398359940   111.71134077   297.39283706
 H     22  21   4     2.080798684991   109.87869153   178.83475570
 H     22  21   4     2.080933112842   112.59322548    59.22833625
 H     23  11  10     2.084219780142   107.95954930   184.06418865
 H     23  11  10     2.082613064557   108.38432017    69.72569808
 H     24  23  11     2.080428760228   112.11420291   298.28963082
 H     24  23  11     2.081033843755   110.54374242   177.90111746
 H     24  23  11     2.078877971779   110.93530959    58.95758935
 H     25  11  10     2.084809540739   106.99488289   173.54559910
 H     25  11  10     2.084124681582   107.67775575    60.02283503
 H     26  25  11     2.080688760049   112.62801356   301.30392002
 H     26  25  11     2.080863988861   109.82981294   181.69534312
 H     26  25  11     2.076161091124   111.74624619    63.14601984
 H     27  17  16     2.075527716934   115.17838214   211.12552322
 H     33  30  29     2.057357337119   123.65821138   356.75228485
 H     36  35  34     2.061966293020   120.94303244   180.58610063
 H     45   1   2     2.074615411887   126.98123649   314.61294689
 H     51  48  47     2.057992562353   123.57056831     0.43739645
 H     54  53  52     2.061702716888   120.81386435   179.53086758
 H     66  65  45     2.057453630381   121.49587740   356.55741807
 H     69  68  67     2.081739797427   109.44960318    77.45646693
 H     69  68  67     2.080602715257   108.57918420   319.19445965
 H     70  69  68     2.084050052711   108.56400165    61.66405028
 H     70  69  68     2.086281929981   109.42217020   305.90485063
 H     71  70  69     2.083645551751   111.37750124   301.39458639
 H     71  70  69     2.080701236838   110.82503953   181.52906256
 H     71  70  69     2.083459789516   111.40857369    61.56824755

---------------------
BASIS SET INFORMATION
---------------------
There are 6 groups of distinct atoms

 Group   1 Type C   : 11s6p2d1f contracted to 5s3p2d1f pattern {62111/411/11/1}
 Group   2 Type S   : 14s9p3d1f contracted to 5s5p2d1f pattern {73211/51111/21/1}
 Group   3 Type O   : 11s6p2d1f contracted to 5s3p2d1f pattern {62111/411/11/1}
 Group   4 Type F   : 11s6p2d1f contracted to 5s3p2d1f pattern {62111/411/11/1}
 Group   5 Type N   : 11s6p2d1f contracted to 5s3p2d1f pattern {62111/411/11/1}
 Group   6 Type H   : 5s1p contracted to 3s1p pattern {311/1}

Atom   0C    basis set group =>   1
Atom   1C    basis set group =>   1
Atom   2C    basis set group =>   1
Atom   3C    basis set group =>   1
Atom   4C    basis set group =>   1
Atom   5C    basis set group =>   1
Atom   6C    basis set group =>   1
Atom   7S    basis set group =>   2
Atom   8C    basis set group =>   1
Atom   9C    basis set group =>   1
Atom  10C    basis set group =>   1
Atom  11C    basis set group =>   1
Atom  12C    basis set group =>   1
Atom  13C    basis set group =>   1
Atom  14C    basis set group =>   1
Atom  15S    basis set group =>   2
Atom  16C    basis set group =>   1
Atom  17C    basis set group =>   1
Atom  18C    basis set group =>   1
Atom  19C    basis set group =>   1
Atom  20C    basis set group =>   1
Atom  21C    basis set group =>   1
Atom  22C    basis set group =>   1
Atom  23C    basis set group =>   1
Atom  24C    basis set group =>   1
Atom  25C    basis set group =>   1
Atom  26C    basis set group =>   1
Atom  27C    basis set group =>   1
Atom  28C    basis set group =>   1
Atom  29C    basis set group =>   1
Atom  30C    basis set group =>   1
Atom  31C    basis set group =>   1
Atom  32C    basis set group =>   1
Atom  33C    basis set group =>   1
Atom  34C    basis set group =>   1
Atom  35C    basis set group =>   1
Atom  36O    basis set group =>   3
Atom  37C    basis set group =>   1
Atom  38C    basis set group =>   1
Atom  39C    basis set group =>   1
Atom  40F    basis set group =>   4
Atom  41F    basis set group =>   4
Atom  42N    basis set group =>   5
Atom  43N    basis set group =>   5
Atom  44C    basis set group =>   1
Atom  45C    basis set group =>   1
Atom  46C    basis set group =>   1
Atom  47C    basis set group =>   1
Atom  48C    basis set group =>   1
Atom  49C    basis set group =>   1
Atom  50C    basis set group =>   1
Atom  51C    basis set group =>   1
Atom  52C    basis set group =>   1
Atom  53C    basis set group =>   1
Atom  54O    basis set group =>   3
Atom  55C    basis set group =>   1
Atom  56C    basis set group =>   1
Atom  57C    basis set group =>   1
Atom  58F    basis set group =>   4
Atom  59F    basis set group =>   4
Atom  60N    basis set group =>   5
Atom  61N    basis set group =>   5
Atom  62C    basis set group =>   1
Atom  63S    basis set group =>   2
Atom  64C    basis set group =>   1
Atom  65C    basis set group =>   1
Atom  66C    basis set group =>   1
Atom  67S    basis set group =>   2
Atom  68C    basis set group =>   1
Atom  69C    basis set group =>   1
Atom  70C    basis set group =>   1
Atom  71H    basis set group =>   6
Atom  72H    basis set group =>   6
Atom  73H    basis set group =>   6
Atom  74H    basis set group =>   6
Atom  75H    basis set group =>   6
Atom  76H    basis set group =>   6
Atom  77H    basis set group =>   6
Atom  78H    basis set group =>   6
Atom  79H    basis set group =>   6
Atom  80H    basis set group =>   6
Atom  81H    basis set group =>   6
Atom  82H    basis set group =>   6
Atom  83H    basis set group =>   6
Atom  84H    basis set group =>   6
Atom  85H    basis set group =>   6
Atom  86H    basis set group =>   6
Atom  87H    basis set group =>   6
Atom  88H    basis set group =>   6
Atom  89H    basis set group =>   6
Atom  90H    basis set group =>   6
Atom  91H    basis set group =>   6
Atom  92H    basis set group =>   6
Atom  93H    basis set group =>   6
Atom  94H    basis set group =>   6
Atom  95H    basis set group =>   6
Atom  96H    basis set group =>   6
Atom  97H    basis set group =>   6
Atom  98H    basis set group =>   6
Atom  99H    basis set group =>   6
Atom 100H    basis set group =>   6
Atom 101H    basis set group =>   6
Atom 102H    basis set group =>   6
Atom 103H    basis set group =>   6
Atom 104H    basis set group =>   6
Atom 105H    basis set group =>   6
Atom 106H    basis set group =>   6
Atom 107H    basis set group =>   6
Atom 108H    basis set group =>   6
---------------------------------
AUXILIARY/J BASIS SET INFORMATION
---------------------------------
There are 6 groups of distinct atoms

 Group   1 Type C   : 12s5p4d2f1g contracted to 6s4p3d1f1g pattern {711111/2111/211/2/1}
 Group   2 Type S   : 14s5p5d2f1g contracted to 8s4p3d1f1g pattern {71111111/2111/311/2/1}
 Group   3 Type O   : 12s5p4d2f1g contracted to 6s4p3d1f1g pattern {711111/2111/211/2/1}
 Group   4 Type F   : 12s5p4d2f1g contracted to 6s4p3d1f1g pattern {711111/2111/211/2/1}
 Group   5 Type N   : 12s5p4d2f1g contracted to 6s4p3d1f1g pattern {711111/2111/211/2/1}
 Group   6 Type H   : 5s2p1d contracted to 3s1p1d pattern {311/2/1}

Atom   0C    basis set group =>   1
Atom   1C    basis set group =>   1
Atom   2C    basis set group =>   1
Atom   3C    basis set group =>   1
Atom   4C    basis set group =>   1
Atom   5C    basis set group =>   1
Atom   6C    basis set group =>   1
Atom   7S    basis set group =>   2
Atom   8C    basis set group =>   1
Atom   9C    basis set group =>   1
Atom  10C    basis set group =>   1
Atom  11C    basis set group =>   1
Atom  12C    basis set group =>   1
Atom  13C    basis set group =>   1
Atom  14C    basis set group =>   1
Atom  15S    basis set group =>   2
Atom  16C    basis set group =>   1
Atom  17C    basis set group =>   1
Atom  18C    basis set group =>   1
Atom  19C    basis set group =>   1
Atom  20C    basis set group =>   1
Atom  21C    basis set group =>   1
Atom  22C    basis set group =>   1
Atom  23C    basis set group =>   1
Atom  24C    basis set group =>   1
Atom  25C    basis set group =>   1
Atom  26C    basis set group =>   1
Atom  27C    basis set group =>   1
Atom  28C    basis set group =>   1
Atom  29C    basis set group =>   1
Atom  30C    basis set group =>   1
Atom  31C    basis set group =>   1
Atom  32C    basis set group =>   1
Atom  33C    basis set group =>   1
Atom  34C    basis set group =>   1
Atom  35C    basis set group =>   1
Atom  36O    basis set group =>   3
Atom  37C    basis set group =>   1
Atom  38C    basis set group =>   1
Atom  39C    basis set group =>   1
Atom  40F    basis set group =>   4
Atom  41F    basis set group =>   4
Atom  42N    basis set group =>   5
Atom  43N    basis set group =>   5
Atom  44C    basis set group =>   1
Atom  45C    basis set group =>   1
Atom  46C    basis set group =>   1
Atom  47C    basis set group =>   1
Atom  48C    basis set group =>   1
Atom  49C    basis set group =>   1
Atom  50C    basis set group =>   1
Atom  51C    basis set group =>   1
Atom  52C    basis set group =>   1
Atom  53C    basis set group =>   1
Atom  54O    basis set group =>   3
Atom  55C    basis set group =>   1
Atom  56C    basis set group =>   1
Atom  57C    basis set group =>   1
Atom  58F    basis set group =>   4
Atom  59F    basis set group =>   4
Atom  60N    basis set group =>   5
Atom  61N    basis set group =>   5
Atom  62C    basis set group =>   1
Atom  63S    basis set group =>   2
Atom  64C    basis set group =>   1
Atom  65C    basis set group =>   1
Atom  66C    basis set group =>   1
Atom  67S    basis set group =>   2
Atom  68C    basis set group =>   1
Atom  69C    basis set group =>   1
Atom  70C    basis set group =>   1
Atom  71H    basis set group =>   6
Atom  72H    basis set group =>   6
Atom  73H    basis set group =>   6
Atom  74H    basis set group =>   6
Atom  75H    basis set group =>   6
Atom  76H    basis set group =>   6
Atom  77H    basis set group =>   6
Atom  78H    basis set group =>   6
Atom  79H    basis set group =>   6
Atom  80H    basis set group =>   6
Atom  81H    basis set group =>   6
Atom  82H    basis set group =>   6
Atom  83H    basis set group =>   6
Atom  84H    basis set group =>   6
Atom  85H    basis set group =>   6
Atom  86H    basis set group =>   6
Atom  87H    basis set group =>   6
Atom  88H    basis set group =>   6
Atom  89H    basis set group =>   6
Atom  90H    basis set group =>   6
Atom  91H    basis set group =>   6
Atom  92H    basis set group =>   6
Atom  93H    basis set group =>   6
Atom  94H    basis set group =>   6
Atom  95H    basis set group =>   6
Atom  96H    basis set group =>   6
Atom  97H    basis set group =>   6
Atom  98H    basis set group =>   6
Atom  99H    basis set group =>   6
Atom 100H    basis set group =>   6
Atom 101H    basis set group =>   6
Atom 102H    basis set group =>   6
Atom 103H    basis set group =>   6
Atom 104H    basis set group =>   6
Atom 105H    basis set group =>   6
Atom 106H    basis set group =>   6
Atom 107H    basis set group =>   6
Atom 108H    basis set group =>   6


           ************************************************************
           *        Program running with 6 parallel MPI-processes     *
           *              working on a common directory               *
           ************************************************************
------------------------------------------------------------------------------
                           ORCA GTO INTEGRAL CALCULATION
                           -- RI-GTO INTEGRALS CHOSEN --
------------------------------------------------------------------------------

                         BASIS SET STATISTICS AND STARTUP INFO

Gaussian basis set:
 # of primitive gaussian shells          ... 1676
 # of primitive gaussian functions       ... 3638
 # of contracted shells                  ...  941
 # of contracted basis functions         ... 2453
 Highest angular momentum                ...    3
 Maximum contraction depth               ...    7
Auxiliary gaussian basis set:
 # of primitive gaussian shells          ... 2020
 # of primitive gaussian functions       ... 5606
 # of contracted shells                  ... 1263
 # of contracted aux-basis functions     ... 3905
 Highest angular momentum                ...    4
 Maximum contraction depth               ...    7
Ratio of auxiliary to basis functions    ...  1.59
Integral package used                  ... LIBINT
 One Electron integrals                  ... done
 Ordering auxiliary basis shells         ... done
 Integral threshhold             Thresh  ...  2.500e-11
 Primitive cut-off               TCut    ...  2.500e-12
 Pre-screening matrix                    ... done
 Shell pair data                         ... 
 Ordering of the shell pairs             ... done (   0.035 sec) 146610 of 443211 pairs
 Determination of significant pairs      ... done (   0.001 sec)
 Creation of shell pair data             ... done (   0.016 sec)
 Storage of shell pair data              ... done (   0.027 sec)
 Shell pair data done in (   0.078 sec)
 Computing two index integrals           ... done
 Cholesky decomposition of the V-matrix  ... done


Timings:
 Total evaluation time                   ...   6.979 sec (  0.116 min)
 One electron matrix time                ...   2.417 sec (  0.040 min) = 34.6%
 Schwartz matrix evaluation time         ...   3.422 sec (  0.057 min) = 49.0%
 Two index repulsion integral time       ...   0.373 sec (  0.006 min) =  5.3%
 Cholesky decomposition of V             ...   0.672 sec (  0.011 min) =  9.6%
 Three index repulsion integral time     ...   0.000 sec (  0.000 min) =  0.0%



           ************************************************************
           *        Program running with 6 parallel MPI-processes     *
           *              working on a common directory               *
           ************************************************************
-------------------------------------------------------------------------------
                                 ORCA SCF
-------------------------------------------------------------------------------

------------
SCF SETTINGS
------------
Hamiltonian:
 Density Functional     Method          .... DFT(GTOs)
 Exchange Functional    Exchange        .... B88
   X-Alpha parameter    XAlpha          ....  0.666667
   Becke's b parameter  XBeta           ....  0.004200
 Correlation Functional Correlation     .... LYP
 LDA part of GGA corr.  LDAOpt          .... VWN-5
 Gradients option       PostSCFGGA      .... off
 Hybrid DFT is turned on
   Fraction HF Exchange ScalHFX         ....  0.200000
   Scaling of DF-GGA-X  ScalDFX         ....  0.720000
   Scaling of DF-GGA-C  ScalDFC         ....  0.810000
   Scaling of DF-LDA-C  ScalLDAC        ....  1.000000
   Perturbative correction              ....  0.000000
   Density functional embedding theory  .... OFF
   NL short-range parameter             ....  4.800000
 RI-approximation to the Coulomb term is turned on
   Number of auxiliary basis functions  .... 3905
   RIJ-COSX (HFX calculated with COS-X)).... on


General Settings:
 Integral files         IntName         .... IDST-4F
 Hartree-Fock type      HFTyp           .... RHF
 Total Charge           Charge          ....    0
 Multiplicity           Mult            ....    1
 Number of Electrons    NEL             ....  524
 Basis Dimension        Dim             .... 2453
 Nuclear Repulsion      ENuc            ....  10794.2833883527 Eh

Convergence Acceleration:
 DIIS                   CNVDIIS         .... on
   Start iteration      DIISMaxIt       ....    12
   Startup error        DIISStart       ....  0.200000
   # of expansion vecs  DIISMaxEq       ....     5
   Bias factor          DIISBfac        ....   1.050
   Max. coefficient     DIISMaxC        ....  10.000
 Newton-Raphson         CNVNR           .... off
 SOSCF                  CNVSOSCF        .... on
   Start iteration      SOSCFMaxIt      ....   150
   Startup grad/error   SOSCFStart      ....  0.003300
 Level Shifting         CNVShift        .... on
   Level shift para.    LevelShift      ....    0.2500
   Turn off err/grad.   ShiftErr        ....    0.0010
 Zerner damping         CNVZerner       .... off
 Static damping         CNVDamp         .... on
   Fraction old density DampFac         ....    0.7000
   Max. Damping (<1)    DampMax         ....    0.9800
   Min. Damping (>=0)   DampMin         ....    0.0000
   Turn off err/grad.   DampErr         ....    0.1000
 Fernandez-Rico         CNVRico         .... off

SCF Procedure:
 Maximum # iterations   MaxIter         ....   125
 SCF integral mode      SCFMode         .... Direct
   Integral package                     .... LIBINT
 Reset frequency        DirectResetFreq ....    20
 Integral Threshold     Thresh          ....  2.500e-11 Eh
 Primitive CutOff       TCut            ....  2.500e-12 Eh

Convergence Tolerance:
 Convergence Check Mode ConvCheckMode   .... Total+1el-Energy
 Convergence forced     ConvForced      .... 1
 Energy Change          TolE            ....  1.000e-08 Eh
 1-El. energy change                    ....  1.000e-05 Eh
 Orbital Gradient       TolG            ....  1.000e-05
 Orbital Rotation angle TolX            ....  1.000e-05
 DIIS Error             TolErr          ....  5.000e-07


Diagonalization of the overlap matrix:
Smallest eigenvalue                        ... 2.997e-06
Time for diagonalization                   ...    1.010 sec
Threshold for overlap eigenvalues          ... 1.000e-08
Number of eigenvalues below threshold      ... 0
Time for construction of square roots      ...    0.784 sec
Total time needed                          ...    1.808 sec

-------------------
DFT GRID GENERATION
-------------------

General Integration Accuracy     IntAcc      ...  4.670
Radial Grid Type                 RadialGrid  ... Gauss-Chebyshev
Angular Grid (max. acc.)         AngularGrid ... Lebedev-302
Angular grid pruning method      GridPruning ... 3 (G Style)
Weight generation scheme         WeightScheme... Becke
Basis function cutoff            BFCut       ...    1.0000e-11
Integration weight cutoff        WCut        ...    1.0000e-14
Grids for H and He will be reduced by one unit

# of grid points (after initial pruning)     ... 572800 (   0.0 sec)
# of grid points (after weights+screening)   ... 486571 (   4.3 sec)
nearest neighbour list constructed           ...    0.0 sec
Grid point re-assignment to atoms done       ...    0.1 sec
Grid point division into batches done        ...    1.7 sec
Reduced shell lists constructed in    4.1 sec

Total number of grid points                  ...   486571
Total number of batches                      ...     7658
Average number of points per batch           ...       63
Average number of grid points per atom       ...     4464
Average number of shells per batch           ...   238.74 (25.37%)
Average number of basis functions per batch  ...   587.14 (23.94%)
Average number of large shells per batch     ...   144.37 (60.47%)
Average number of large basis fcns per batch ...   363.96 (61.99%)
Maximum spatial batch extension              ...  16.45,  8.14, 18.73 au
Average spatial batch extension              ...   0.25,  0.22,  0.25 au

Time for grid setup =    8.748 sec

------------------------------
INITIAL GUESS: MODEL POTENTIAL
------------------------------
Loading Hartree-Fock densities                     ... done
Calculating cut-offs                               ... done
Setting up the integral package                    ... done
Initializing the effective Hamiltonian             ... done
Starting the Coulomb interaction                   ... done (   4.7 sec)
Reading the grid                                   ... done
Mapping shells                                     ... done
Starting the XC term evaluation                    ... done (   4.2 sec)
  promolecular density results
     # of electrons  =    523.982103148
     EX              =   -487.268241506
     EC              =    -18.478858747
     EX+EC           =   -505.747100253
Transforming the Hamiltonian                       ... done (   0.6 sec)
Diagonalizing the Hamiltonian                      ... done (   1.1 sec)
Back transforming the eigenvectors                 ... done (   0.3 sec)
Now organizing SCF variables                       ... done
                      ------------------
                      INITIAL GUESS DONE (  20.0 sec)
                      ------------------
--------------------
COSX GRID GENERATION
--------------------

General Integration Accuracy     IntAcc      ...  3.340
Radial Grid Type                 RadialGrid  ... Gauss-Chebyshev
Angular Grid (max. acc.)         AngularGrid ... Lebedev-50
Angular grid pruning method      GridPruning ... 3 (G Style)
Weight generation scheme         WeightScheme... Becke
Basis function cutoff            BFCut       ...    1.0000e-11
Integration weight cutoff        WCut        ...    1.0000e-14
Grids for H and He will be reduced by one unit

# of grid points (after initial pruning)     ...  53788 (   0.0 sec)
# of grid points (after weights+screening)   ...  47759 (   0.4 sec)
nearest neighbour list constructed           ...    0.0 sec
Grid point re-assignment to atoms done       ...    0.0 sec
Grid point division into batches done        ...    0.0 sec
Reduced shell lists constructed in    0.3 sec

Total number of grid points                  ...    47759
Total number of batches                      ...      802
Average number of points per batch           ...       59
Average number of grid points per atom       ...      438
Average number of shells per batch           ...   276.85 (29.42%)
Average number of basis functions per batch  ...   688.72 (28.08%)
Average number of large shells per batch     ...   168.58 (60.89%)
Average number of large basis fcns per batch ...   429.82 (62.41%)
Maximum spatial batch extension              ...  12.89,  7.73, 15.43 au
Average spatial batch extension              ...   0.51,  0.43,  0.51 au

Overlap Fitting                  UseSFitting ... on
Constructing numerical overlap ... done (      0.3 sec)
Inverting numerical overlap    ... done (      0.3 sec)
Obtaining analytic overlap     ... done (      0.0 sec)
Final contraction and storage  ... done (      0.5 sec)


General Integration Accuracy     IntAcc      ...  3.670
Radial Grid Type                 RadialGrid  ... Gauss-Chebyshev
Angular Grid (max. acc.)         AngularGrid ... Lebedev-50
Angular grid pruning method      GridPruning ... 3 (G Style)
Weight generation scheme         WeightScheme... Becke
Basis function cutoff            BFCut       ...    1.0000e-11
Integration weight cutoff        WCut        ...    1.0000e-14
Grids for H and He will be reduced by one unit

# of grid points (after initial pruning)     ...  67398 (   0.0 sec)
# of grid points (after weights+screening)   ...  59532 (   0.5 sec)
nearest neighbour list constructed           ...    0.0 sec
Grid point re-assignment to atoms done       ...    0.0 sec
Grid point division into batches done        ...    0.0 sec
Reduced shell lists constructed in    0.4 sec

Total number of grid points                  ...    59532
Total number of batches                      ...      978
Average number of points per batch           ...       60
Average number of grid points per atom       ...      546
Average number of shells per batch           ...   273.97 (29.11%)
Average number of basis functions per batch  ...   681.45 (27.78%)
Average number of large shells per batch     ...   166.30 (60.70%)
Average number of large basis fcns per batch ...   423.59 (62.16%)
Maximum spatial batch extension              ...  13.66,  7.77, 18.50 au
Average spatial batch extension              ...   0.48,  0.40,  0.50 au

Overlap Fitting                  UseSFitting ... on
Constructing numerical overlap ... done (      0.4 sec)
Inverting numerical overlap    ... done (      0.3 sec)
Obtaining analytic overlap     ... done (      0.0 sec)
Final contraction and storage  ... done (      0.5 sec)


General Integration Accuracy     IntAcc      ...  4.010
Radial Grid Type                 RadialGrid  ... Gauss-Chebyshev
Angular Grid (max. acc.)         AngularGrid ... Lebedev-110
Angular grid pruning method      GridPruning ... 3 (G Style)
Weight generation scheme         WeightScheme... Becke
Basis function cutoff            BFCut       ...    1.0000e-11
Integration weight cutoff        WCut        ...    1.0000e-14
Grids for H and He will be reduced by one unit

# of grid points (after initial pruning)     ... 130088 (   0.0 sec)
# of grid points (after weights+screening)   ... 114027 (   1.0 sec)
nearest neighbour list constructed           ...    0.0 sec
Grid point re-assignment to atoms done       ...    0.0 sec
Grid point division into batches done        ...    0.1 sec
Reduced shell lists constructed in    0.7 sec

Total number of grid points                  ...   114027
Total number of batches                      ...     1837
Average number of points per batch           ...       62
Average number of grid points per atom       ...     1046
Average number of shells per batch           ...   259.86 (27.61%)
Average number of basis functions per batch  ...   643.45 (26.23%)
Average number of large shells per batch     ...   158.46 (60.98%)
Average number of large basis fcns per batch ...   402.30 (62.52%)
Maximum spatial batch extension              ...  16.10,  6.97, 17.10 au
Average spatial batch extension              ...   0.40,  0.35,  0.41 au

Overlap Fitting                  UseSFitting ... on
Constructing numerical overlap ... done (      0.6 sec)
Inverting numerical overlap    ... done (      0.3 sec)
Obtaining analytic overlap     ... done (      0.0 sec)
Final contraction and storage  ... done (      0.5 sec)

Time for X-Grid setup             =    7.281 sec
--------------
SCF ITERATIONS
--------------
ITER       Energy         Delta-E        Max-DP      RMS-DP      [F,P]     Damp
               ***  Starting incremental Fock matrix formation  ***
  0  -4553.8237245291   0.000000000000 0.20215250  0.00083372  0.3021348 0.7000
  1  -4554.7215505944  -0.897826065284 0.18070258  0.00066318  0.1047353 0.7000
                               ***Turning on DIIS***
  2  -4555.0208195121  -0.299268917646 0.23609474  0.00092880  0.0482420 0.0000
  3  -4555.5520690269  -0.531249514825 0.17507348  0.00061068  0.0567684 0.0000
  4  -4555.6540294798  -0.101960452903 0.04816793  0.00018386  0.0398510 0.0000
  5  -4555.6703161172  -0.016286637425 0.01979587  0.00008939  0.0094027 0.0000
                      *** Initiating the SOSCF procedure ***
                           *** Shutting down DIIS ***
                      *** Re-Reading the Fockian *** 
                      *** Removing any level shift *** 
ITER      Energy       Delta-E        Grad      Rot      Max-DP    RMS-DP
  6  -4555.67134460  -0.0010284791  0.001159  0.001159  0.005993  0.000029
               *** Restarting incremental Fock matrix formation ***
  7  -4555.67147556  -0.0001309658  0.000763  0.009916  0.005963  0.000043
  8  -4555.67149752  -0.0000219587  0.000343  0.004632  0.002813  0.000022
  9  -4555.67152506  -0.0000275411  0.000284  0.003922  0.002632  0.000018
 10  -4555.67152965  -0.0000045861  0.000150  0.000738  0.000890  0.000007
 11  -4555.67153408  -0.0000044352  0.000122  0.001607  0.000963  0.000007
 12  -4555.67153418  -0.0000000978  0.000085  0.000271  0.000463  0.000003
 13  -4555.67153589  -0.0000017093  0.000033  0.000623  0.000615  0.000004
 14  -4555.67153594  -0.0000000492  0.000041  0.000088  0.000364  0.000001
 15  -4555.67153641  -0.0000004673  0.000021  0.000305  0.001310  0.000003
 16  -4555.67153625   0.0000001526  0.000023  0.000072  0.000403  0.000001
 17  -4555.67153642  -0.0000001675  0.000010  0.000142  0.000841  0.000002
 18  -4555.67153653  -0.0000001117  0.000010  0.000047  0.000207  0.000001
 19  -4555.67153638   0.0000001531  0.000004  0.000080  0.001190  0.000002
 20  -4555.67153628   0.0000001008  0.000007  0.000045  0.000216  0.000001
                  ***Gradient check signals convergence***
              ***Rediagonalizing the Fockian in SOSCF/NRSCF***

               *****************************************************
               *                     SUCCESS                       *
               *           SCF CONVERGED AFTER  21 CYCLES          *
               *****************************************************

Setting up the final grid:

General Integration Accuracy     IntAcc      ...  5.010
Radial Grid Type                 RadialGrid  ... Gauss-Chebyshev
Angular Grid (max. acc.)         AngularGrid ... Lebedev-434
Angular grid pruning method      GridPruning ... 3 (G Style)
Weight generation scheme         WeightScheme... Becke
Basis function cutoff            BFCut       ...    1.0000e-11
Integration weight cutoff        WCut        ...    1.0000e-14
Grids for H and He will be reduced by one unit

# of grid points (after initial pruning)     ... 1018358 (   0.1 sec)
# of grid points (after weights+screening)   ... 862129 (   7.4 sec)
nearest neighbour list constructed           ...    0.0 sec
Grid point re-assignment to atoms done       ...    0.1 sec
Grid point division into batches done        ...    5.4 sec
Reduced shell lists constructed in   10.0 sec

Total number of grid points                  ...   862129
Total number of batches                      ...    13528
Average number of points per batch           ...       63
Average number of grid points per atom       ...     7909
Average number of shells per batch           ...   231.94 (24.65%)
Average number of basis functions per batch  ...   567.83 (23.15%)
Average number of large shells per batch     ...   139.37 (60.09%)
Average number of large basis fcns per batch ...   350.20 (61.67%)
Maximum spatial batch extension              ...  16.47,  9.28, 14.60 au
Average spatial batch extension              ...   0.20,  0.18,  0.20 au

Final grid set up in   18.4 sec
Final integration                            ... done (  10.2 sec)
Change in XC energy                          ...     0.000021905
Integrated number of electrons               ...   523.999996975
Previous integrated no of electrons          ...   524.000386361
Old exchange energy                            =    -98.419714953 Eh
New exchange energy                            =    -98.421221516 Eh
Exchange energy change after final integration =     -0.001506564 Eh
Total energy after final integration           =  -4555.673021125 Eh
Final COS-X integration done in                =   266.187 sec

----------------
TOTAL SCF ENERGY
----------------

Total Energy       :        -4555.67302112 Eh         -123966.16522 eV

Components:
Nuclear Repulsion  :        10794.28338835 Eh          293727.38381 eV
Electronic Energy  :       -15349.95640948 Eh         -417693.54903 eV
One Electron Energy:       -27741.02761857 Eh         -754871.73844 eV
Two Electron Energy:        12391.07120909 Eh          337178.18941 eV

Virial components:
Potential Energy   :        -9094.76549442 Eh         -247481.15080 eV
Kinetic Energy     :         4539.09247329 Eh          123514.98558 eV
Virial Ratio       :            2.00365283


DFT components:
N(Alpha)           :      261.999998487321 electrons
N(Beta)            :      261.999998487321 electrons
N(Total)           :      523.999996974642 electrons
E(X)               :     -391.245313290651 Eh       
E(C)               :      -21.716615828621 Eh       
E(XC)              :     -412.961929119273 Eh       
DFET-embed. en.    :        0.000000000000 Eh       

---------------
SCF CONVERGENCE
---------------

  Last Energy change         ...   -1.8659e-07  Tolerance :   1.0000e-08
  Last MAX-Density change    ...    7.1054e-15  Tolerance :   1.0000e-07
  Last RMS-Density change    ...    1.2082e-17  Tolerance :   5.0000e-09
  Last Orbital Gradient      ...    2.0110e-06  Tolerance :   1.0000e-05
  Last Orbital Rotation      ...    2.4394e-05  Tolerance :   1.0000e-05

             **** THE GBW FILE WAS UPDATED (IDST-4F.gbw) ****
             **** DENSITY FILE WAS UPDATED (IDST-4F.scfp) ****
             **** ENERGY FILE WAS UPDATED (IDST-4F.en.tmp) ****
             **** THE GBW FILE WAS UPDATED (IDST-4F.gbw) ****
             **** DENSITY FILE WAS UPDATED (IDST-4F.scfp) ****
----------------
ORBITAL ENERGIES
----------------

  NO   OCC          E(Eh)            E(eV) 
   0   2.0000     -88.910865     -2419.3876 
   1   2.0000     -88.908977     -2419.3363 
   2   2.0000     -88.908326     -2419.3186 
   3   2.0000     -88.881465     -2418.5876 
   4   2.0000     -24.727426      -672.8675 
   5   2.0000     -24.726615      -672.8454 
   6   2.0000     -24.726248      -672.8354 
   7   2.0000     -24.725169      -672.8061 
   8   2.0000     -19.134236      -520.6690 
   9   2.0000     -19.131878      -520.6049 
  10   2.0000     -14.334554      -390.0630 
  11   2.0000     -14.332814      -390.0157 
  12   2.0000     -14.331030      -389.9672 
  13   2.0000     -14.330998      -389.9663 
  14   2.0000     -10.301923      -280.3296 
  15   2.0000     -10.301138      -280.3082 
  16   2.0000     -10.300505      -280.2910 
  17   2.0000     -10.299841      -280.2729 
  18   2.0000     -10.282077      -279.7896 
  19   2.0000     -10.278947      -279.7044 
  20   2.0000     -10.264050      -279.2990 
  21   2.0000     -10.261892      -279.2403 
  22   2.0000     -10.260940      -279.2144 
  23   2.0000     -10.260458      -279.2013 
  24   2.0000     -10.252034      -278.9720 
  25   2.0000     -10.243421      -278.7377 
  26   2.0000     -10.240212      -278.6503 
  27   2.0000     -10.240098      -278.6472 
  28   2.0000     -10.237798      -278.5846 
  29   2.0000     -10.236302      -278.5439 
  30   2.0000     -10.235091      -278.5110 
  31   2.0000     -10.234603      -278.4977 
  32   2.0000     -10.234243      -278.4879 
  33   2.0000     -10.233889      -278.4783 
  34   2.0000     -10.233479      -278.4671 
  35   2.0000     -10.232523      -278.4411 
  36   2.0000     -10.230799      -278.3942 
  37   2.0000     -10.229842      -278.3682 
  38   2.0000     -10.225434      -278.2482 
  39   2.0000     -10.224423      -278.2207 
  40   2.0000     -10.223822      -278.2043 
  41   2.0000     -10.223761      -278.2027 
  42   2.0000     -10.221755      -278.1481 
  43   2.0000     -10.221651      -278.1453 
  44   2.0000     -10.220951      -278.1262 
  45   2.0000     -10.219192      -278.0783 
  46   2.0000     -10.218280      -278.0535 
  47   2.0000     -10.217992      -278.0457 
  48   2.0000     -10.217657      -278.0366 
  49   2.0000     -10.215810      -277.9863 
  50   2.0000     -10.215530      -277.9787 
  51   2.0000     -10.215250      -277.9711 
  52   2.0000     -10.214693      -277.9559 
  53   2.0000     -10.214448      -277.9493 
  54   2.0000     -10.208339      -277.7830 
  55   2.0000     -10.207327      -277.7555 
  56   2.0000     -10.207065      -277.7484 
  57   2.0000     -10.204607      -277.6815 
  58   2.0000     -10.203217      -277.6437 
  59   2.0000     -10.202543      -277.6253 
  60   2.0000     -10.201352      -277.5929 
  61   2.0000     -10.196948      -277.4731 
  62   2.0000     -10.190423      -277.2955 
  63   2.0000     -10.190020      -277.2845 
  64   2.0000     -10.189142      -277.2607 
  65   2.0000     -10.185328      -277.1569 
  66   2.0000     -10.182306      -277.0746 
  67   2.0000     -10.174440      -276.8606 
  68   2.0000     -10.174223      -276.8547 
  69   2.0000     -10.169912      -276.7374 
  70   2.0000     -10.159552      -276.4555 
  71   2.0000      -7.986830      -217.3327 
  72   2.0000      -7.985687      -217.3016 
  73   2.0000      -7.984437      -217.2676 
  74   2.0000      -7.958181      -216.5531 
  75   2.0000      -5.949319      -161.8892 
  76   2.0000      -5.948215      -161.8592 
  77   2.0000      -5.946960      -161.8250 
  78   2.0000      -5.945599      -161.7880 
  79   2.0000      -5.944456      -161.7569 
  80   2.0000      -5.943496      -161.7307 
  81   2.0000      -5.943231      -161.7235 
  82   2.0000      -5.942098      -161.6927 
  83   2.0000      -5.941021      -161.6634 
  84   2.0000      -5.921283      -161.1263 
  85   2.0000      -5.917883      -161.0338 
  86   2.0000      -5.912957      -160.8997 
  87   2.0000      -1.273688       -34.6588 
  88   2.0000      -1.272081       -34.6151 
  89   2.0000      -1.259056       -34.2607 
  90   2.0000      -1.257839       -34.2275 
  91   2.0000      -1.061944       -28.8970 
  92   2.0000      -1.059086       -28.8192 
  93   2.0000      -0.939360       -25.5613 
  94   2.0000      -0.938266       -25.5315 
  95   2.0000      -0.933457       -25.4006 
  96   2.0000      -0.927415       -25.2362 
  97   2.0000      -0.921392       -25.0723 
  98   2.0000      -0.919447       -25.0194 
  99   2.0000      -0.919248       -25.0140 
 100   2.0000      -0.918494       -24.9935 
 101   2.0000      -0.915630       -24.9155 
 102   2.0000      -0.886250       -24.1161 
 103   2.0000      -0.876764       -23.8580 
 104   2.0000      -0.873494       -23.7690 
 105   2.0000      -0.862095       -23.4588 
 106   2.0000      -0.842780       -22.9332 
 107   2.0000      -0.832282       -22.6476 
 108   2.0000      -0.826993       -22.5036 
 109   2.0000      -0.824362       -22.4320 
 110   2.0000      -0.817656       -22.2495 
 111   2.0000      -0.812854       -22.1189 
 112   2.0000      -0.800751       -21.7895 
 113   2.0000      -0.798022       -21.7153 
 114   2.0000      -0.796181       -21.6652 
 115   2.0000      -0.789765       -21.4906 
 116   2.0000      -0.777620       -21.1601 
 117   2.0000      -0.768622       -20.9153 
 118   2.0000      -0.767015       -20.8715 
 119   2.0000      -0.764975       -20.8160 
 120   2.0000      -0.760472       -20.6935 
 121   2.0000      -0.759488       -20.6667 
 122   2.0000      -0.756882       -20.5958 
 123   2.0000      -0.738063       -20.0837 
 124   2.0000      -0.731631       -19.9087 
 125   2.0000      -0.716712       -19.5027 
 126   2.0000      -0.699618       -19.0376 
 127   2.0000      -0.698554       -19.0086 
 128   2.0000      -0.695338       -18.9211 
 129   2.0000      -0.692463       -18.8429 
 130   2.0000      -0.685782       -18.6611 
 131   2.0000      -0.672315       -18.2946 
 132   2.0000      -0.666828       -18.1453 
 133   2.0000      -0.653039       -17.7701 
 134   2.0000      -0.644326       -17.5330 
 135   2.0000      -0.636417       -17.3178 
 136   2.0000      -0.634153       -17.2562 
 137   2.0000      -0.628685       -17.1074 
 138   2.0000      -0.624461       -16.9924 
 139   2.0000      -0.624190       -16.9851 
 140   2.0000      -0.615400       -16.7459 
 141   2.0000      -0.613980       -16.7073 
 142   2.0000      -0.610743       -16.6192 
 143   2.0000      -0.605138       -16.4666 
 144   2.0000      -0.598554       -16.2875 
 145   2.0000      -0.592499       -16.1227 
 146   2.0000      -0.587365       -15.9830 
 147   2.0000      -0.578974       -15.7547 
 148   2.0000      -0.575554       -15.6616 
 149   2.0000      -0.572933       -15.5903 
 150   2.0000      -0.571555       -15.5528 
 151   2.0000      -0.567173       -15.4336 
 152   2.0000      -0.560070       -15.2403 
 153   2.0000      -0.548281       -14.9195 
 154   2.0000      -0.547082       -14.8869 
 155   2.0000      -0.544208       -14.8087 
 156   2.0000      -0.539038       -14.6680 
 157   2.0000      -0.532277       -14.4840 
 158   2.0000      -0.528492       -14.3810 
 159   2.0000      -0.527329       -14.3494 
 160   2.0000      -0.522802       -14.2262 
 161   2.0000      -0.521280       -14.1847 
 162   2.0000      -0.520945       -14.1756 
 163   2.0000      -0.513255       -13.9664 
 164   2.0000      -0.501736       -13.6529 
 165   2.0000      -0.495878       -13.4935 
 166   2.0000      -0.495352       -13.4792 
 167   2.0000      -0.487878       -13.2758 
 168   2.0000      -0.486678       -13.2432 
 169   2.0000      -0.486098       -13.2274 
 170   2.0000      -0.482684       -13.1345 
 171   2.0000      -0.481519       -13.1028 
 172   2.0000      -0.480580       -13.0773 
 173   2.0000      -0.480358       -13.0712 
 174   2.0000      -0.478449       -13.0193 
 175   2.0000      -0.472913       -12.8686 
 176   2.0000      -0.467062       -12.7094 
 177   2.0000      -0.465481       -12.6664 
 178   2.0000      -0.463416       -12.6102 
 179   2.0000      -0.461846       -12.5675 
 180   2.0000      -0.460123       -12.5206 
 181   2.0000      -0.459353       -12.4996 
 182   2.0000      -0.458392       -12.4735 
 183   2.0000      -0.455157       -12.3854 
 184   2.0000      -0.454467       -12.3667 
 185   2.0000      -0.450664       -12.2632 
 186   2.0000      -0.448702       -12.2098 
 187   2.0000      -0.447768       -12.1844 
 188   2.0000      -0.442037       -12.0284 
 189   2.0000      -0.440331       -11.9820 
 190   2.0000      -0.439401       -11.9567 
 191   2.0000      -0.436517       -11.8782 
 192   2.0000      -0.432572       -11.7709 
 193   2.0000      -0.430803       -11.7227 
 194   2.0000      -0.429075       -11.6757 
 195   2.0000      -0.427027       -11.6200 
[...]
   Maximum Energy change  :     0.000007583440 (vector 2)
   Maximum residual norm  :     0.000001004730

                       ****Iteration    6****
   Time for densities:     5.827
   Time for K (COSX):   234.277
   Time for XC-Integration:     3.875
   Time for Sigma-Completion:    16.598
   Size of expansion space: 15
   Lowest Energy          :     0.041451038822
   Maximum Energy change  :     0.000000805523 (vector 2)
   Maximum residual norm  :     0.000000871431
   Rebuilding the expansion space

                       ****Iteration    7****
   Time for densities:    11.476
   Time for K (COSX):   237.747
   Time for XC-Integration:     7.365
   Time for Sigma-Completion:    32.759
   Size of expansion space: 6
   Lowest Energy          :     0.041451038495
   Maximum Energy change  :     0.000001172558 (vector 2)
   Maximum residual norm  :     0.000001458949

                       ****Iteration    8****
   Time for densities:     5.734
   Time for K (COSX):   240.550
   Time for XC-Integration:     4.018
   Time for Sigma-Completion:    16.346
   Size of expansion space: 9
   Lowest Energy          :     0.041451038493
   Maximum Energy change  :     0.000012547150 (vector 2)
   Maximum residual norm  :     0.000003296780

                       ****Iteration    9****
   Time for densities:     5.644
   Time for K (COSX):   245.437
   Time for XC-Integration:     4.233
   Time for Sigma-Completion:    16.301
   Size of expansion space: 12
   Lowest Energy          :     0.041451038493
   Maximum Energy change  :     0.000010669120 (vector 2)
   Maximum residual norm  :     0.000000787736

                       ****Iteration   10****
   Time for densities:     3.781
   Time for K (COSX):   243.464
   Time for XC-Integration:     2.841
   Time for Sigma-Completion:    10.947
   Size of expansion space: 14
   Lowest Energy          :     0.041451038493
   Maximum Energy change  :     0.000004497097 (vector 2)
   Maximum residual norm  :     0.000000395692
   Rebuilding the expansion space

                       ****Iteration   11****
   Time for densities:     9.525
   Time for K (COSX):   239.484
   Time for XC-Integration:     6.139
   Time for Sigma-Completion:    32.957
   Size of expansion space: 5
   Lowest Energy          :     0.041451038515
   Maximum Energy change  :     0.000001344647 (vector 2)
   Maximum residual norm  :     0.000000130638

      *** CONVERGENCE OF RESIDUAL NORM REACHED ***

Storing the converged CI vectors               ... IDST-4F.cis3

                 *** DAVIDSON DONE ***

------------------------------------
TD-DFT/TDA EXCITED STATES (TRIPLETS)
------------------------------------

the weight of the individual excitations are printed if larger than 1.0e-02

STATE  1:  E=   0.041451 au      1.128 eV     9097.5 cm**-1
   260a -> 263a  :     0.045471 (c= -0.21323985)
   261a -> 262a  :     0.873373 (c= -0.93454443)
   261a -> 263a  :     0.026939 (c=  0.16413163)

STATE  2:  E=   0.050713 au      1.380 eV    11130.2 cm**-1
   260a -> 262a  :     0.196497 (c=  0.44327992)
   260a -> 263a  :     0.036864 (c=  0.19200088)
   261a -> 262a  :     0.021548 (c=  0.14679186)
   261a -> 263a  :     0.690693 (c=  0.83107924)
   261a -> 265a  :     0.011740 (c= -0.10835209)

STATE  3:  E=   0.071298 au      1.940 eV    15648.1 cm**-1
   258a -> 262a  :     0.011535 (c=  0.10740251)
   258a -> 263a  :     0.017418 (c=  0.13197863)
   259a -> 263a  :     0.032891 (c= -0.18135812)
   260a -> 262a  :     0.428248 (c= -0.65440661)
   260a -> 263a  :     0.078630 (c= -0.28041042)
   260a -> 264a  :     0.012350 (c=  0.11112927)
   261a -> 263a  :     0.227667 (c=  0.47714440)
   261a -> 264a  :     0.106722 (c= -0.32668284)
   261a -> 265a  :     0.016603 (c=  0.12885080)
   261a -> 266a  :     0.014256 (c=  0.11939900)

------------------------------
TD-DFT/TDA SPIN-ORBIT COUPLING
------------------------------

Calculating the spin-orbit integrals:             

Loading the effective charges         ... done
Entering the SOC calc. section        ... 
------------------------------------------------------------------------------
                         ORCA SPIN-ORBIT COUPLING CALCULATION
------------------------------------------------------------------------------

GBW file                                    ... IDST-4F.gbw
Input density                               ... IDST-4F.cisp0
Output integrals                            ... IDST-4F.cis
Operator type                               ... Mean-field/Effective potential
   One-Electron Terms                       ... 1
   Coulomb Contribution                     ... 2
   Exchange Contribution                    ... 3
   Correlation Contribution                 ... 0
   Maximum number of centers                ... 4
Setting up the integration grid             ... done
Evaluating density on the grid              ... (NumEl=  524.000386) done
Evaluating Coulomb term semi-analytically   ... done
One-Center Exchange (+SOO)                  ... done
Evaluating the spin-orbit operator          ... done
Transforming the SOC integrals              ... done
Constructing the SOC matrix:                ... done
Diagonalizing the SOC matrix:               ... done

      --------------------------------------------------------------------------------
                      CALCULATED SOCME BETWEEN TRIPLETS AND SINGLETS                  
      --------------------------------------------------------------------------------
           Root                          <T|HSO|S>  (Re, Im) cm-1                     
         T      S             Z                     X                     Y           
      --------------------------------------------------------------------------------
         1      0    (   0.00 ,   -0.68 )    (   0.00 ,   -0.77 )    (  -0.00 ,    0.82 )
         1      1    (   0.00 ,   -0.39 )    (   0.00 ,   -0.45 )    (  -0.00 ,   -0.38 )
         1      2    (   0.00 ,   -0.03 )    (   0.00 ,    0.13 )    (  -0.00 ,    0.49 )
         1      3    (   0.00 ,    0.22 )    (   0.00 ,    0.12 )    (  -0.00 ,   -0.28 )
         2      0    (   0.00 ,   -0.71 )    (   0.00 ,   -0.87 )    (  -0.00 ,    0.04 )
         2      1    (   0.00 ,   -0.12 )    (   0.00 ,   -0.05 )    (  -0.00 ,    0.29 )
         2      2    (   0.00 ,    0.26 )    (   0.00 ,    0.01 )    (  -0.00 ,    0.47 )
         2      3    (   0.00 ,    0.20 )    (   0.00 ,   -0.17 )    (  -0.00 ,    0.50 )
         3      0    (   0.00 ,    1.72 )    (   0.00 ,    1.81 )    (  -0.00 ,    0.73 )
         3      1    (   0.00 ,    0.23 )    (   0.00 ,    0.01 )    (  -0.00 ,    0.68 )
         3      2    (   0.00 ,    0.12 )    (   0.00 ,    0.22 )    (  -0.00 ,   -0.24 )
         3      3    (   0.00 ,    0.01 )    (   0.00 ,   -0.05 )    (  -0.00 ,    0.45 )

SOC stabilization of the ground state:  -0.0007 cm-1
Eigenvalues of the SOC matrix:

   State:        cm-1         eV
     0:          0.00         0.0000
     1:       9097.45         1.1279
     2:       9097.45         1.1279
     3:       9097.45         1.1279
     4:      11130.22         1.3800
     5:      11130.22         1.3800
     6:      11130.22         1.3800
     7:      13416.37         1.6634
     8:      15317.70         1.8992
     9:      15648.05         1.9401
    10:      15648.05         1.9401
    11:      15648.05         1.9401
    12:      18201.64         2.2567

The threshold for printing is 0.0100
Eigenvectors of the SOC matrix:

             E(cm-1)  Weight      Real         Imag     : Root  Spin  Ms
 STATE  0:      0.00
                      1.00000      0.37332      0.92770 : 0     0     0
 STATE  1:   9097.45
                      0.31304      0.55026      0.10127 : 1     1     0
                      0.34348      0.46785     -0.35298 : 1     1    -1
                      0.34348     -0.31154     -0.49641 : 1     1     1
 STATE  2:   9097.45
                      0.50675      0.66194      0.26188 : 1     1     0
                      0.24663     -0.46378     -0.17757 : 1     1    -1
                      0.24663      0.45974      0.18780 : 1     1     1
 STATE  3:   9097.45
                      0.18022     -0.42104     -0.05422 : 1     1     0
                      0.40989     -0.23643     -0.59497 : 1     1    -1
                      0.40989      0.37945     -0.51567 : 1     1     1
 STATE  4:  11130.22
                      0.49950      0.23725      0.66574 : 2     1    -1
                      0.49950     -0.02776      0.70621 : 2     1     1
 STATE  5:  11130.22
                      0.66608      0.56619      0.58780 : 2     1     0
                      0.16696     -0.32332     -0.24985 : 2     1    -1
                      0.16696      0.23757      0.33245 : 2     1     1
 STATE  6:  11130.22
                      0.33292     -0.55537      0.15649 : 2     1     0
                      0.33354     -0.51017      0.27067 : 2     1    -1
                      0.33354      0.57644     -0.03552 : 2     1     1
 STATE  7:  13416.37
                      1.00000     -0.99980     -0.02011 : 1     0     0
 STATE  8:  15317.70
                      1.00000      0.74260     -0.66974 : 2     0     0
 STATE  9:  15648.05
                      0.48356      0.61326     -0.32784 : 3     1     0
                      0.25822     -0.28227      0.42255 : 3     1    -1
                      0.25822      0.50815      0.00000 : 3     1     1
 STATE 10:  15648.05
                      0.17163      0.01443      0.41403 : 3     1     0
                      0.41419      0.64201     -0.04480 : 3     1    -1
                      0.41419      0.64357      0.00000 : 3     1     1
 STATE 11:  15648.05
                      0.34481      0.56069      0.17448 : 3     1     0
                      0.32759      0.47129      0.32478 : 3     1    -1
                      0.32759     -0.57236      0.00000 : 3     1     1
 STATE 12:  18201.64
                      1.00000     -0.99476      0.10227 : 3     0     0

-----------------------------
TD-DFT/TDA-EXCITATION SPECTRA
-----------------------------

Center of mass = ( -0.8104,  4.1818,  2.8481)
Calculating the Dipole integrals                  ... done
Transforming integrals                            ... done
Calculating the Linear Momentum integrals         ... done
Transforming integrals                            ... done
Calculating angular momentum integrals            ... done
Transforming integrals                            ... done

-----------------------------------------------------------------------------
         ABSORPTION SPECTRUM VIA TRANSITION ELECTRIC DIPOLE MOMENTS
-----------------------------------------------------------------------------
State   Energy    Wavelength  fosc         T2        TX        TY        TZ  
        (cm-1)      (nm)                 (au**2)    (au)      (au)      (au) 
-----------------------------------------------------------------------------
   1   13416.4    745.4   1.605614862  39.39871   0.98643  -6.16651  -0.63230
   2   15317.7    652.8   0.031500789   0.67702  -0.54663  -0.46913  -0.39767
   3   18201.6    549.4   0.211639722   3.82791  -0.10362  -1.93182  -0.29195
   4    9097.5   1099.2   spin forbidden (mult=3)
   5   11130.2    898.5   spin forbidden (mult=3)
   6   15648.1    639.1   spin forbidden (mult=3)

-----------------------------------------------------------------------------
         ABSORPTION SPECTRUM VIA TRANSITION VELOCITY DIPOLE MOMENTS
-----------------------------------------------------------------------------
State   Energy    Wavelength   fosc        P2         PX        PY        PZ  
        (cm-1)      (nm)                 (au**2)     (au)      (au)      (au) 
-----------------------------------------------------------------------------
   1   13416.4    745.4   0.243915138   0.02237  -0.00996   0.14849  -0.01470
   2   15317.7    652.8   0.001341962   0.00014  -0.00485   0.00761   0.00768
   3   18201.6    549.4   0.043267763   0.00538   0.00102   0.07043   0.02053
   4    9097.5   1099.2   spin forbidden (mult=3)
   5   11130.2    898.5   spin forbidden (mult=3)
   6   15648.1    639.1   spin forbidden (mult=3)

-------------------------------------------------------------------
                             CD SPECTRUM
-------------------------------------------------------------------
State  Energy     Wavelength     R         MX        MY        MZ   
       (cm-1)       (nm)     (1e40*cgs)   (au)      (au)      (au)  
-------------------------------------------------------------------
   1   13416.4    745.4    -135.96947  -0.23424  -0.01991   0.28489
   2   15317.7    652.8    -27.13971   0.13798   0.01124  -0.05817
   3   18201.6    549.4    -74.58759   0.12058   0.07259   0.01881
   4    9097.5   1099.2 spin forbidden
   5   11130.2    898.5 spin forbidden
   6   15648.1    639.1 spin forbidden

-------------------------------------------
SOC CORRECTED TD-DFT/TDA-EXCITATION SPECTRA
--------------------------------------------

-----------------------------------------------------------------------------
  SOC CORRECTED ABSORPTION SPECTRUM VIA TRANSITION ELECTRIC DIPOLE MOMENTS*  
-----------------------------------------------------------------------------
State   Energy  Wavelength   fosc         T2         TX        TY        TZ  
        (cm-1)    (nm)                  (au**2)     (au)      (au)      (au) 
-----------------------------------------------------------------------------
   1    9097.5   1099.2   0.000000005   0.00000   0.00029   0.00030   0.00009
   2    9097.5   1099.2   0.000000000   0.00000   0.00004   0.00010   0.00000
   3    9097.5   1099.2   0.000000003   0.00000   0.00027   0.00021   0.00010
   4   11130.2    898.5   0.000000062   0.00000   0.00019   0.00133   0.00014
   5   11130.2    898.5   0.000000003   0.00000   0.00007   0.00030   0.00002
   6   11130.2    898.5   0.000000017   0.00000   0.00003   0.00070   0.00007
   7   13416.4    745.4   1.605614618  39.39871   0.98643   6.16651   0.63230
   8   15317.7    652.8   0.031500719   0.67702   0.54663   0.46912   0.39767
   9   15648.1    639.1   0.000000000   0.00000   0.00006   0.00008   0.00004
  10   15648.1    639.1   0.000000082   0.00000   0.00047   0.00123   0.00002
  11   15648.1    639.1   0.000000151   0.00000   0.00068   0.00152   0.00063
  12   18201.6    549.4   0.211639735   3.82791   0.10362   1.93182   0.29195

-----------------------------------------------------------------------------
  SOC CORRECTED ABSORPTION SPECTRUM VIA TRANSITION VELOCITY DIPOLE MOMENTS*  
-----------------------------------------------------------------------------
State   Energy  Wavelength   fosc         P2         PX        PY        PZ  
        (cm-1)    (nm)                  (au**2)     (au)      (au)      (au) 
-----------------------------------------------------------------------------
   1    9097.5   1099.2   0.000000041   0.00000   0.00000   0.00005   0.00000
   2    9097.5   1099.2   0.000000000   0.00000   0.00000   0.00000   0.00000
   3    9097.5   1099.2   0.000000001   0.00000   0.00000   0.00001   0.00000
   4   11130.2    898.5   0.000000013   0.00000   0.00000   0.00003   0.00000
   5   11130.2    898.5   0.000000000   0.00000   0.00000   0.00000   0.00000
   6   11130.2    898.5   0.000000000   0.00000   0.00000   0.00000   0.00000
   7   13416.4    745.4   0.243915075   0.02237   0.00996   0.14849   0.01470
   8   15317.7    652.8   0.001341959   0.00014   0.00485   0.00761   0.00768
   9   15648.1    639.1   0.000000000   0.00000   0.00000   0.00000   0.00000
  10   15648.1    639.1   0.000000006   0.00000   0.00000   0.00002   0.00001
  11   15648.1    639.1   0.000000009   0.00000   0.00001   0.00003   0.00001
  12   18201.6    549.4   0.043267757   0.00538   0.00102   0.07043   0.02053

-------------------------------------------------------------------
                    SOC CORRECTED CD SPECTRUM*                     
-------------------------------------------------------------------
State   Energy Wavelength       R         MX        MY        MZ   
        (cm-1)   (nm)       (1e40*sgs)   (au)      (au)      (au)  
-------------------------------------------------------------------
   1    9097.5   1099.2      0.00000   0.00006   0.00001   0.00009
   2    9097.5   1099.2      0.00000   0.00000   0.00000   0.00000
   3    9097.5   1099.2      0.00000   0.00001   0.00000   0.00001
   4   11130.2    898.5      0.00001   0.00001   0.00000   0.00004
   5   11130.2    898.5      0.00000   0.00002   0.00000   0.00002
   6   11130.2    898.5      0.00000   0.00002   0.00001   0.00005
   7   13416.4    745.4    135.96944   0.23424   0.01991   0.28489
   8   15317.7    652.8     27.13964   0.13798   0.01124   0.05817
   9   15648.1    639.1      0.00000   0.00002   0.00000   0.00001
  10   15648.1    639.1      0.00002   0.00016   0.00002   0.00011
  11   15648.1    639.1      0.00004   0.00012   0.00001   0.00001
  12   18201.6    549.4     74.58759   0.12058   0.07259   0.01881

*The X,Y and Z components are the absolute values of the complex numbers

Total run time:     7746.900 sec

           *** ORCA-CIS/TD-DFT FINISHED WITHOUT ERROR ***

---------------------------
SOC CIS/TD-DFT TOTAL ENERGY
---------------------------

    E(SCF)        =  -4555.673021125 Eh
    E(SOC CIS)    =      0.041451038 Eh (SOC Root  1)
    ----------------------------- ---------
    E(tot)        =  -4555.631570087 Eh


-------------------------   --------------------
FINAL SINGLE POINT ENERGY     -4555.631570087256
-------------------------   --------------------


                            ***************************************
                            *     ORCA property calculations      *
                            ***************************************

                                    ---------------------
                                    Active property flags
                                    ---------------------
   (+) Dipole Moment


------------------------------------------------------------------------------
                       ORCA ELECTRIC PROPERTIES CALCULATION
------------------------------------------------------------------------------

Dipole Moment Calculation                       ... on
Quadrupole Moment Calculation                   ... off
Polarizability Calculation                      ... off
GBWName                                         ... IDST-4F.gbw
Electron density file                           ... IDST-4F.scfp
The origin for moment calculation is the CENTER OF MASS  = (-0.810388,  4.181759  2.848097)

-------------
DIPOLE MOMENT
-------------
                                X             Y             Z
Electronic contribution:     38.00301      18.50025      34.02980
Nuclear contribution   :    -39.21646     -19.43264     -34.96807
                        -----------------------------------------
Total Dipole Moment    :     -1.21345      -0.93238      -0.93828
                        -----------------------------------------
Magnitude (a.u.)       :      1.79504
Magnitude (Debye)      :      4.56263



--------------------
Rotational spectrum 
--------------------
 
Rotational constants in cm-1:     0.001643     0.000288     0.000256 
Rotational constants in MHz :    49.256467     8.630308     7.681499 

 Dipole components along the rotational axes: 
x,y,z [a.u.] :     0.875897    -1.566496    -0.032708 
x,y,z [Debye]:     2.226353    -3.981716    -0.083136 

 

Timings for individual modules:

Sum of individual times         ...    10722.425 sec (= 178.707 min)
GTO integral calculation        ...        7.865 sec (=   0.131 min)   0.1 %
SCF iterations                  ...     2966.847 sec (=  49.447 min)  27.7 %
CIS module                      ...     7747.713 sec (= 129.129 min)  72.3 %
                             ****ORCA TERMINATED NORMALLY****
TOTAL RUN TIME: 0 days 2 hours 58 minutes 44 seconds 439 msec
