
                                 *****************
                                 * O   R   C   A *
                                 *****************

           --- An Ab Initio, DFT and Semiempirical electronic structure package ---

                  #######################################################
                  #                        -***-                        #
                  #          Department of theory and spectroscopy      #
                  #               Directorship: Frank Neese             #
                  #        Max Planck Institute fuer Kohlenforschung    #
                  #                Kaiser Wilhelm Platz 1               #
                  #                 D-45470 Muelheim/Ruhr               #
                  #                      Germany                        #
                  #                                                     #
                  #                  All rights reserved                #
                  #                        -***-                        #
                  #######################################################


                         Program Version 4.2.0 -  RELEASE  -


 With contributions from (in alphabetic order):
   Daniel Aravena         : Magnetic Suceptibility
   Michael Atanasov       : Ab Initio Ligand Field Theory (pilot matlab implementation)
   Alexander A. Auer      : GIAO ZORA, VPT2
   Ute Becker             : Parallelization
   Giovanni Bistoni       : ED, misc. LED, open-shell LED, HFLED
   Martin Brehm           : Molecular dynamics
   Dmytro Bykov           : SCF Hessian
   Vijay G. Chilkuri      : MRCI spin determinant printing, contributions to CSF-ICE
   Dipayan Datta          : RHF DLPNO-CCSD density
   Achintya Kumar Dutta   : EOM-CC, STEOM-CC
   Dmitry Ganyushin       : Spin-Orbit,Spin-Spin,Magnetic field MRCI
   Miquel Garcia          : C-PCM Hessian, Gaussian charge scheme
   Yang Guo               : DLPNO-NEVPT2, CIM, IAO-localization
   Andreas Hansen         : Spin unrestricted coupled pair/coupled cluster methods
   Benjamin Helmich-Paris : CASSCF linear response (MC-RPA)
   Lee Huntington         : MR-EOM, pCC
   Robert Izsak           : Overlap fitted RIJCOSX, COSX-SCS-MP3, EOM
   Christian Kollmar      : KDIIS, OOCD, Brueckner-CCSD(T), CCSD density
   Simone Kossmann        : Meta GGA functionals, TD-DFT gradient, OOMP2, MP2 Hessian
   Martin Krupicka        : AUTO-CI
   Lucas Lang             : DCDCAS
   Dagmar Lenk            : GEPOL surface, SMD
   Dimitrios Liakos       : Extrapolation schemes; Compound Job, initial MDCI parallelization
   Dimitrios Manganas     : Further ROCIS development; embedding schemes
   Dimitrios Pantazis     : SARC Basis sets
   Taras Petrenko         : DFT Hessian,TD-DFT gradient, ASA, ECA, R-Raman, ABS, FL, XAS/XES, NRVS
   Peter Pinski           : DLPNO-MP2, DLPNO-MP2 Gradient
   Christoph Reimann      : Effective Core Potentials
   Marius Retegan         : Local ZFS, SOC
   Christoph Riplinger    : Optimizer, TS searches, QM/MM, DLPNO-CCSD(T), (RO)-DLPNO pert. Triples
   Tobias Risthaus        : Range-separated hybrids, TD-DFT gradient, RPA, STAB
   Michael Roemelt        : Original ROCIS implementation
   Masaaki Saitow         : Open-shell DLPNO-CCSD energy and density
   Barbara Sandhoefer     : DKH picture change effects
   Avijit Sen             : IP-ROCIS
   Kantharuban Sivalingam : CASSCF convergence, NEVPT2, FIC-MRCI
   Bernardo de Souza      : ESD, SOC TD-DFT
   Georgi Stoychev        : AutoAux, RI-MP2 NMR
   Willem Van den Heuvel  : Paramagnetic NMR
   Boris Wezisla          : Elementary symmetry handling
   Frank Wennmohs         : Technical directorship


 We gratefully acknowledge several colleagues who have allowed us to
 interface, adapt or use parts of their codes:
   Stefan Grimme, W. Hujo, H. Kruse,             : VdW corrections, initial TS optimization,
                  C. Bannwarth                     DFT functionals, gCP, sTDA/sTD-DF
   Ed Valeev, F. Pavosevic, A. Kumar             : LibInt (2-el integral package), F12 methods
   Garnet Chan, S. Sharma, J. Yang, R. Olivares  : DMRG
   Ulf Ekstrom                                   : XCFun DFT Library
   Mihaly Kallay                                 : mrcc  (arbitrary order and MRCC methods)
   Andreas Klamt, Michael Diedenhofen            : otool_cosmo (COSMO solvation model)
   Jiri Pittner, Ondrej Demel                    : Mk-CCSD
   Frank Weinhold                                : gennbo (NPA and NBO analysis)
   Christopher J. Cramer and Donald G. Truhlar   : smd solvation model
   Lars Goerigk                                  : TD-DFT with DH, B97 family of functionals
   V. Asgeirsson, H. Jonsson                     : NEB implementation
   FAccTs GmbH                                   : IRC, NEB, NEB-TS, Multilevel, MM, QM/MM, CI optimization
   S Lehtola, MJT Oliveira, MAL Marques          : LibXC Library


 Your calculation uses the libint2 library for the computation of 2-el integrals
 For citations please refer to: http://libint.valeyev.net

 Your ORCA version has been built with support for libXC version: 4.2.3
 For citations please refer to: https://tddft.org/programs/libxc/

 This ORCA versions uses:
   CBLAS   interface :  Fast vector & matrix operations
   LAPACKE interface :  Fast linear algebra routines
   SCALAPACK package :  Parallel linear algebra routines


----- Orbital basis set information -----
Your calculation utilizes the basis: def2-TZVP
   F. Weigend and R. Ahlrichs, Phys. Chem. Chem. Phys. 7, 3297 (2005).

----- AuxJ basis set information -----
Your calculation utilizes the auxiliary basis: def2/J
   F. Weigend, Phys. Chem. Chem. Phys. 8, 1057 (2006).

================================================================================
                                        WARNINGS
                       Please study these warnings very carefully!
================================================================================

INFO   : Checking CIS options ...

WARNING: (CIS/TDDFT): Spin-orbit needs TRIPLETS set to TRUE
  ===> : ajusting flags

WARNING: CIS/ROCIS methods need fully converged wavefunctions
  ===> : Setting SCFConvForced true
         You can overwrite this default with %scf ConvForced false 


INFO   : the flag for use of LIBINT has been found!

================================================================================
                                       INPUT FILE
================================================================================
NAME = IDST-4F.inp
|  1> # ORCA input file
|  2> # IDST-4F.out
|  3> ! B3LYP def2-TZVP def2/J RIJCOSX Grid4 TightSCF
|  4> 
|  5> %maxcore 2000
|  6> %tddft
|  7>   maxdim 5
|  8>   nroots 3
|  9>   dosoc true
| 10>   end
| 11> 
| 12> 
| 13> 
| 14> * xyz 0 1
| 15>    C       -1.53426        -1.06870         0.24803
| 16>    C       -2.17270        -0.04059        -0.43094
| 17>    C       -1.78757         1.20961         0.03395
| 18>    C       -2.13897         2.64044        -0.27657
| 19>    C       -1.22453         3.37610         0.68495
| 20>    C       -0.50983         2.46455         1.50247
| 21>    C       -0.87260         1.15236         1.07521
| 22>    S       -0.44544        -0.45764         1.48334
| 23>    C        0.37443         2.88383         2.49455
| 24>    C        0.56779         4.23767         2.64425
| 25>    C        1.44180         4.97604         3.64140
| 26>    C        1.10379         6.40704         3.31586
| 27>    C        0.21156         6.45881         2.25055
| 28>    C       -0.13571         5.14712         1.81606
| 29>    C       -1.02365         4.72831         0.82623
| 30>    S       -0.22589         8.05657         1.82904
| 31>    C        0.80539         8.68615         3.10857
| 32>    C        1.46653         7.66015         3.77801
| 33>    C       -1.85320         3.00109        -1.74203
| 34>    C       -0.42173         2.67667        -2.15385
| 35>    C       -3.63295         2.82792         0.08043
| 36>    C       -4.16566         4.25144        -0.00729
| 37>    C        1.06627         4.62824         5.09161
| 38>    C       -0.38911         4.95025         5.41343
| 39>    C        2.95251         4.78120         3.37399
| 40>    C        3.46721         3.35131         3.46601
| 41>    C        0.97279        10.06493         3.33845
| 42>    C        0.16428        11.10189         2.96802
| 43>    C       -1.21913        11.14258         2.55435
| 44>    C       -1.42853        12.42062         1.87442
| 45>    C       -0.29591        13.22881         2.07873
| 46>    C        0.72108        12.47038         2.84715
| 47>    C       -2.50800        12.90205         1.15280
| 48>    C       -2.42698        14.19156         0.64823
| 49>    C       -1.30505        14.99250         0.86388
| 50>    C       -0.22195        14.51649         1.58599
| 51>    O        1.79219        12.86431         3.24600
| 52>    C       -2.21452        10.29849         2.97481
| 53>    C       -3.56793        10.43475         2.60876
| 54>    C       -1.99762         9.25281         3.89632
| 55>    F       -3.45030        14.67421        -0.06576
| 56>    F       -1.27353        16.23404         0.36413
| 57>    N       -4.67749        10.49118         2.32068
| 58>    N       -1.86471         8.42820         4.68399
| 59>    C       -0.82129        -6.25553         0.33974
| 60>    C        0.38343        -6.69805         0.80403
| 61>    C        1.67713        -6.05997         0.89252
| 62>    C        2.46114        -6.81084         1.87240
| 63>    C        1.77615        -8.00036         2.17933
| 64>    C        0.48064        -8.02587         1.45886
| 65>    C        3.69018        -6.54362         2.45176
| 66>    C        4.20929        -7.48167         3.33189
| 67>    C        3.53080        -8.66577         3.62294
| 68>    C        2.30043        -8.93880         3.04614
| 69>    O       -0.34266        -8.91089         1.44571
| 70>    C        2.18191        -5.13298         0.01854
| 71>    C        3.48390        -4.60125         0.10081
| 72>    C        1.47655        -4.69260        -1.12137
| 73>    F        5.38785        -7.24028         3.91651
| 74>    F        4.07358        -9.54654         4.47231
| 75>    N        4.52731        -4.12483         0.14057
| 76>    N        0.95394        -4.36329        -2.08869
| 77>    C       -1.64503        -2.46448         0.05170
| 78>    S       -0.47979        -3.52626         0.77842
| 79>    C       -1.24724        -4.93439         0.09371
| 80>    C       -2.36854        -4.56687        -0.62935
| 81>    C       -2.59285        -3.19093        -0.67688
| 82>    S       -3.93277        -2.42393        -1.50507
| 83>    C       -5.04163        -3.83431        -1.86795
| 84>    C       -6.37944        -3.29461        -2.35006
| 85>    C       -7.34201        -4.43255        -2.66669
| 86>    H       -2.85351        -0.21181        -1.24243
| 87>    H        0.86805         2.15504         3.11761
| 88>    H       -1.52150         5.45690         0.20594
| 89>    H        2.14130         7.85495         4.59200
| 90>    H       -2.03189         4.06696        -1.88631
| 91>    H       -2.54878         2.45012        -2.37797
| 92>    H        0.28901         3.21308        -1.52865
| 93>    H       -0.25666         2.96651        -3.18862
| 94>    H       -0.22396         1.61125        -2.06202
| 95>    H       -3.78294         2.46018         1.09879
| 96>    H       -4.20897         2.18637        -0.59021
| 97>    H       -3.68546         4.89407         0.72518
| 98>    H       -5.23305         4.24610         0.20140
| 99>    H       -4.02019         4.67092        -0.99891
|100>    H        1.72042         5.18792         5.76316
|101>    H        1.24140         3.56450         5.25663
|102>    H       -0.59565         6.01066         5.29066
|103>    H       -0.60936         4.67765         6.44259
|104>    H       -1.05881         4.39382         4.76099
|105>    H        3.49191         5.40212         4.09272
|106>    H        3.17037         5.16755         2.37479
|107>    H        3.24088         2.90844         4.43177
|108>    H        4.54777         3.35238         3.34216
|109>    H        3.04120         2.73219         2.68191
|110>    H        1.90955        10.35376         3.80599
|111>    H       -3.39271        12.31697         0.96062
|112>    H        0.64489        15.13565         1.75320
|113>    H       -1.58135        -7.02239         0.22386
|114>    H        4.24629        -5.64117         2.25606
|115>    H        1.77689        -9.85431         3.27082
|116>    H       -2.97119        -5.29917        -1.13404
|117>    H       -5.16341        -4.40682        -0.94817
|118>    H       -4.57258        -4.44852        -2.63725
|119>    H       -6.22129        -2.68450        -3.24155
|120>    H       -6.80658        -2.65213        -1.57739
|121>    H       -6.93816        -5.06969        -3.45006
|122>    H       -8.29470        -4.03462        -3.00498
|123>    H       -7.51871        -5.04241        -1.78360
|124> *
|125> 
|126>                          ****END OF INPUT****
================================================================================

                       ****************************
                       * Single Point Calculation *
                       ****************************

---------------------------------
CARTESIAN COORDINATES (ANGSTROEM)
---------------------------------
  C     -1.534260   -1.068700    0.248030
  C     -2.172700   -0.040590   -0.430940
  C     -1.787570    1.209610    0.033950
  C     -2.138970    2.640440   -0.276570
  C     -1.224530    3.376100    0.684950
  C     -0.509830    2.464550    1.502470
  C     -0.872600    1.152360    1.075210
  S     -0.445440   -0.457640    1.483340
  C      0.374430    2.883830    2.494550
  C      0.567790    4.237670    2.644250
  C      1.441800    4.976040    3.641400
  C      1.103790    6.407040    3.315860
  C      0.211560    6.458810    2.250550
  C     -0.135710    5.147120    1.816060
  C     -1.023650    4.728310    0.826230
  S     -0.225890    8.056570    1.829040
  C      0.805390    8.686150    3.108570
  C      1.466530    7.660150    3.778010
  C     -1.853200    3.001090   -1.742030
  C     -0.421730    2.676670   -2.153850
  C     -3.632950    2.827920    0.080430
  C     -4.165660    4.251440   -0.007290
  C      1.066270    4.628240    5.091610
  C     -0.389110    4.950250    5.413430
  C      2.952510    4.781200    3.373990
  C      3.467210    3.351310    3.466010
  C      0.972790   10.064930    3.338450
  C      0.164280   11.101890    2.968020
  C     -1.219130   11.142580    2.554350
  C     -1.428530   12.420620    1.874420
  C     -0.295910   13.228810    2.078730
  C      0.721080   12.470380    2.847150
  C     -2.508000   12.902050    1.152800
  C     -2.426980   14.191560    0.648230
  C     -1.305050   14.992500    0.863880
  C     -0.221950   14.516490    1.585990
  O      1.792190   12.864310    3.246000
  C     -2.214520   10.298490    2.974810
  C     -3.567930   10.434750    2.608760
  C     -1.997620    9.252810    3.896320
  F     -3.450300   14.674210   -0.065760
  F     -1.273530   16.234040    0.364130
  N     -4.677490   10.491180    2.320680
  N     -1.864710    8.428200    4.683990
  C     -0.821290   -6.255530    0.339740
  C      0.383430   -6.698050    0.804030
  C      1.677130   -6.059970    0.892520
  C      2.461140   -6.810840    1.872400
  C      1.776150   -8.000360    2.179330
  C      0.480640   -8.025870    1.458860
  C      3.690180   -6.543620    2.451760
  C      4.209290   -7.481670    3.331890
  C      3.530800   -8.665770    3.622940
  C      2.300430   -8.938800    3.046140
  O     -0.342660   -8.910890    1.445710
  C      2.181910   -5.132980    0.018540
  C      3.483900   -4.601250    0.100810
  C      1.476550   -4.692600   -1.121370
  F      5.387850   -7.240280    3.916510
  F      4.073580   -9.546540    4.472310
  N      4.527310   -4.124830    0.140570
  N      0.953940   -4.363290   -2.088690
  C     -1.645030   -2.464480    0.051700
  S     -0.479790   -3.526260    0.778420
  C     -1.247240   -4.934390    0.093710
  C     -2.368540   -4.566870   -0.629350
  C     -2.592850   -3.190930   -0.676880
  S     -3.932770   -2.423930   -1.505070
  C     -5.041630   -3.834310   -1.867950
  C     -6.379440   -3.294610   -2.350060
  C     -7.342010   -4.432550   -2.666690
  H     -2.853510   -0.211810   -1.242430
  H      0.868050    2.155040    3.117610
  H     -1.521500    5.456900    0.205940
  H      2.141300    7.854950    4.592000
  H     -2.031890    4.066960   -1.886310
  H     -2.548780    2.450120   -2.377970
  H      0.289010    3.213080   -1.528650
  H     -0.256660    2.966510   -3.188620
  H     -0.223960    1.611250   -2.062020
  H     -3.782940    2.460180    1.098790
  H     -4.208970    2.186370   -0.590210
  H     -3.685460    4.894070    0.725180
  H     -5.233050    4.246100    0.201400
  H     -4.020190    4.670920   -0.998910
  H      1.720420    5.187920    5.763160
  H      1.241400    3.564500    5.256630
  H     -0.595650    6.010660    5.290660
  H     -0.609360    4.677650    6.442590
  H     -1.058810    4.393820    4.760990
  H      3.491910    5.402120    4.092720
  H      3.170370    5.167550    2.374790
  H      3.240880    2.908440    4.431770
  H      4.547770    3.352380    3.342160
  H      3.041200    2.732190    2.681910
  H      1.909550   10.353760    3.805990
  H     -3.392710   12.316970    0.960620
  H      0.644890   15.135650    1.753200
  H     -1.581350   -7.022390    0.223860
  H      4.246290   -5.641170    2.256060
  H      1.776890   -9.854310    3.270820
  H     -2.971190   -5.299170   -1.134040
  H     -5.163410   -4.406820   -0.948170
  H     -4.572580   -4.448520   -2.637250
  H     -6.221290   -2.684500   -3.241550
  H     -6.806580   -2.652130   -1.577390
  H     -6.938160   -5.069690   -3.450060
  H     -8.294700   -4.034620   -3.004980
  H     -7.518710   -5.042410   -1.783600

----------------------------
CARTESIAN COORDINATES (A.U.)
----------------------------
  NO LB      ZA    FRAG     MASS         X           Y           Z
   0 C     6.0000    0    12.011   -2.899331   -2.019550    0.468709
   1 C     6.0000    0    12.011   -4.105808   -0.076704   -0.814359
   2 C     6.0000    0    12.011   -3.378018    2.285832    0.064156
   3 C     6.0000    0    12.011   -4.042068    4.989708   -0.522642
   4 C     6.0000    0    12.011   -2.314026    6.379904    1.294368
   5 C     6.0000    0    12.011   -0.963439    4.657325    2.839257
   6 C     6.0000    0    12.011   -1.648975    2.177645    2.031852
   7 S    16.0000    0    32.060   -0.841760   -0.864814    2.803106
   8 C     6.0000    0    12.011    0.707570    5.449649    4.714016
   9 C     6.0000    0    12.011    1.072968    8.008036    4.996908
  10 C     6.0000    0    12.011    2.724607    9.403353    6.881249
  11 C     6.0000    0    12.011    2.085861   12.107551    6.266067
  12 C     6.0000    0    12.011    0.399790   12.205382    4.252923
  13 C     6.0000    0    12.011   -0.256455    9.726647    3.431856
  14 C     6.0000    0    12.011   -1.934418    8.935211    1.561348
  15 S    16.0000    0    32.060   -0.426870   15.224711    3.456385
  16 C     6.0000    0    12.011    1.521967   16.414445    5.874346
  17 C     6.0000    0    12.011    2.771340   14.475586    7.139404
  18 C     6.0000    0    12.011   -3.502040    5.671238   -3.291960
  19 C     6.0000    0    12.011   -0.796954    5.058173   -4.070187
  20 C     6.0000    0    12.011   -6.865281    5.343994    0.151991
  21 C     6.0000    0    12.011   -7.871957    8.034057   -0.013776
  22 C     6.0000    0    12.011    2.014958    8.746106    9.621748
  23 C     6.0000    0    12.011   -0.735311    9.354617   10.229900
  24 C     6.0000    0    12.011    5.579435    9.035159    6.375917
  25 C     6.0000    0    12.011    6.552077    6.333058    6.549810
  26 C     6.0000    0    12.011    1.838307   19.019961    6.308756
  27 C     6.0000    0    12.011    0.310444   20.979532    5.608745
  28 C     6.0000    0    12.011   -2.303822   21.056425    4.827022
  29 C     6.0000    0    12.011   -2.699530   23.471570    3.542140
  30 C     6.0000    0    12.011   -0.559189   24.998828    3.928230
  31 C     6.0000    0    12.011    1.362644   23.565603    5.380334
  32 C     6.0000    0    12.011   -4.739433   24.381341    2.178476
  33 C     6.0000    0    12.011   -4.586328   26.818162    1.224977
  34 C     6.0000    0    12.011   -2.466187   28.331719    1.632497
  35 C     6.0000    0    12.011   -0.419425   27.432191    2.997087
  36 O     8.0000    0    15.999    3.386748   24.310023    6.134051
  37 C     6.0000    0    12.011   -4.184836   19.461326    5.621576
  38 C     6.0000    0    12.011   -6.742411   19.718820    4.929842
  39 C     6.0000    0    12.011   -3.774955   17.485277    7.362978
  40 F     9.0000    0    18.998   -6.520122   27.730238   -0.124268
  41 F     9.0000    0    18.998   -2.406623   30.677890    0.688106
  42 N     7.0000    0    14.007   -8.839175   19.825457    4.385450
  43 N     7.0000    0    14.007   -3.523791   15.926990    8.851458
  44 C     6.0000    0    12.011   -1.552013  -11.821239    0.642016
  45 C     6.0000    0    12.011    0.724578  -12.657480    1.519397
  46 C     6.0000    0    12.011    3.169316  -11.451684    1.686618
  47 C     6.0000    0    12.011    4.650881  -12.870622    3.538323
  48 C     6.0000    0    12.011    3.356437  -15.118489    4.118337
  49 C     6.0000    0    12.011    0.908278  -15.166696    2.756846
  50 C     6.0000    0    12.011    6.973430  -12.365650    4.633155
  51 C     6.0000    0    12.011    7.954405  -14.138307    6.296360
  52 C     6.0000    0    12.011    6.672245  -16.375932    6.846364
  53 C     6.0000    0    12.011    4.347183  -16.891884    5.756370
  54 O     8.0000    0    15.999   -0.647534  -16.839142    2.731996
  55 C     6.0000    0    12.011    4.123212   -9.699926    0.035036
  56 C     6.0000    0    12.011    6.583617   -8.695102    0.190503
  57 C     6.0000    0    12.011    2.790275   -8.867729   -2.119082
  58 F     9.0000    0    18.998   10.181561  -13.682146    7.401131
  59 F     9.0000    0    18.998    7.697951  -18.040346    8.451441
  60 N     7.0000    0    14.007    8.555376   -7.794799    0.265639
  61 N     7.0000    0    14.007    1.802685   -8.245423   -3.947052
  62 C     6.0000    0    12.011   -3.108656   -4.657192    0.097699
  63 S    16.0000    0    32.060   -0.906672   -6.663666    1.471001
  64 C     6.0000    0    12.011   -2.356942   -9.324646    0.177086
  65 C     6.0000    0    12.011   -4.475892   -8.630134   -1.189299
  66 C     6.0000    0    12.011   -4.899776   -6.029984   -1.279118
  67 S    16.0000    0    32.060   -7.431858   -4.580564   -2.844170
  68 C     6.0000    0    12.011   -9.527300   -7.245796   -3.529914
  69 C     6.0000    0    12.011  -12.055394   -6.225911   -4.440970
  70 C     6.0000    0    12.011  -13.874388   -8.376306   -5.039314
  71 H     1.0000    0     1.008   -5.392352   -0.400263   -2.347852
  72 H     1.0000    0     1.008    1.640377    4.072435    5.891429
  73 H     1.0000    0     1.008   -2.875218   10.312047    0.389170
  74 H     1.0000    0     1.008    4.046471   14.843704    8.677622
  75 H     1.0000    0     1.008   -3.839716    7.685441   -3.564609
  76 H     1.0000    0     1.008   -4.816496    4.630056   -4.493712
  77 H     1.0000    0     1.008    0.546150    6.071841   -2.888730
  78 H     1.0000    0     1.008   -0.485017    5.605891   -6.025619
  79 H     1.0000    0     1.008   -0.423223    3.044821   -3.896653
  80 H     1.0000    0     1.008   -7.148721    4.649066    2.076412
  81 H     1.0000    0     1.008   -7.953801    4.131641   -1.115335
  82 H     1.0000    0     1.008   -6.964510    9.248452    1.370392
  83 H     1.0000    0     1.008   -9.889031    8.023966    0.380591
  84 H     1.0000    0     1.008   -7.597058    8.826760   -1.887666
  85 H     1.0000    0     1.008    3.251123    9.803748   10.890794
  86 H     1.0000    0     1.008    2.345906    6.735929    9.933591
  87 H     1.0000    0     1.008   -1.125615   11.358501    9.997898
  88 H     1.0000    0     1.008   -1.151524    8.839477   12.174731
  89 H     1.0000    0     1.008   -2.000861    8.303116    8.996967
  90 H     1.0000    0     1.008    6.598754   10.208527    7.734120
  91 H     1.0000    0     1.008    5.991131    9.765254    4.487703
  92 H     1.0000    0     1.008    6.124376    5.496155    8.374832
  93 H     1.0000    0     1.008    8.594040    6.335080    6.315767
  94 H     1.0000    0     1.008    5.747035    5.163091    5.068075
  95 H     1.0000    0     1.008    3.608527   19.565771    7.192279
  96 H     1.0000    0     1.008   -6.411293   23.275700    1.815309
  97 H     1.0000    0     1.008    1.218665   28.602233    3.313068
  98 H     1.0000    0     1.008   -2.988318  -13.270394    0.423034
  99 H     1.0000    0     1.008    8.024325  -10.660266    4.263336
 100 H     1.0000    0     1.008    3.357835  -18.621947    6.180954
 101 H     1.0000    0     1.008   -5.614735  -10.013980   -2.143025
 102 H     1.0000    0     1.008   -9.757431   -8.327683   -1.791782
 103 H     1.0000    0     1.008   -8.640924   -8.406485   -4.983680
 104 H     1.0000    0     1.008  -11.756534   -5.072970   -6.125642
 105 H     1.0000    0     1.008  -12.862572   -5.011799   -2.980835
 106 H     1.0000    0     1.008  -13.111222   -9.580326   -6.519669
 107 H     1.0000    0     1.008  -15.674711   -7.624327   -5.678589
 108 H     1.0000    0     1.008  -14.208303   -9.528774   -3.370516

--------------------------------
INTERNAL COORDINATES (ANGSTROEM)
--------------------------------
 C      0   0   0     0.000000000000     0.00000000     0.00000000
 C      1   0   0     1.387665689783     0.00000000     0.00000000
 C      2   1   0     1.388325563043   112.06810947     0.00000000
 C      3   2   1     1.505715484180   136.21374066   181.38341911
 C      4   3   2     1.517206927087   100.91823348   181.14862344
 C      5   4   3     1.417765298948   110.94740428   356.45556307
 C      3   2   1     1.387324782090   113.39837133   359.20761103
 S      7   3   2     1.714973983039   112.43459522     1.07140615
 C      6   5   4     1.393532989348   122.47548271   181.62672307
 C      9   6   5     1.375747406031   117.56376031   358.39740309
 C     10   9   6     1.517692939794   129.13818395   178.91872277
 C     11  10   9     1.505984080826   101.01159445   184.04565909
 C     12  11  10     1.390553811221   110.18133354   357.78095762
 C     10   9   6     1.417007490665   119.88192641     0.83628353
 C      5   4   3     1.374330635946   129.07356278   175.83556967
 S     13  12  11     1.709347887412   112.82509086   179.67711115
 C     16  13  12     1.759859777283    90.29426165   359.91659858
 C     12  11  10     1.383996966109   136.83091055   179.38643597
 C      4   3   2     1.536003231442   112.11439917   300.79492506
 C     19   4   3     1.524450855128   112.48670716   306.53969581
 C      4   3   2     1.547441110608   107.02965319    63.72436503
 C     21   4   3     1.522459829651   115.96368155   173.33170259
 C     11  10   9     1.537887078104   111.64851579   302.47827511
 C     23  11  10     1.524922783914   112.60044205   301.62942076
 C     11  10   9     1.546517196089   112.80823836    69.51791655
 C     25  11  10     1.522487826717   115.98339860   298.26161934
 C     17  16  13     1.407800363262   122.60015079   178.12139113
 C     27  17  16     1.366086690734   128.95960484    21.09417057
 C     28  27  17     1.444507449998   131.74732602    18.01160781
 C     29  28  27     1.462716447744   107.14758268   198.08689072
 C     30  29  28     1.406322052945   108.62047456   349.67591729
 C     28  27  17     1.482363206842   120.03746646   202.75626183
 C     30  29  28     1.384834195924   131.11451356   171.32446282
 C     33  30  29     1.387080086152   117.85352893   178.21928329
 C     34  33  30     1.395255077396   121.62859243   359.42622274
 C     31  30  29     1.380718136189   121.82009722   182.00347667
 O     32  28  27     1.208941189430   127.35180894   346.87335119
 C     29  28  27     1.371158558227   126.16317109    31.47940520
 C     38  29  28     1.408644035305   123.93486520   175.62643066
 C     38  29  28     1.410557674291   123.02899201     0.07740414
 F     34  33  30     1.337877634539   119.00170450   179.22279763
 F     35  34  33     1.338717723981   119.57814874   180.37140777
 N     39  38  29     1.147735956089   177.20668653   156.15110830
 N     40  38  29     1.148072623618   176.83476786   121.62115475
 C      1   2   3     5.236405484099   143.61892991   186.76567175
 C     45   1   2     1.364822125004   116.57093223   148.56832713
 C     46  45   1     1.445211491962   131.89989774   337.07140536
 C     47  46  45     1.462409741283   107.11181375   160.63850622
 C     48  47  46     1.406547246060   108.62373693    10.70039226
 C     49  48  47     1.482590280927   109.51526353   356.93325828
 C     48  47  46     1.384775743433   131.07667230   188.80376179
 C     51  48  47     1.387098342404   117.84750616   182.10444129
 C     52  51  48     1.395403738206   121.61698200     0.58207867
 C     49  48  47     1.380905039494   121.78979729   177.70145915
 O     50  49  48     1.208824310187   127.80800390   177.04748714
 C     47  46  45     1.370384744844   126.11032233   327.07277255
 C     56  47  46     1.408787814364   123.95194355   184.16366607
 C     56  47  46     1.410979121780   122.83512902   359.06155498
 F     52  51  48     1.337554989561   119.01521426   180.74783639
 F     53  52  51     1.338579589789   119.57334525   179.58702361
 N     57  56  47     1.147720045177   177.30616665   203.72500532
 N     58  56  47     1.147725694842   176.44880286   244.14543325
 C      1   2   3     1.413866072229   128.86047366   181.11313314
 S     63   1   2     1.735881039818   119.54571418   166.05737180
 C     45   1   2     1.409742906703    13.47467744   349.28084478
 C     65  45  46     1.383907657324   125.79391858   165.76169749
 C     66  65  45     1.394913961720   114.20789850   177.52799905
 S     67  66  65     1.752019772291   124.81401396   180.37668267
 C     68  67  66     1.830416383886   102.69130774    12.71737977
 C     69  68  67     1.521000242669   108.80003789   169.16122996
 C     70  69  68     1.523713557530   110.88611323   180.00315824
 H      2   1   3     1.073002593007   122.93808659   177.87279634
 H      9   6   5     1.078424467499   119.89601265   177.67460506
 H     15   5   4     1.078636961494   122.54900359   358.70812256
 H     18  12  11     1.075100605990   125.54771794   358.23756949
 H     19   4   3     1.090332835147   108.98305024   185.49425703
 H     19   4   3     1.091704704075   108.58596483    67.87341972
 H     20  19   4     1.088008306816   110.68642005   301.06593622
 H     20  19   4     1.087200203918   110.05678891   181.21255991
 H     20  19   4     1.087504252038   110.88191088    61.41193141
 H     21   4   3     1.093063034459   107.85779166    51.25220372
 H     21   4   3     1.092311060321   107.23671539   295.64405893
 H     22  21   4     1.086313793432   111.07584484   295.18353682
 H     22  21   4     1.087612726939   109.13218187   176.34537113
 H     22  21   4     1.086478354916   111.51462681    57.15853238
 H     23  11  10     1.091848582634   108.52806737   180.24436034
 H     23  11  10     1.090616754364   108.90819127    62.78180890
 H     24  23  11     1.087290491359   111.30979438   299.25438604
 H     24  23  11     1.087194153820   109.88753761   179.36528532
 H     24  23  11     1.088021318036   110.66517207    59.75236390
 H     25  11  10     1.092275981289   107.27757338   176.07007264
 H     25  11  10     1.093219987971   107.94987065    60.39069800
 H     26  25  11     1.086301746017   111.48075445   303.88130016
 H     26  25  11     1.087634994380   109.15104554   184.68780943
 H     26  25  11     1.086097097179   111.04702895    65.80421152
 H     27  17  16     1.086064325029   115.67823474   206.39241670
 H     33  30  29     1.077944127912   122.95428490   357.49028962
 H     36  31  30     1.078299529491   121.54921156   179.41342604
 H     45   1   2     1.085906827311   127.03754882   315.19931485
 H     51  48  47     1.077948433182   122.92047012     2.81253115
 H     54  49  48     1.078301346610   121.56354318   180.65516420
 H     66  65  45     1.074319463009   121.26113146   355.10823202
 H     69  68  67     1.090226268671   107.76044343    48.93816382
 H     69  68  67     1.090451427896   108.25766416   289.60741169
 H     70  69  68     1.091787550167   109.25038974    58.81986330
 H     70  69  68     1.091901121393   109.18140374   301.15559748
 H     71  70  69     1.087525061320   110.64814000   299.60450140
 H     71  70  69     1.086465206576   110.18875786   179.71902946
 H     71  70  69     1.087658061019   110.65014686    59.84746378

---------------------------
INTERNAL COORDINATES (A.U.)
---------------------------
 C      0   0   0     0.000000000000     0.00000000     0.00000000
 C      1   0   0     2.622308119128     0.00000000     0.00000000
 C      2   1   0     2.623555098874   112.06810947     0.00000000
 C      3   2   1     2.845389900705   136.21374066   181.38341911
 C      4   3   2     2.867105580682   100.91823348   181.14862344
 C      5   4   3     2.679188137188   110.94740428   356.45556307
 C      3   2   1     2.621663896951   113.39837133   359.20761103
 S      7   3   2     3.240831154743   112.43459522     1.07140615
 C      6   5   4     2.633395708452   122.47548271   181.62672307
 C      9   6   5     2.599785826850   117.56376031   358.39740309
 C     10   9   6     2.868024011596   129.13818395   178.91872277
 C     11  10   9     2.845897474805   101.01159445   184.04565909
 C     12  11  10     2.627765877687   110.18133354   357.78095762
 C     10   9   6     2.677756087071   119.88192641     0.83628353
 C      5   4   3     2.597108519396   129.07356278   175.83556967
 S     13  12  11     3.230199374806   112.82509086   179.67711115
 C     16  13  12     3.325653013169    90.29426165   359.91659858
 C     12  11  10     2.615375236125   136.83091055   179.38643597
 C      4   3   2     2.902625448243   112.11439917   300.79492506
 C     19   4   3     2.880794620814   112.48670716   306.53969581
 C      4   3   2     2.924239907420   107.02965319    63.72436503
 C     21   4   3     2.877032127936   115.96368155   173.33170259
 C     11  10   9     2.906185402513   111.64851579   302.47827511
 C     23  11  10     2.881686436974   112.60044205   301.62942076
 C     11  10   9     2.922493962009   112.80823836    69.51791655
 C     25  11  10     2.877085034723   115.98339860   298.26161934
 C     17  16  13     2.660357137800   122.60015079   178.12139113
 C     27  17  16     2.581529720682   128.95960484    21.09417057
 C     28  27  17     2.729723478905   131.74732602    18.01160781
 C     29  28  27     2.764133497818   107.14758268   198.08689072
 C     30  29  28     2.657563536160   108.62047456   349.67591729
 C     28  27  17     2.801260491933   120.03746646   202.75626183
 C     30  29  28     2.616957371185   131.11451356   171.32446282
 C     33  30  29     2.621201488644   117.85352893   178.21928329
 C     34  33  30     2.636649983242   121.62859243   359.42622274
 C     31  30  29     2.609179145535   121.82009722   182.00347667
 O     32  28  27     2.284567760039   127.35180894   346.87335119
 C     29  28  27     2.591114161232   126.16317109    31.47940520
 C     38  29  28     2.661951446908   123.93486520   175.62643066
 C     38  29  28     2.665567700510   123.02899201     0.07740414
 F     34  33  30     2.528222329977   119.00170450   179.22279763
 F     35  34  33     2.529809868950   119.57814874   180.37140777
 N     39  38  29     2.168906631063   177.20668653   156.15110830
 N     40  38  29     2.169542840490   176.83476786   121.62115475
 C      1   2   3     9.895372291110   143.61892991   186.76567175
 C     45   1   2     2.579140037774   116.57093223   148.56832713
 C     46  45   1     2.731053925405   131.89989774   337.07140536
 C     47  46  45     2.763553906604   107.11181375   160.63850622
 C     48  47  46     2.657989089475   108.62373693    10.70039226
 C     49  48  47     2.801689599766   109.51526353   356.93325828
 C     48  47  46     2.616846911985   131.07667230   188.80376179
 C     51  48  47     2.621235987960   117.84750616   182.10444129
 C     52  51  48     2.636930911460   121.61698200     0.58207867
 C     49  48  47     2.609532341595   121.78979729   177.70145915
 O     50  49  48     2.284346890280   127.80800390   177.04748714
 C     47  46  45     2.589651865858   126.11032233   327.07277255
 C     56  47  46     2.662223149953   123.95194355   184.16366607
 C     56  47  46     2.666364120846   122.83512902   359.06155498
 F     52  51  48     2.527612619331   119.01521426   180.74783639
 F     53  52  51     2.529548833158   119.57334525   179.58702361
 N     57  56  47     2.168876563795   177.30616665   203.72500532
 N     58  56  47     2.168887240115   176.44880286   244.14543325
 C      1   2   3     2.671819666556   128.86047366   181.11313314
 S     63   1   2     3.280339766323   119.54571418   166.05737180
 C     45   1   2     2.664028012907    13.47467744   349.28084478
 C     65  45  46     2.615206466979   125.79391858   165.76169749
 C     66  65  45     2.636005368033   114.20789850   177.52799905
 S     67  66  65     3.310837550846   124.81401396   180.37668267
 C     68  67  66     3.458985676588   102.69130774    12.71737977
 C     69  68  67     2.874273908273   108.80003789   169.16122996
 C     70  69  68     2.879401330274   110.88611323   180.00315824
 H      2   1   3     2.027681041771   122.93808659   177.87279634
 H      9   6   5     2.037926899693   119.89601265   177.67460506
 H     15   5   4     2.038328455148   122.54900359   358.70812256
 H     18  12  11     2.031645711734   125.54771794   358.23756949
 H     19   4   3     2.060430453250   108.98305024   185.49425703
 H     19   4   3     2.063022909816   108.58596483    67.87341972
 H     20  19   4     2.056037731313   110.68642005   301.06593622
 H     20  19   4     2.054510638149   110.05678891   181.21255991
 H     20  19   4     2.055085205826   110.88191088    61.41193141
 H     21   4   3     2.065589782240   107.85779166    51.25220372
 H     21   4   3     2.064168757060   107.23671539   295.64405893
 H     22  21   4     2.052835565087   111.07584484   295.18353682
 H     22  21   4     2.055290193682   109.13218187   176.34537113
 H     22  21   4     2.053146541224   111.51462681    57.15853238
 H     23  11  10     2.063294800888   108.52806737   180.24436034
 H     23  11  10     2.060966982814   108.90819127    62.78180890
 H     24  23  11     2.054681256685   111.30979438   299.25438604
 H     24  23  11     2.054499205120   109.88753761   179.36528532
 H     24  23  11     2.056062318955   110.66517207    59.75236390
 H     25  11  10     2.064102467296   107.27757338   176.07007264
 H     25  11  10     2.065886381394   107.94987065    60.39069800
 H     26  25  11     2.052812798773   111.48075445   303.88130016
 H     26  25  11     2.055332273047   109.15104554   184.68780943
 H     26  25  11     2.052426068515   111.04702895    65.80421152
 H     27  17  16     2.052364138126   115.67823474   206.39241670
 H     33  30  29     2.037019189422   122.95428490   357.49028962
 H     36  31  30     2.037690801074   121.54921156   179.41342604
 H     45   1   2     2.052066510573   127.03754882   315.19931485
 H     51  48  47     2.037027325204   122.92047012     2.81253115
 H     54  49  48     2.037694234931   121.56354318   180.65516420
 H     66  65  45     2.030169565428   121.26113146   355.10823202
 H     69  68  67     2.060229071795   107.76044343    48.93816382
 H     69  68  67     2.060654561066   108.25766416   289.60741169
 H     70  69  68     2.063179466241   109.25038974    58.81986330
 H     70  69  68     2.063394084755   109.18140374   301.15559748
 H     71  70  69     2.055124529672   110.64814000   299.60450140
 H     71  70  69     2.053121694463   110.18875786   179.71902946
 H     71  70  69     2.055375862678   110.65014686    59.84746378

---------------------
BASIS SET INFORMATION
---------------------
There are 6 groups of distinct atoms

 Group   1 Type C   : 11s6p2d1f contracted to 5s3p2d1f pattern {62111/411/11/1}
 Group   2 Type S   : 14s9p3d1f contracted to 5s5p2d1f pattern {73211/51111/21/1}
 Group   3 Type O   : 11s6p2d1f contracted to 5s3p2d1f pattern {62111/411/11/1}
 Group   4 Type F   : 11s6p2d1f contracted to 5s3p2d1f pattern {62111/411/11/1}
 Group   5 Type N   : 11s6p2d1f contracted to 5s3p2d1f pattern {62111/411/11/1}
 Group   6 Type H   : 5s1p contracted to 3s1p pattern {311/1}

Atom   0C    basis set group =>   1
Atom   1C    basis set group =>   1
Atom   2C    basis set group =>   1
Atom   3C    basis set group =>   1
Atom   4C    basis set group =>   1
Atom   5C    basis set group =>   1
Atom   6C    basis set group =>   1
Atom   7S    basis set group =>   2
Atom   8C    basis set group =>   1
Atom   9C    basis set group =>   1
Atom  10C    basis set group =>   1
Atom  11C    basis set group =>   1
Atom  12C    basis set group =>   1
Atom  13C    basis set group =>   1
Atom  14C    basis set group =>   1
Atom  15S    basis set group =>   2
Atom  16C    basis set group =>   1
Atom  17C    basis set group =>   1
Atom  18C    basis set group =>   1
Atom  19C    basis set group =>   1
Atom  20C    basis set group =>   1
Atom  21C    basis set group =>   1
Atom  22C    basis set group =>   1
Atom  23C    basis set group =>   1
Atom  24C    basis set group =>   1
Atom  25C    basis set group =>   1
Atom  26C    basis set group =>   1
Atom  27C    basis set group =>   1
Atom  28C    basis set group =>   1
Atom  29C    basis set group =>   1
Atom  30C    basis set group =>   1
Atom  31C    basis set group =>   1
Atom  32C    basis set group =>   1
Atom  33C    basis set group =>   1
Atom  34C    basis set group =>   1
Atom  35C    basis set group =>   1
Atom  36O    basis set group =>   3
Atom  37C    basis set group =>   1
Atom  38C    basis set group =>   1
Atom  39C    basis set group =>   1
Atom  40F    basis set group =>   4
Atom  41F    basis set group =>   4
Atom  42N    basis set group =>   5
Atom  43N    basis set group =>   5
Atom  44C    basis set group =>   1
Atom  45C    basis set group =>   1
Atom  46C    basis set group =>   1
Atom  47C    basis set group =>   1
Atom  48C    basis set group =>   1
Atom  49C    basis set group =>   1
Atom  50C    basis set group =>   1
Atom  51C    basis set group =>   1
Atom  52C    basis set group =>   1
Atom  53C    basis set group =>   1
Atom  54O    basis set group =>   3
Atom  55C    basis set group =>   1
Atom  56C    basis set group =>   1
Atom  57C    basis set group =>   1
Atom  58F    basis set group =>   4
Atom  59F    basis set group =>   4
Atom  60N    basis set group =>   5
Atom  61N    basis set group =>   5
Atom  62C    basis set group =>   1
Atom  63S    basis set group =>   2
Atom  64C    basis set group =>   1
Atom  65C    basis set group =>   1
Atom  66C    basis set group =>   1
Atom  67S    basis set group =>   2
Atom  68C    basis set group =>   1
Atom  69C    basis set group =>   1
Atom  70C    basis set group =>   1
Atom  71H    basis set group =>   6
Atom  72H    basis set group =>   6
Atom  73H    basis set group =>   6
Atom  74H    basis set group =>   6
Atom  75H    basis set group =>   6
Atom  76H    basis set group =>   6
Atom  77H    basis set group =>   6
Atom  78H    basis set group =>   6
Atom  79H    basis set group =>   6
Atom  80H    basis set group =>   6
Atom  81H    basis set group =>   6
Atom  82H    basis set group =>   6
Atom  83H    basis set group =>   6
Atom  84H    basis set group =>   6
Atom  85H    basis set group =>   6
Atom  86H    basis set group =>   6
Atom  87H    basis set group =>   6
Atom  88H    basis set group =>   6
Atom  89H    basis set group =>   6
Atom  90H    basis set group =>   6
Atom  91H    basis set group =>   6
Atom  92H    basis set group =>   6
Atom  93H    basis set group =>   6
Atom  94H    basis set group =>   6
Atom  95H    basis set group =>   6
Atom  96H    basis set group =>   6
Atom  97H    basis set group =>   6
Atom  98H    basis set group =>   6
Atom  99H    basis set group =>   6
Atom 100H    basis set group =>   6
Atom 101H    basis set group =>   6
Atom 102H    basis set group =>   6
Atom 103H    basis set group =>   6
Atom 104H    basis set group =>   6
Atom 105H    basis set group =>   6
Atom 106H    basis set group =>   6
Atom 107H    basis set group =>   6
Atom 108H    basis set group =>   6
---------------------------------
AUXILIARY/J BASIS SET INFORMATION
---------------------------------
There are 6 groups of distinct atoms

 Group   1 Type C   : 12s5p4d2f1g contracted to 6s4p3d1f1g pattern {711111/2111/211/2/1}
 Group   2 Type S   : 14s5p5d2f1g contracted to 8s4p3d1f1g pattern {71111111/2111/311/2/1}
 Group   3 Type O   : 12s5p4d2f1g contracted to 6s4p3d1f1g pattern {711111/2111/211/2/1}
 Group   4 Type F   : 12s5p4d2f1g contracted to 6s4p3d1f1g pattern {711111/2111/211/2/1}
 Group   5 Type N   : 12s5p4d2f1g contracted to 6s4p3d1f1g pattern {711111/2111/211/2/1}
 Group   6 Type H   : 5s2p1d contracted to 3s1p1d pattern {311/2/1}

Atom   0C    basis set group =>   1
Atom   1C    basis set group =>   1
Atom   2C    basis set group =>   1
Atom   3C    basis set group =>   1
Atom   4C    basis set group =>   1
Atom   5C    basis set group =>   1
Atom   6C    basis set group =>   1
Atom   7S    basis set group =>   2
Atom   8C    basis set group =>   1
Atom   9C    basis set group =>   1
Atom  10C    basis set group =>   1
Atom  11C    basis set group =>   1
Atom  12C    basis set group =>   1
Atom  13C    basis set group =>   1
Atom  14C    basis set group =>   1
Atom  15S    basis set group =>   2
Atom  16C    basis set group =>   1
Atom  17C    basis set group =>   1
Atom  18C    basis set group =>   1
Atom  19C    basis set group =>   1
Atom  20C    basis set group =>   1
Atom  21C    basis set group =>   1
Atom  22C    basis set group =>   1
Atom  23C    basis set group =>   1
Atom  24C    basis set group =>   1
Atom  25C    basis set group =>   1
Atom  26C    basis set group =>   1
Atom  27C    basis set group =>   1
Atom  28C    basis set group =>   1
Atom  29C    basis set group =>   1
Atom  30C    basis set group =>   1
Atom  31C    basis set group =>   1
Atom  32C    basis set group =>   1
Atom  33C    basis set group =>   1
Atom  34C    basis set group =>   1
Atom  35C    basis set group =>   1
Atom  36O    basis set group =>   3
Atom  37C    basis set group =>   1
Atom  38C    basis set group =>   1
Atom  39C    basis set group =>   1
Atom  40F    basis set group =>   4
Atom  41F    basis set group =>   4
Atom  42N    basis set group =>   5
Atom  43N    basis set group =>   5
Atom  44C    basis set group =>   1
Atom  45C    basis set group =>   1
Atom  46C    basis set group =>   1
Atom  47C    basis set group =>   1
Atom  48C    basis set group =>   1
Atom  49C    basis set group =>   1
Atom  50C    basis set group =>   1
Atom  51C    basis set group =>   1
Atom  52C    basis set group =>   1
Atom  53C    basis set group =>   1
Atom  54O    basis set group =>   3
Atom  55C    basis set group =>   1
Atom  56C    basis set group =>   1
Atom  57C    basis set group =>   1
Atom  58F    basis set group =>   4
Atom  59F    basis set group =>   4
Atom  60N    basis set group =>   5
Atom  61N    basis set group =>   5
Atom  62C    basis set group =>   1
Atom  63S    basis set group =>   2
Atom  64C    basis set group =>   1
Atom  65C    basis set group =>   1
Atom  66C    basis set group =>   1
Atom  67S    basis set group =>   2
Atom  68C    basis set group =>   1
Atom  69C    basis set group =>   1
Atom  70C    basis set group =>   1
Atom  71H    basis set group =>   6
Atom  72H    basis set group =>   6
Atom  73H    basis set group =>   6
Atom  74H    basis set group =>   6
Atom  75H    basis set group =>   6
Atom  76H    basis set group =>   6
Atom  77H    basis set group =>   6
Atom  78H    basis set group =>   6
Atom  79H    basis set group =>   6
Atom  80H    basis set group =>   6
Atom  81H    basis set group =>   6
Atom  82H    basis set group =>   6
Atom  83H    basis set group =>   6
Atom  84H    basis set group =>   6
Atom  85H    basis set group =>   6
Atom  86H    basis set group =>   6
Atom  87H    basis set group =>   6
Atom  88H    basis set group =>   6
Atom  89H    basis set group =>   6
Atom  90H    basis set group =>   6
Atom  91H    basis set group =>   6
Atom  92H    basis set group =>   6
Atom  93H    basis set group =>   6
Atom  94H    basis set group =>   6
Atom  95H    basis set group =>   6
Atom  96H    basis set group =>   6
Atom  97H    basis set group =>   6
Atom  98H    basis set group =>   6
Atom  99H    basis set group =>   6
Atom 100H    basis set group =>   6
Atom 101H    basis set group =>   6
Atom 102H    basis set group =>   6
Atom 103H    basis set group =>   6
Atom 104H    basis set group =>   6
Atom 105H    basis set group =>   6
Atom 106H    basis set group =>   6
Atom 107H    basis set group =>   6
Atom 108H    basis set group =>   6
------------------------------------------------------------------------------
                           ORCA GTO INTEGRAL CALCULATION
                           -- RI-GTO INTEGRALS CHOSEN --
------------------------------------------------------------------------------

                         BASIS SET STATISTICS AND STARTUP INFO

Gaussian basis set:
 # of primitive gaussian shells          ... 1676
 # of primitive gaussian functions       ... 3638
 # of contracted shells                  ...  941
 # of contracted basis functions         ... 2453
 Highest angular momentum                ...    3
 Maximum contraction depth               ...    7
Auxiliary gaussian basis set:
 # of primitive gaussian shells          ... 2020
 # of primitive gaussian functions       ... 5606
 # of contracted shells                  ... 1263
 # of contracted aux-basis functions     ... 3905
 Highest angular momentum                ...    4
 Maximum contraction depth               ...    7
Ratio of auxiliary to basis functions    ...  1.59
Integral package used                  ... LIBINT
 One Electron integrals                  ... done
 Ordering auxiliary basis shells         ... done
 Integral threshhold             Thresh  ...  2.500e-11
 Primitive cut-off               TCut    ...  2.500e-12
 Pre-screening matrix                    ... done
 Shell pair data                         ... 
 Ordering of the shell pairs             ... done (   0.035 sec) 148795 of 443211 pairs
 Determination of significant pairs      ... done (   0.001 sec)
 Creation of shell pair data             ... done (   0.018 sec)
 Storage of shell pair data              ... done (   0.023 sec)
 Shell pair data done in (   0.077 sec)
 Computing two index integrals           ... done
 Cholesky decomposition of the V-matrix  ... done


Timings:
 Total evaluation time                   ...   6.814 sec (  0.114 min)
 One electron matrix time                ...   2.329 sec (  0.039 min) = 34.2%
 Schwartz matrix evaluation time         ...   3.483 sec (  0.058 min) = 51.1%
 Two index repulsion integral time       ...   0.368 sec (  0.006 min) =  5.4%
 Cholesky decomposition of V             ...   0.540 sec (  0.009 min) =  7.9%
 Three index repulsion integral time     ...   0.000 sec (  0.000 min) =  0.0%

-------------------------------------------------------------------------------
                                 ORCA SCF
-------------------------------------------------------------------------------

------------
SCF SETTINGS
------------
Hamiltonian:
 Density Functional     Method          .... DFT(GTOs)
 Exchange Functional    Exchange        .... B88
   X-Alpha parameter    XAlpha          ....  0.666667
   Becke's b parameter  XBeta           ....  0.004200
 Correlation Functional Correlation     .... LYP
 LDA part of GGA corr.  LDAOpt          .... VWN-5
 Gradients option       PostSCFGGA      .... off
 Hybrid DFT is turned on
   Fraction HF Exchange ScalHFX         ....  0.200000
   Scaling of DF-GGA-X  ScalDFX         ....  0.720000
   Scaling of DF-GGA-C  ScalDFC         ....  0.810000
   Scaling of DF-LDA-C  ScalLDAC        ....  1.000000
   Perturbative correction              ....  0.000000
   Density functional embedding theory  .... OFF
   NL short-range parameter             ....  4.800000
 RI-approximation to the Coulomb term is turned on
   Number of auxiliary basis functions  .... 3905
   RIJ-COSX (HFX calculated with COS-X)).... on


General Settings:
 Integral files         IntName         .... IDST-4F
 Hartree-Fock type      HFTyp           .... RHF
 Total Charge           Charge          ....    0
 Multiplicity           Mult            ....    1
 Number of Electrons    NEL             ....  524
 Basis Dimension        Dim             .... 2453
 Nuclear Repulsion      ENuc            ....  10908.2303024361 Eh

Convergence Acceleration:
 DIIS                   CNVDIIS         .... on
   Start iteration      DIISMaxIt       ....    12
   Startup error        DIISStart       ....  0.200000
   # of expansion vecs  DIISMaxEq       ....     5
   Bias factor          DIISBfac        ....   1.050
   Max. coefficient     DIISMaxC        ....  10.000
 Newton-Raphson         CNVNR           .... off
 SOSCF                  CNVSOSCF        .... on
   Start iteration      SOSCFMaxIt      ....   150
   Startup grad/error   SOSCFStart      ....  0.003300
 Level Shifting         CNVShift        .... on
   Level shift para.    LevelShift      ....    0.2500
   Turn off err/grad.   ShiftErr        ....    0.0010
 Zerner damping         CNVZerner       .... off
 Static damping         CNVDamp         .... on
   Fraction old density DampFac         ....    0.7000
   Max. Damping (<1)    DampMax         ....    0.9800
   Min. Damping (>=0)   DampMin         ....    0.0000
   Turn off err/grad.   DampErr         ....    0.1000
 Fernandez-Rico         CNVRico         .... off

SCF Procedure:
 Maximum # iterations   MaxIter         ....   125
 SCF integral mode      SCFMode         .... Direct
   Integral package                     .... LIBINT
 Reset frequency        DirectResetFreq ....    20
 Integral Threshold     Thresh          ....  2.500e-11 Eh
 Primitive CutOff       TCut            ....  2.500e-12 Eh

Convergence Tolerance:
 Convergence Check Mode ConvCheckMode   .... Total+1el-Energy
 Convergence forced     ConvForced      .... 1
 Energy Change          TolE            ....  1.000e-08 Eh
 1-El. energy change                    ....  1.000e-05 Eh
 Orbital Gradient       TolG            ....  1.000e-05
 Orbital Rotation angle TolX            ....  1.000e-05
 DIIS Error             TolErr          ....  5.000e-07


Diagonalization of the overlap matrix:
Smallest eigenvalue                        ... 2.298e-06
Time for diagonalization                   ...    3.782 sec
Threshold for overlap eigenvalues          ... 1.000e-08
Number of eigenvalues below threshold      ... 0
Time for construction of square roots      ...    1.187 sec
Total time needed                          ...    4.985 sec

-------------------
DFT GRID GENERATION
-------------------

General Integration Accuracy     IntAcc      ...  4.670
Radial Grid Type                 RadialGrid  ... Gauss-Chebyshev
Angular Grid (max. acc.)         AngularGrid ... Lebedev-302
Angular grid pruning method      GridPruning ... 3 (G Style)
Weight generation scheme         WeightScheme... Becke
Basis function cutoff            BFCut       ...    1.0000e-11
Integration weight cutoff        WCut        ...    1.0000e-14
Grids for H and He will be reduced by one unit

# of grid points (after initial pruning)     ... 572800 (   2.1 sec)
# of grid points (after weights+screening)   ... 485687 (  18.9 sec)
nearest neighbour list constructed           ...    0.0 sec
Grid point re-assignment to atoms done       ...    0.1 sec
Grid point division into batches done        ...    1.7 sec
Reduced shell lists constructed in   16.7 sec

Total number of grid points                  ...   485687
Total number of batches                      ...     7638
Average number of points per batch           ...       63
Average number of grid points per atom       ...     4456
Average number of shells per batch           ...   168.55 (17.91%)
Average number of basis functions per batch  ...   416.37 (16.97%)
Average number of large shells per batch     ...   100.21 (59.45%)
Average number of large basis fcns per batch ...   252.60 (60.67%)
Maximum spatial batch extension              ...  21.32, 19.40, 22.52 au
Average spatial batch extension              ...   2.13,  2.07,  2.18 au

Time for grid setup =   37.810 sec

------------------------------
INITIAL GUESS: MODEL POTENTIAL
------------------------------
Loading Hartree-Fock densities                     ... done
Calculating cut-offs                               ... done
Setting up the integral package                    ... done
Initializing the effective Hamiltonian             ... done
Starting the Coulomb interaction                   ... done (  29.9 sec)
Reading the grid                                   ... done
Mapping shells                                     ... done
Starting the XC term evaluation                    ... done (  25.7 sec)
  promolecular density results
     # of electrons  =    523.980264303
     EX              =   -487.622551865
     EC              =    -18.514271508
     EX+EC           =   -506.136823372
Transforming the Hamiltonian                       ... done (   1.1 sec)
Diagonalizing the Hamiltonian                      ... done (   3.2 sec)
Back transforming the eigenvectors                 ... done (   0.5 sec)
Now organizing SCF variables                       ... done
                      ------------------
                      INITIAL GUESS DONE (  99.0 sec)
                      ------------------
--------------------
COSX GRID GENERATION
--------------------

General Integration Accuracy     IntAcc      ...  3.340
Radial Grid Type                 RadialGrid  ... Gauss-Chebyshev
Angular Grid (max. acc.)         AngularGrid ... Lebedev-50
Angular grid pruning method      GridPruning ... 3 (G Style)
Weight generation scheme         WeightScheme... Becke
Basis function cutoff            BFCut       ...    1.0000e-11
Integration weight cutoff        WCut        ...    1.0000e-14
Grids for H and He will be reduced by one unit

# of grid points (after initial pruning)     ...  53788 (   0.1 sec)
# of grid points (after weights+screening)   ...  47709 (   1.7 sec)
nearest neighbour list constructed           ...    0.0 sec
Grid point re-assignment to atoms done       ...    0.0 sec
Grid point division into batches done        ...    0.0 sec
Reduced shell lists constructed in    2.3 sec

Total number of grid points                  ...    47709
Total number of batches                      ...      807
Average number of points per batch           ...       59
Average number of grid points per atom       ...      438
Average number of shells per batch           ...   205.06 (21.79%)
Average number of basis functions per batch  ...   512.52 (20.89%)
Average number of large shells per batch     ...   122.79 (59.88%)
Average number of large basis fcns per batch ...   314.52 (61.37%)
Maximum spatial batch extension              ...  17.57, 20.03, 21.47 au
Average spatial batch extension              ...   4.27,  4.15,  4.64 au

Overlap Fitting                  UseSFitting ... on
Constructing numerical overlap ... done (      2.4 sec)
Inverting numerical overlap    ... done (      0.4 sec)
Obtaining analytic overlap     ... done (      0.0 sec)
Final contraction and storage  ... done (      0.6 sec)


General Integration Accuracy     IntAcc      ...  3.670
Radial Grid Type                 RadialGrid  ... Gauss-Chebyshev
Angular Grid (max. acc.)         AngularGrid ... Lebedev-50
Angular grid pruning method      GridPruning ... 3 (G Style)
Weight generation scheme         WeightScheme... Becke
Basis function cutoff            BFCut       ...    1.0000e-11
Integration weight cutoff        WCut        ...    1.0000e-14
Grids for H and He will be reduced by one unit

# of grid points (after initial pruning)     ...  67398 (   0.1 sec)
# of grid points (after weights+screening)   ...  59473 (   2.2 sec)
nearest neighbour list constructed           ...    0.0 sec
Grid point re-assignment to atoms done       ...    0.0 sec
Grid point division into batches done        ...    0.0 sec
Reduced shell lists constructed in    2.9 sec

Total number of grid points                  ...    59473
Total number of batches                      ...      981
Average number of points per batch           ...       60
Average number of grid points per atom       ...      546
Average number of shells per batch           ...   201.07 (21.37%)
Average number of basis functions per batch  ...   502.01 (20.47%)
Average number of large shells per batch     ...   119.76 (59.56%)
Average number of large basis fcns per batch ...   306.17 (60.99%)
Maximum spatial batch extension              ...  20.32, 22.31, 23.85 au
Average spatial batch extension              ...   4.02,  3.88,  4.27 au

Overlap Fitting                  UseSFitting ... on
Constructing numerical overlap ... done (      2.8 sec)
Inverting numerical overlap    ... done (      0.4 sec)
Obtaining analytic overlap     ... done (      0.0 sec)
Final contraction and storage  ... done (      0.6 sec)


General Integration Accuracy     IntAcc      ...  4.010
Radial Grid Type                 RadialGrid  ... Gauss-Chebyshev
Angular Grid (max. acc.)         AngularGrid ... Lebedev-110
Angular grid pruning method      GridPruning ... 3 (G Style)
Weight generation scheme         WeightScheme... Becke
Basis function cutoff            BFCut       ...    1.0000e-11
Integration weight cutoff        WCut        ...    1.0000e-14
Grids for H and He will be reduced by one unit

# of grid points (after initial pruning)     ... 130088 (   0.2 sec)
# of grid points (after weights+screening)   ... 113821 (   4.3 sec)
nearest neighbour list constructed           ...    0.0 sec
Grid point re-assignment to atoms done       ...    0.0 sec
Grid point division into batches done        ...    0.1 sec
Reduced shell lists constructed in    4.7 sec

Total number of grid points                  ...   113821
Total number of batches                      ...     1836
Average number of points per batch           ...       61
Average number of grid points per atom       ...     1044
Average number of shells per batch           ...   189.84 (20.17%)
Average number of basis functions per batch  ...   473.18 (19.29%)
Average number of large shells per batch     ...   113.78 (59.93%)
Average number of large basis fcns per batch ...   290.16 (61.32%)
Maximum spatial batch extension              ...  19.91, 22.45, 21.17 au
Average spatial batch extension              ...   3.38,  3.23,  3.59 au

Overlap Fitting                  UseSFitting ... on
Constructing numerical overlap ... done (      4.7 sec)
Inverting numerical overlap    ... done (      0.3 sec)
Obtaining analytic overlap     ... done (      0.0 sec)
Final contraction and storage  ... done (      0.5 sec)

Time for X-Grid setup             =   31.450 sec
--------------
SCF ITERATIONS
--------------
ITER       Energy         Delta-E        Max-DP      RMS-DP      [F,P]     Damp
               ***  Starting incremental Fock matrix formation  ***
  0  -4553.7365067118   0.000000000000 0.20537617  0.00092216  0.3058767 0.7000
  1  -4554.6680443344  -0.931537622670 0.19060925  0.00074881  0.1033183 0.7000
                               ***Turning on DIIS***
  2  -4554.9865933868  -0.318549052377 0.29533549  0.00106687  0.0512295 0.0000
  3  -4555.5392216383  -0.552628251518 0.18396165  0.00069132  0.0580838 0.0000
  4  -4555.6494894241  -0.110267785800 0.05393616  0.00021670  0.0415982 0.0000
  5  -4555.6652423671  -0.015752942923 0.02181333  0.00010352  0.0103346 0.0000
                      *** Initiating the SOSCF procedure ***
                           *** Shutting down DIIS ***
                      *** Re-Reading the Fockian *** 
                      *** Removing any level shift *** 
ITER      Energy       Delta-E        Grad      Rot      Max-DP    RMS-DP
  6  -4555.66632078  -0.0010784142  0.001238  0.001238  0.006663  0.000034
               *** Restarting incremental Fock matrix formation ***
  7  -4555.66645987  -0.0001390884  0.000808  0.010439  0.014312  0.000062
  8  -4555.66649270  -0.0000328311  0.000321  0.004722  0.006612  0.000032
  9  -4555.66651733  -0.0000246251  0.000256  0.003814  0.006447  0.000028
 10  -4555.66652519  -0.0000078639  0.000145  0.001031  0.002452  0.000011
 11  -4555.66652789  -0.0000027008  0.000142  0.001902  0.002378  0.000010
 12  -4555.66652950  -0.0000016062  0.000113  0.000407  0.001116  0.000005
 13  -4555.66653047  -0.0000009684  0.000048  0.000523  0.001207  0.000005
 14  -4555.66653106  -0.0000005910  0.000033  0.000094  0.000818  0.000002
 15  -4555.66653129  -0.0000002313  0.000028  0.000276  0.001624  0.000003
 16  -4555.66653142  -0.0000001359  0.000016  0.000033  0.000518  0.000001
 17  -4555.66653146  -0.0000000390  0.000015  0.000094  0.001757  0.000002
 18  -4555.66653158  -0.0000001134  0.000005  0.000021  0.001253  0.000002
 19  -4555.66653145   0.0000001259  0.000005  0.000041  0.000653  0.000001
 20  -4555.66653150  -0.0000000526  0.000003  0.000027  0.001292  0.000002
 21  -4555.66653161  -0.0000001092  0.000005  0.000007  0.000145  0.000001
                  ***Gradient check signals convergence***
              ***Rediagonalizing the Fockian in SOSCF/NRSCF***

               *****************************************************
               *                     SUCCESS                       *
               *           SCF CONVERGED AFTER  22 CYCLES          *
               *****************************************************

Setting up the final grid:

General Integration Accuracy     IntAcc      ...  5.010
Radial Grid Type                 RadialGrid  ... Gauss-Chebyshev
Angular Grid (max. acc.)         AngularGrid ... Lebedev-434
Angular grid pruning method      GridPruning ... 3 (G Style)
Weight generation scheme         WeightScheme... Becke
Basis function cutoff            BFCut       ...    1.0000e-11
Integration weight cutoff        WCut        ...    1.0000e-14
Grids for H and He will be reduced by one unit

# of grid points (after initial pruning)     ... 1018358 (   1.9 sec)
# of grid points (after weights+screening)   ... 860478 (  34.2 sec)
nearest neighbour list constructed           ...    0.0 sec
Grid point re-assignment to atoms done       ...    0.2 sec
Grid point division into batches done        ...    5.8 sec
Reduced shell lists constructed in   32.2 sec

Total number of grid points                  ...   860478
Total number of batches                      ...    13501
Average number of points per batch           ...       63
Average number of grid points per atom       ...     7894
Average number of shells per batch           ...   162.63 (17.28%)
Average number of basis functions per batch  ...   400.08 (16.31%)
Average number of large shells per batch     ...    96.44 (59.30%)
Average number of large basis fcns per batch ...   242.20 (60.54%)
Maximum spatial batch extension              ...  22.63, 21.30, 27.81 au
Average spatial batch extension              ...   1.72,  1.68,  1.76 au

Final grid set up in   68.5 sec
Final integration                            ... done (  63.8 sec)
Change in XC energy                          ...    -0.000109252
Integrated number of electrons               ...   524.000190444
Previous integrated no of electrons          ...   523.999256603
Old exchange energy                            =    -98.559192641 Eh
New exchange energy                            =    -98.560698984 Eh
Exchange energy change after final integration =     -0.001506343 Eh
Total energy after final integration           =  -4555.668147226 Eh
Final COS-X integration done in                =  1716.246 sec

----------------
TOTAL SCF ENERGY
----------------

Total Energy       :        -4555.66814723 Eh         -123966.03260 eV

Components:
Nuclear Repulsion  :        10908.23030244 Eh          296828.03698 eV
Electronic Energy  :       -15463.89844966 Eh         -420794.06957 eV
One Electron Energy:       -27968.33883238 Eh         -761057.19103 eV
Two Electron Energy:        12504.44038272 Eh          340263.12146 eV

Virial components:
Potential Energy   :        -9097.51658354 Eh         -247556.01174 eV
Kinetic Energy     :         4541.84843631 Eh          123589.97915 eV
Virial Ratio       :            2.00304275


DFT components:
N(Alpha)           :      262.000095222051 electrons
N(Beta)            :      262.000095222051 electrons
N(Total)           :      524.000190444102 electrons
E(X)               :     -391.741200846805 Eh       
E(C)               :      -21.755326942403 Eh       
E(XC)              :     -413.496527789208 Eh       
DFET-embed. en.    :        0.000000000000 Eh       

---------------
SCF CONVERGENCE
---------------

  Last Energy change         ...   -1.9809e-08  Tolerance :   1.0000e-08
  Last MAX-Density change    ...    4.4409e-15  Tolerance :   1.0000e-07
  Last RMS-Density change    ...    1.2214e-17  Tolerance :   5.0000e-09
  Last Orbital Gradient      ...    8.9168e-07  Tolerance :   1.0000e-05
  Last Orbital Rotation      ...    8.1736e-06  Tolerance :   1.0000e-05

             **** THE GBW FILE WAS UPDATED (IDST-4F.gbw) ****
             **** DENSITY FILE WAS UPDATED (IDST-4F.scfp) ****
             **** ENERGY FILE WAS UPDATED (IDST-4F.en.tmp) ****
             **** THE GBW FILE WAS UPDATED (IDST-4F.gbw) ****
             **** DENSITY FILE WAS UPDATED (IDST-4F.scfp) ****
----------------
ORBITAL ENERGIES
----------------

  NO   OCC          E(Eh)            E(eV) 
   0   2.0000     -88.908951     -2419.3356 
   1   2.0000     -88.908832     -2419.3323 
   2   2.0000     -88.907250     -2419.2893 
   3   2.0000     -88.880716     -2418.5672 
   4   2.0000     -24.724637      -672.7916 
   5   2.0000     -24.724467      -672.7869 
   6   2.0000     -24.723213      -672.7528 
   7   2.0000     -24.722911      -672.7446 
   8   2.0000     -19.131917      -520.6059 
   9   2.0000     -19.129427      -520.5382 
  10   2.0000     -14.328869      -389.9084 
  11   2.0000     -14.327366      -389.8675 
  12   2.0000     -14.326042      -389.8314 
  13   2.0000     -14.325724      -389.8228 
  14   2.0000     -10.300386      -280.2877 
  15   2.0000     -10.299319      -280.2587 
  16   2.0000     -10.298710      -280.2421 
  17   2.0000     -10.297770      -280.2166 
  18   2.0000     -10.277816      -279.6736 
  19   2.0000     -10.275419      -279.6084 
  20   2.0000     -10.256641      -279.0974 
  21   2.0000     -10.254766      -279.0464 
  22   2.0000     -10.254499      -279.0391 
  23   2.0000     -10.253382      -279.0087 
  24   2.0000     -10.246450      -278.8201 
  25   2.0000     -10.238415      -278.6014 
  26   2.0000     -10.235825      -278.5309 
  27   2.0000     -10.235807      -278.5305 
  28   2.0000     -10.233218      -278.4600 
  29   2.0000     -10.230730      -278.3923 
  30   2.0000     -10.230239      -278.3790 
  31   2.0000     -10.229763      -278.3660 
  32   2.0000     -10.228905      -278.3426 
  33   2.0000     -10.227509      -278.3047 
  34   2.0000     -10.226731      -278.2835 
  35   2.0000     -10.225575      -278.2520 
  36   2.0000     -10.224585      -278.2251 
  37   2.0000     -10.223662      -278.2000 
  38   2.0000     -10.223623      -278.1989 
  39   2.0000     -10.222840      -278.1776 
  40   2.0000     -10.220273      -278.1078 
  41   2.0000     -10.220017      -278.1008 
  42   2.0000     -10.218599      -278.0622 
  43   2.0000     -10.218538      -278.0606 
  44   2.0000     -10.216982      -278.0182 
  45   2.0000     -10.215152      -277.9684 
  46   2.0000     -10.213765      -277.9307 
  47   2.0000     -10.212355      -277.8923 
  48   2.0000     -10.211903      -277.8800 
  49   2.0000     -10.211396      -277.8662 
  50   2.0000     -10.211362      -277.8653 
  51   2.0000     -10.210316      -277.8368 
  52   2.0000     -10.210127      -277.8317 
  53   2.0000     -10.208746      -277.7941 
  54   2.0000     -10.205106      -277.6950 
  55   2.0000     -10.203608      -277.6543 
  56   2.0000     -10.202704      -277.6297 
  57   2.0000     -10.200460      -277.5686 
  58   2.0000     -10.199225      -277.5350 
  59   2.0000     -10.198798      -277.5234 
  60   2.0000     -10.198274      -277.5091 
  61   2.0000     -10.194671      -277.4111 
  62   2.0000     -10.187158      -277.2067 
  63   2.0000     -10.186390      -277.1858 
  64   2.0000     -10.185684      -277.1665 
  65   2.0000     -10.182575      -277.0820 
  66   2.0000     -10.178578      -276.9732 
  67   2.0000     -10.169649      -276.7302 
  68   2.0000     -10.168586      -276.7013 
  69   2.0000     -10.165253      -276.6106 
  70   2.0000     -10.156281      -276.3665 
  71   2.0000      -7.985573      -217.2985 
  72   2.0000      -7.985399      -217.2937 
  73   2.0000      -7.984475      -217.2686 
  74   2.0000      -7.957803      -216.5428 
  75   2.0000      -5.947951      -161.8520 
  76   2.0000      -5.947899      -161.8506 
  77   2.0000      -5.946976      -161.8254 
  78   2.0000      -5.944280      -161.7521 
  79   2.0000      -5.944158      -161.7488 
  80   2.0000      -5.943217      -161.7231 
  81   2.0000      -5.942250      -161.6969 
  82   2.0000      -5.941983      -161.6896 
  83   2.0000      -5.940844      -161.6586 
  84   2.0000      -5.920822      -161.1138 
  85   2.0000      -5.917393      -161.0205 
  86   2.0000      -5.912688      -160.8924 
  87   2.0000      -1.267875       -34.5006 
  88   2.0000      -1.266339       -34.4588 
  89   2.0000      -1.254501       -34.1367 
  90   2.0000      -1.252977       -34.0952 
  91   2.0000      -1.062642       -28.9160 
  92   2.0000      -1.060239       -28.8506 
  93   2.0000      -0.945784       -25.7361 
  94   2.0000      -0.945028       -25.7155 
  95   2.0000      -0.940833       -25.6014 
  96   2.0000      -0.934214       -25.4213 
  97   2.0000      -0.926521       -25.2119 
  98   2.0000      -0.925039       -25.1716 
  99   2.0000      -0.924841       -25.1662 
 100   2.0000      -0.922745       -25.1092 
 101   2.0000      -0.920616       -25.0512 
 102   2.0000      -0.892639       -24.2899 
 103   2.0000      -0.881803       -23.9951 
 104   2.0000      -0.878710       -23.9109 
 105   2.0000      -0.868465       -23.6321 
 106   2.0000      -0.847052       -23.0495 
 107   2.0000      -0.838948       -22.8289 
 108   2.0000      -0.831708       -22.6319 
 109   2.0000      -0.829365       -22.5682 
 110   2.0000      -0.823117       -22.3982 
 111   2.0000      -0.817765       -22.2525 
 112   2.0000      -0.805136       -21.9089 
 113   2.0000      -0.800893       -21.7934 
 114   2.0000      -0.799326       -21.7508 
 115   2.0000      -0.794434       -21.6176 
 116   2.0000      -0.781429       -21.2638 
 117   2.0000      -0.773399       -21.0453 
 118   2.0000      -0.771349       -20.9895 
 119   2.0000      -0.770358       -20.9625 
 120   2.0000      -0.765180       -20.8216 
 121   2.0000      -0.764444       -20.8016 
 122   2.0000      -0.760536       -20.6952 
 123   2.0000      -0.740997       -20.1635 
 124   2.0000      -0.734910       -19.9979 
 125   2.0000      -0.720360       -19.6020 
 126   2.0000      -0.703039       -19.1307 
 127   2.0000      -0.702064       -19.1041 
 128   2.0000      -0.699137       -19.0245 
 129   2.0000      -0.695333       -18.9210 
 130   2.0000      -0.688640       -18.7389 
 131   2.0000      -0.675231       -18.3740 
 132   2.0000      -0.668760       -18.1979 
 133   2.0000      -0.654213       -17.8020 
 134   2.0000      -0.646669       -17.5968 
 135   2.0000      -0.640274       -17.4227 
 136   2.0000      -0.636346       -17.3158 
 137   2.0000      -0.631408       -17.1815 
 138   2.0000      -0.627566       -17.0769 
 139   2.0000      -0.626457       -17.0468 
 140   2.0000      -0.617501       -16.8031 
 141   2.0000      -0.617257       -16.7964 
 142   2.0000      -0.613226       -16.6867 
 143   2.0000      -0.606697       -16.5091 
 144   2.0000      -0.600821       -16.3492 
 145   2.0000      -0.593850       -16.1595 
 146   2.0000      -0.589244       -16.0342 
 147   2.0000      -0.581229       -15.8160 
 148   2.0000      -0.576228       -15.6800 
 149   2.0000      -0.573470       -15.6049 
 150   2.0000      -0.571807       -15.5597 
 151   2.0000      -0.569858       -15.5066 
 152   2.0000      -0.564848       -15.3703 
 153   2.0000      -0.551682       -15.0120 
 154   2.0000      -0.550271       -14.9736 
 155   2.0000      -0.544755       -14.8235 
 156   2.0000      -0.539764       -14.6877 
 157   2.0000      -0.535615       -14.5748 
 158   2.0000      -0.529674       -14.4132 
 159   2.0000      -0.528310       -14.3760 
 160   2.0000      -0.524308       -14.2672 
 161   2.0000      -0.519812       -14.1448 
 162   2.0000      -0.518349       -14.1050 
 163   2.0000      -0.516190       -14.0462 
 164   2.0000      -0.504223       -13.7206 
 165   2.0000      -0.503162       -13.6917 
 166   2.0000      -0.498223       -13.5573 
 167   2.0000      -0.490153       -13.3378 
 168   2.0000      -0.486087       -13.2271 
 169   2.0000      -0.484728       -13.1901 
 170   2.0000      -0.484581       -13.1861 
 171   2.0000      -0.483244       -13.1497 
 172   2.0000      -0.483096       -13.1457 
 173   2.0000      -0.482978       -13.1425 
 174   2.0000      -0.480800       -13.0832 
 175   2.0000      -0.476155       -12.9568 
 176   2.0000      -0.472299       -12.8519 
 177   2.0000      -0.469946       -12.7879 
 178   2.0000      -0.465650       -12.6710 
 179   2.0000      -0.463613       -12.6156 
 180   2.0000      -0.463041       -12.6000 
 181   2.0000      -0.462845       -12.5947 
 182   2.0000      -0.460079       -12.5194 
 183   2.0000      -0.457938       -12.4611 
 184   2.0000      -0.456841       -12.4313 
 185   2.0000      -0.454326       -12.3628 
 186   2.0000      -0.453179       -12.3316 
 187   2.0000      -0.449616       -12.2347 
 188   2.0000      -0.446673       -12.1546 
 189   2.0000      -0.443487       -12.0679 
 190   2.0000      -0.440362       -11.9829 
 191   2.0000      -0.438317       -11.9272 
 192   2.0000      -0.436939       -11.8897 
 193   2.0000      -0.430888       -11.7251 
 194   2.0000      -0.429870       -11.6974 
 195   2.0000      -0.428846       -11.6695 
 196   2.0000      -0.428672       -11.6647 
 197   2.0000      -0.426280       -11.5997 
 198   2.0000      -0.425649       -11.5825 
 199   2.0000      -0.423473       -11.5233 
 200   2.0000      -0.422347       -11.4927 
 201   2.0000      -0.418056       -11.3759 
 202   2.0000      -0.414699       -11.2845 
 203   2.0000      -0.411382       -11.1943 
 204   2.0000      -0.409272       -11.1369 
 205   2.0000      -0.405987       -11.0475 
 206   2.0000      -0.401007       -10.9119 
 207   2.0000      -0.398994       -10.8572 
[...]
   Time for Sigma-Completion:   516.014
   Size of expansion space: 6
   Lowest Energy          :     0.039971788049
   Maximum Energy change  :     0.000037472946 (vector 2)
   Maximum residual norm  :     0.000001013623

                       ****Iteration    4****
   Time for densities:     6.104
   Time for K (COSX):  2398.386
   Time for XC-Integration:    25.653
   Time for Sigma-Completion:   258.172
   Size of expansion space: 9
   Lowest Energy          :     0.039971687091
   Maximum Energy change  :     0.000016465022 (vector 2)
   Maximum residual norm  :     0.000000455271

                       ****Iteration    5****
   Time for densities:     6.031
   Time for K (COSX):  2393.763
   Time for XC-Integration:    25.659
   Time for Sigma-Completion:   256.782
   Size of expansion space: 12
   Lowest Energy          :     0.039971683066
   Maximum Energy change  :     0.000004176909 (vector 2)
   Maximum residual norm  :     0.000000421973

                       ****Iteration    6****
   Time for densities:     6.062
   Time for K (COSX):  2380.488
   Time for XC-Integration:    25.850
   Time for Sigma-Completion:   258.464
   Size of expansion space: 15
   Lowest Energy          :     0.039971682940
   Maximum Energy change  :     0.000001095817 (vector 2)
   Maximum residual norm  :     0.000000318284
   Rebuilding the expansion space

                       ****Iteration    7****
   Time for densities:    12.148
   Time for K (COSX):  2429.059
   Time for XC-Integration:    49.296
   Time for Sigma-Completion:   514.683
   Size of expansion space: 6
   Lowest Energy          :     0.039971684384
   Maximum Energy change  :     0.000000433888 (vector 2)
   Maximum residual norm  :     0.000000490977

                       ****Iteration    8****
   Time for densities:     6.068
   Time for K (COSX):  2465.485
   Time for XC-Integration:    28.222
   Time for Sigma-Completion:   250.470
   Size of expansion space: 9
   Lowest Energy          :     0.039971684384
   Maximum Energy change  :     0.000001922226 (vector 2)
   Maximum residual norm  :     0.000000670795

                       ****Iteration    9****
   Time for densities:     6.057
   Time for K (COSX):  2453.529
   Time for XC-Integration:    27.491
   Time for Sigma-Completion:   254.653
   Size of expansion space: 12
   Lowest Energy          :     0.039971684384
   Maximum Energy change  :     0.000003162819 (vector 2)
   Maximum residual norm  :     0.000000248791

      *** CONVERGENCE OF RESIDUAL NORM REACHED ***

Storing the converged CI vectors               ... IDST-4F.cis3

                 *** DAVIDSON DONE ***

------------------------------------
TD-DFT/TDA EXCITED STATES (TRIPLETS)
------------------------------------

the weight of the individual excitations are printed if larger than 1.0e-02

STATE  1:  E=   0.039972 au      1.088 eV     8772.8 cm**-1
   260a -> 263a  :     0.042982 (c= -0.20731993)
   261a -> 262a  :     0.894508 (c= -0.94578452)
   261a -> 263a  :     0.016467 (c= -0.12832537)

STATE  2:  E=   0.050321 au      1.369 eV    11044.2 cm**-1
   260a -> 262a  :     0.209658 (c=  0.45788435)
   260a -> 263a  :     0.033387 (c= -0.18272004)
   261a -> 262a  :     0.013781 (c= -0.11739387)
   261a -> 263a  :     0.694991 (c=  0.83366144)
   261a -> 265a  :     0.010159 (c=  0.10079422)

STATE  3:  E=   0.070778 au      1.926 eV    15534.1 cm**-1
   258a -> 263a  :     0.012281 (c= -0.11082076)
   259a -> 263a  :     0.029533 (c=  0.17185255)
   260a -> 262a  :     0.528774 (c= -0.72716828)
   260a -> 263a  :     0.040906 (c=  0.20225298)
   260a -> 264a  :     0.012752 (c= -0.11292624)
   261a -> 263a  :     0.250804 (c=  0.50080345)
   261a -> 264a  :     0.069169 (c= -0.26299981)
   261a -> 265a  :     0.011358 (c= -0.10657499)

------------------------------
TD-DFT/TDA SPIN-ORBIT COUPLING
------------------------------

Calculating the spin-orbit integrals:             

Loading the effective charges         ... done
Entering the SOC calc. section        ... 
------------------------------------------------------------------------------
                         ORCA SPIN-ORBIT COUPLING CALCULATION
------------------------------------------------------------------------------

GBW file                                    ... IDST-4F.gbw
Input density                               ... IDST-4F.cisp0
Output integrals                            ... IDST-4F.cis
Operator type                               ... Mean-field/Effective potential
   One-Electron Terms                       ... 1
   Coulomb Contribution                     ... 2
   Exchange Contribution                    ... 3
   Correlation Contribution                 ... 0
   Maximum number of centers                ... 4
Setting up the integration grid             ... done
Evaluating density on the grid              ... (NumEl=  523.999257) done
Evaluating Coulomb term semi-analytically   ... done
One-Center Exchange (+SOO)                  ... done
Evaluating the spin-orbit operator          ... done
Transforming the SOC integrals              ... done
Constructing the SOC matrix:                ... done
Diagonalizing the SOC matrix:               ... done

      --------------------------------------------------------------------------------
                      CALCULATED SOCME BETWEEN TRIPLETS AND SINGLETS                  
      --------------------------------------------------------------------------------
           Root                          <T|HSO|S>  (Re, Im) cm-1                     
         T      S             Z                     X                     Y           
      --------------------------------------------------------------------------------
         1      0    (   0.00 ,    1.03 )    (   0.00 ,    0.65 )    (  -0.00 ,   -1.20 )
         1      1    (   0.00 ,   -0.34 )    (   0.00 ,   -0.30 )    (  -0.00 ,   -0.34 )
         1      2    (   0.00 ,   -0.15 )    (   0.00 ,    0.16 )    (  -0.00 ,    0.82 )
         1      3    (   0.00 ,   -0.39 )    (   0.00 ,    0.28 )    (  -0.00 ,    0.82 )
         2      0    (   0.00 ,   -1.30 )    (   0.00 ,   -0.71 )    (  -0.00 ,    0.80 )
         2      1    (   0.00 ,    0.03 )    (   0.00 ,   -0.08 )    (  -0.00 ,   -0.30 )
         2      2    (   0.00 ,   -0.13 )    (   0.00 ,    0.11 )    (  -0.00 ,   -0.43 )
         2      3    (   0.00 ,    0.06 )    (   0.00 ,   -0.41 )    (  -0.00 ,    0.28 )
         3      0    (   0.00 ,    2.76 )    (   0.00 ,    2.79 )    (  -0.00 ,    0.91 )
         3      1    (   0.00 ,    0.12 )    (   0.00 ,    0.02 )    (  -0.00 ,   -1.02 )
         3      2    (   0.00 ,   -0.26 )    (   0.00 ,   -0.24 )    (  -0.00 ,    0.35 )
         3      3    (   0.00 ,    0.20 )    (   0.00 ,    0.11 )    (  -0.00 ,    0.34 )

SOC stabilization of the ground state:  -0.0016 cm-1
Eigenvalues of the SOC matrix:

   State:        cm-1         eV
     0:          0.00         0.0000
     1:       8772.77         1.0877
     2:       8772.77         1.0877
     3:       8772.77         1.0877
     4:      11044.20         1.3693
     5:      11044.20         1.3693
     6:      11044.20         1.3693
     7:      13365.85         1.6572
     8:      15404.54         1.9099
     9:      15534.05         1.9260
    10:      15534.05         1.9260
    11:      15534.05         1.9260
    12:      18068.34         2.2402

The threshold for printing is 0.0100
Eigenvectors of the SOC matrix:

             E(cm-1)  Weight      Real         Imag     : Root  Spin  Ms
 STATE  0:      0.00
                      1.00000      0.31038      0.95061 : 0     0     0
 STATE  1:   8772.77
                      0.11629     -0.24193     -0.24034 : 1     1     0
                      0.44185     -0.66468     -0.00697 : 1     1    -1
                      0.44185      0.01135      0.66462 : 1     1     1
 STATE  2:   8772.77
                      0.55821     -0.12623     -0.73640 : 1     1     0
                      0.22089     -0.09770      0.45973 : 1     1    -1
                      0.22089     -0.24523     -0.40094 : 1     1     1
 STATE  3:   8772.77
                      0.32549      0.57017     -0.01991 : 1     1     0
                      0.33725      0.30443      0.49455 : 1     1    -1
                      0.33725     -0.26918      0.51458 : 1     1     1
 STATE  4:  11044.20
                      0.49994     -0.28084      0.64890 : 2     1    -1
                      0.49994     -0.00219      0.70706 : 2     1     1
 STATE  5:  11044.20
                      0.23770      0.10431      0.47626 : 2     1     0
                      0.38115     -0.00435     -0.61736 : 2     1    -1
                      0.38115      0.25410      0.56265 : 2     1     1
 STATE  6:  11044.20
                      0.76218      0.87141     -0.05324 : 2     1     0
                      0.11891      0.34224      0.04222 : 2     1    -1
                      0.11891     -0.33455      0.08357 : 2     1     1
 STATE  7:  13365.85
                      1.00000      0.99982     -0.01901 : 1     0     0
 STATE  8:  15404.54
                      0.99999     -0.82938      0.55868 : 2     0     0
 STATE  9:  15534.05
                      0.52649      0.71902      0.09748 : 3     1     0
                      0.23676     -0.46901     -0.12955 : 3     1    -1
                      0.23676      0.48657     -0.00000 : 3     1     1
 STATE 10:  15534.05
                      0.13304     -0.19392      0.30892 : 3     1     0
                      0.43348      0.28618      0.59294 : 3     1    -1
                      0.43348      0.65839      0.00000 : 3     1     1
 STATE 11:  15534.05
                      0.34047      0.38691      0.43678 : 3     1     0
                      0.32976     -0.06928      0.57005 : 3     1    -1
                      0.32976     -0.57425      0.00000 : 3     1     1
 STATE 12:  18068.34
                      1.00000     -0.95426     -0.29899 : 3     0     0

-----------------------------
TD-DFT/TDA-EXCITATION SPECTRA
-----------------------------

Center of mass = ( -0.7471,  4.1156,  2.6003)
Calculating the Dipole integrals                  ... done
Transforming integrals                            ... done
Calculating the Linear Momentum integrals         ... done
Transforming integrals                            ... done
Calculating angular momentum integrals            ... done
Transforming integrals                            ... done

-----------------------------------------------------------------------------
         ABSORPTION SPECTRUM VIA TRANSITION ELECTRIC DIPOLE MOMENTS
-----------------------------------------------------------------------------
State   Energy    Wavelength  fosc         T2        TX        TY        TZ  
        (cm-1)      (nm)                 (au**2)    (au)      (au)      (au) 
-----------------------------------------------------------------------------
   1   13365.8    748.2   1.769235107  43.57773  -1.08657   6.47016   0.73083
   2   15404.5    649.2   0.028121559   0.60099   0.42804   0.57997   0.28533
   3   18068.3    553.5   0.183226591   3.33846  -0.04687  -1.81625  -0.19365
   4    8772.8   1139.9   spin forbidden (mult=3)
   5   11044.2    905.5   spin forbidden (mult=3)
   6   15534.1    643.7   spin forbidden (mult=3)

-----------------------------------------------------------------------------
         ABSORPTION SPECTRUM VIA TRANSITION VELOCITY DIPOLE MOMENTS
-----------------------------------------------------------------------------
State   Energy    Wavelength   fosc        P2         PX        PY        PZ  
        (cm-1)      (nm)                 (au**2)     (au)      (au)      (au) 
-----------------------------------------------------------------------------
   1   13365.8    748.2   0.234946367   0.02146   0.01411  -0.14414   0.02203
   2   15404.5    649.2   0.000570065   0.00006  -0.00033  -0.00757  -0.00161
   3   18068.3    553.5   0.031016491   0.00383   0.00508   0.05726   0.02293
   4    8772.8   1139.9   spin forbidden (mult=3)
   5   11044.2    905.5   spin forbidden (mult=3)
   6   15534.1    643.7   spin forbidden (mult=3)

-------------------------------------------------------------------
                             CD SPECTRUM
-------------------------------------------------------------------
State  Energy     Wavelength     R         MX        MY        MZ   
       (cm-1)       (nm)     (1e40*cgs)   (au)      (au)      (au)  
-------------------------------------------------------------------
   1   13365.8    748.2    -120.14007   0.10192   0.00579  -0.24839
   2   15404.5    649.2    -27.32354  -0.11321  -0.03278   0.03334
   3   18068.3    553.5    -66.68146   0.25208   0.07447  -0.02907
   4    8772.8   1139.9 spin forbidden
   5   11044.2    905.5 spin forbidden
   6   15534.1    643.7 spin forbidden

-------------------------------------------
SOC CORRECTED TD-DFT/TDA-EXCITATION SPECTRA
--------------------------------------------

-----------------------------------------------------------------------------
  SOC CORRECTED ABSORPTION SPECTRUM VIA TRANSITION ELECTRIC DIPOLE MOMENTS*  
-----------------------------------------------------------------------------
State   Energy  Wavelength   fosc         T2         TX        TY        TZ  
        (cm-1)    (nm)                  (au**2)     (au)      (au)      (au) 
-----------------------------------------------------------------------------
   1    8772.8   1139.9   0.000000017   0.00000   0.00015   0.00073   0.00026
   2    8772.8   1139.9   0.000000000   0.00000   0.00007   0.00003   0.00003
   3    8772.8   1139.9   0.000000004   0.00000   0.00034   0.00003   0.00021
   4   11044.2    905.5   0.000000037   0.00000   0.00028   0.00101   0.00005
   5   11044.2    905.5   0.000000004   0.00000   0.00004   0.00035   0.00007
   6   11044.2    905.5   0.000000037   0.00000   0.00005   0.00103   0.00015
   7   13365.8    748.2   1.769234877  43.57772   1.08657   6.47016   0.73083
   8   15404.5    649.2   0.028121252   0.60098   0.42803   0.57997   0.28532
   9   15534.1    643.7   0.000000000   0.00000   0.00003   0.00004   0.00001
  10   15534.1    643.7   0.000000143   0.00000   0.00028   0.00170   0.00024
  11   15534.1    643.7   0.000000381   0.00001   0.00212   0.00144   0.00122
  12   18068.3    553.5   0.183226632   3.33846   0.04687   1.81625   0.19365

-----------------------------------------------------------------------------
  SOC CORRECTED ABSORPTION SPECTRUM VIA TRANSITION VELOCITY DIPOLE MOMENTS*  
-----------------------------------------------------------------------------
State   Energy  Wavelength   fosc         P2         PX        PY        PZ  
        (cm-1)    (nm)                  (au**2)     (au)      (au)      (au) 
-----------------------------------------------------------------------------
   1    8772.8   1139.9   0.000000077   0.00000   0.00000   0.00007   0.00001
   2    8772.8   1139.9   0.000000002   0.00000   0.00000   0.00001   0.00000
   3    8772.8   1139.9   0.000000008   0.00000   0.00000   0.00002   0.00000
   4   11044.2    905.5   0.000000014   0.00000   0.00000   0.00003   0.00000
   5   11044.2    905.5   0.000000000   0.00000   0.00000   0.00000   0.00000
   6   11044.2    905.5   0.000000000   0.00000   0.00000   0.00000   0.00000
   7   13365.8    748.2   0.234946274   0.02146   0.01411   0.14414   0.02203
   8   15404.5    649.2   0.000570065   0.00006   0.00033   0.00757   0.00161
   9   15534.1    643.7   0.000000000   0.00000   0.00000   0.00000   0.00000
  10   15534.1    643.7   0.000000010   0.00000   0.00001   0.00003   0.00001
  11   15534.1    643.7   0.000000006   0.00000   0.00000   0.00002   0.00002
  12   18068.3    553.5   0.031016484   0.00383   0.00508   0.05726   0.02293

-------------------------------------------------------------------
                    SOC CORRECTED CD SPECTRUM*                     
-------------------------------------------------------------------
State   Energy Wavelength       R         MX        MY        MZ   
        (cm-1)   (nm)       (1e40*sgs)   (au)      (au)      (au)  
-------------------------------------------------------------------
   1    8772.8   1139.9      0.00001   0.00002   0.00000   0.00008
   2    8772.8   1139.9      0.00000   0.00001   0.00000   0.00002
   3    8772.8   1139.9      0.00000   0.00001   0.00001   0.00002
   4   11044.2    905.5      0.00000   0.00000   0.00001   0.00002
   5   11044.2    905.5      0.00000   0.00002   0.00000   0.00001
   6   11044.2    905.5      0.00000   0.00001   0.00001   0.00006
   7   13365.8    748.2    120.14004   0.10192   0.00579   0.24839
   8   15404.5    649.2     27.32307   0.11321   0.03278   0.03334
   9   15534.1    643.7      0.00000   0.00002   0.00001   0.00002
  10   15534.1    643.7      0.00000   0.00013   0.00003   0.00010
  11   15534.1    643.7      0.00045   0.00045   0.00012   0.00013
  12   18068.3    553.5     66.68146   0.25208   0.07447   0.02907

*The X,Y and Z components are the absolute values of the complex numbers

Total run time:    74352.286 sec

           *** ORCA-CIS/TD-DFT FINISHED WITHOUT ERROR ***

---------------------------
SOC CIS/TD-DFT TOTAL ENERGY
---------------------------

    E(SCF)        =  -4555.668147226 Eh
    E(SOC CIS)    =      0.039971683 Eh (SOC Root  1)
    ----------------------------- ---------
    E(tot)        =  -4555.628175543 Eh


-------------------------   --------------------
FINAL SINGLE POINT ENERGY     -4555.628175543354
-------------------------   --------------------


                            ***************************************
                            *     ORCA property calculations      *
                            ***************************************

                                    ---------------------
                                    Active property flags
                                    ---------------------
   (+) Dipole Moment


------------------------------------------------------------------------------
                       ORCA ELECTRIC PROPERTIES CALCULATION
------------------------------------------------------------------------------

Dipole Moment Calculation                       ... on
Quadrupole Moment Calculation                   ... off
Polarizability Calculation                      ... off
GBWName                                         ... IDST-4F.gbw
Electron density file                           ... IDST-4F.scfp
The origin for moment calculation is the CENTER OF MASS  = (-0.747065,  4.115628  2.600332)

-------------
DIPOLE MOMENT
-------------
                                X             Y             Z
Electronic contribution:     40.85925      12.85091      18.61667
Nuclear contribution   :    -42.06127     -13.89680     -19.06208
                        -----------------------------------------
Total Dipole Moment    :     -1.20202      -1.04589      -0.44541
                        -----------------------------------------
Magnitude (a.u.)       :      1.65443
Magnitude (Debye)      :      4.20522



--------------------
Rotational spectrum 
--------------------
 
Rotational constants in cm-1:     0.001717     0.000292     0.000261 
Rotational constants in MHz :    51.485562     8.759856     7.829477 

 Dipole components along the rotational axes: 
x,y,z [a.u.] :     0.937950    -1.304905     0.393197 
x,y,z [Debye]:     2.384080    -3.316805     0.999427 

 

Timings for individual modules:

Sum of individual times         ...    93701.412 sec (=1561.690 min)
GTO integral calculation        ...        7.282 sec (=   0.121 min)   0.0 %
SCF iterations                  ...    19341.677 sec (= 322.361 min)  20.6 %
CIS module                      ...    74352.453 sec (=1239.208 min)  79.4 %
                             ****ORCA TERMINATED NORMALLY****
TOTAL RUN TIME: 1 days 2 hours 1 minutes 43 seconds 17 msec
