
                                 *****************
                                 * O   R   C   A *
                                 *****************

           --- An Ab Initio, DFT and Semiempirical electronic structure package ---

                  #######################################################
                  #                        -***-                        #
                  #          Department of theory and spectroscopy      #
                  #               Directorship: Frank Neese             #
                  #        Max Planck Institute fuer Kohlenforschung    #
                  #                Kaiser Wilhelm Platz 1               #
                  #                 D-45470 Muelheim/Ruhr               #
                  #                      Germany                        #
                  #                                                     #
                  #                  All rights reserved                #
                  #                        -***-                        #
                  #######################################################


                         Program Version 4.2.0 -  RELEASE  -


 With contributions from (in alphabetic order):
   Daniel Aravena         : Magnetic Suceptibility
   Michael Atanasov       : Ab Initio Ligand Field Theory (pilot matlab implementation)
   Alexander A. Auer      : GIAO ZORA, VPT2
   Ute Becker             : Parallelization
   Giovanni Bistoni       : ED, misc. LED, open-shell LED, HFLED
   Martin Brehm           : Molecular dynamics
   Dmytro Bykov           : SCF Hessian
   Vijay G. Chilkuri      : MRCI spin determinant printing, contributions to CSF-ICE
   Dipayan Datta          : RHF DLPNO-CCSD density
   Achintya Kumar Dutta   : EOM-CC, STEOM-CC
   Dmitry Ganyushin       : Spin-Orbit,Spin-Spin,Magnetic field MRCI
   Miquel Garcia          : C-PCM Hessian, Gaussian charge scheme
   Yang Guo               : DLPNO-NEVPT2, CIM, IAO-localization
   Andreas Hansen         : Spin unrestricted coupled pair/coupled cluster methods
   Benjamin Helmich-Paris : CASSCF linear response (MC-RPA)
   Lee Huntington         : MR-EOM, pCC
   Robert Izsak           : Overlap fitted RIJCOSX, COSX-SCS-MP3, EOM
   Christian Kollmar      : KDIIS, OOCD, Brueckner-CCSD(T), CCSD density
   Simone Kossmann        : Meta GGA functionals, TD-DFT gradient, OOMP2, MP2 Hessian
   Martin Krupicka        : AUTO-CI
   Lucas Lang             : DCDCAS
   Dagmar Lenk            : GEPOL surface, SMD
   Dimitrios Liakos       : Extrapolation schemes; Compound Job, initial MDCI parallelization
   Dimitrios Manganas     : Further ROCIS development; embedding schemes
   Dimitrios Pantazis     : SARC Basis sets
   Taras Petrenko         : DFT Hessian,TD-DFT gradient, ASA, ECA, R-Raman, ABS, FL, XAS/XES, NRVS
   Peter Pinski           : DLPNO-MP2, DLPNO-MP2 Gradient
   Christoph Reimann      : Effective Core Potentials
   Marius Retegan         : Local ZFS, SOC
   Christoph Riplinger    : Optimizer, TS searches, QM/MM, DLPNO-CCSD(T), (RO)-DLPNO pert. Triples
   Tobias Risthaus        : Range-separated hybrids, TD-DFT gradient, RPA, STAB
   Michael Roemelt        : Original ROCIS implementation
   Masaaki Saitow         : Open-shell DLPNO-CCSD energy and density
   Barbara Sandhoefer     : DKH picture change effects
   Avijit Sen             : IP-ROCIS
   Kantharuban Sivalingam : CASSCF convergence, NEVPT2, FIC-MRCI
   Bernardo de Souza      : ESD, SOC TD-DFT
   Georgi Stoychev        : AutoAux, RI-MP2 NMR
   Willem Van den Heuvel  : Paramagnetic NMR
   Boris Wezisla          : Elementary symmetry handling
   Frank Wennmohs         : Technical directorship


 We gratefully acknowledge several colleagues who have allowed us to
 interface, adapt or use parts of their codes:
   Stefan Grimme, W. Hujo, H. Kruse,             : VdW corrections, initial TS optimization,
                  C. Bannwarth                     DFT functionals, gCP, sTDA/sTD-DF
   Ed Valeev, F. Pavosevic, A. Kumar             : LibInt (2-el integral package), F12 methods
   Garnet Chan, S. Sharma, J. Yang, R. Olivares  : DMRG
   Ulf Ekstrom                                   : XCFun DFT Library
   Mihaly Kallay                                 : mrcc  (arbitrary order and MRCC methods)
   Andreas Klamt, Michael Diedenhofen            : otool_cosmo (COSMO solvation model)
   Jiri Pittner, Ondrej Demel                    : Mk-CCSD
   Frank Weinhold                                : gennbo (NPA and NBO analysis)
   Christopher J. Cramer and Donald G. Truhlar   : smd solvation model
   Lars Goerigk                                  : TD-DFT with DH, B97 family of functionals
   V. Asgeirsson, H. Jonsson                     : NEB implementation
   FAccTs GmbH                                   : IRC, NEB, NEB-TS, Multilevel, MM, QM/MM, CI optimization
   S Lehtola, MJT Oliveira, MAL Marques          : LibXC Library


 Your calculation uses the libint2 library for the computation of 2-el integrals
 For citations please refer to: http://libint.valeyev.net

 Your ORCA version has been built with support for libXC version: 4.2.3
 For citations please refer to: https://tddft.org/programs/libxc/

 This ORCA versions uses:
   CBLAS   interface :  Fast vector & matrix operations
   LAPACKE interface :  Fast linear algebra routines
   SCALAPACK package :  Parallel linear algebra routines


----- Orbital basis set information -----
Your calculation utilizes the basis: def2-TZVP
   F. Weigend and R. Ahlrichs, Phys. Chem. Chem. Phys. 7, 3297 (2005).

----- AuxJ basis set information -----
Your calculation utilizes the auxiliary basis: def2/J
   F. Weigend, Phys. Chem. Chem. Phys. 8, 1057 (2006).

================================================================================
                                        WARNINGS
                       Please study these warnings very carefully!
================================================================================

INFO   : Checking CIS options ...

WARNING: (CIS/TDDFT): Spin-orbit needs TRIPLETS set to TRUE
  ===> : ajusting flags

WARNING: CIS/ROCIS methods need fully converged wavefunctions
  ===> : Setting SCFConvForced true
         You can overwrite this default with %scf ConvForced false 


INFO   : the flag for use of LIBINT has been found!

================================================================================
                                       INPUT FILE
================================================================================
NAME = ITCC.inp
|  1> # ORCA input file
|  2> # ITCC.out
|  3> ! B3LYP def2-TZVP def2/J RIJCOSX Grid4 TightSCF
|  4> 
|  5> %maxcore 2000
|  6> %tddft
|  7>   maxdim 5
|  8>   nroots 3
|  9>   dosoc true
| 10>   end
| 11> 
| 12> 
| 13> 
| 14> * xyz 0 1
| 15>    C        1.43434        -1.07383         1.64669
| 16>    O        1.59572        -2.26646         1.80478
| 17>    C        0.32677        -0.26707         2.14861
| 18>    C        0.45230         1.06205         1.77261
| 19>    C        1.66193         1.21266         0.98819
| 20>    C        2.07102         2.39921         0.43713
| 21>    C        1.32977         3.58732         0.61449
| 22>    N        0.74855         4.56845         0.74271
| 23>    C        3.21579         2.62095        -0.35416
| 24>    N        4.11903         2.89490        -1.00935
| 25>    C        2.29190        -0.10087         0.91413
| 26>    C        3.48481        -0.31727         0.28059
| 27>    C        4.26251        -1.47573         0.09619
| 28>    C        4.08509        -2.80148         0.46104
| 29>    C        5.14491        -3.59769         0.05397
| 30>    C        6.16316        -2.90418        -0.63487
| 31>    S        5.78649        -1.23655        -0.77654
| 32>    C        7.21560        -3.73730        -1.00318
| 33>    C        8.51435        -3.62004        -1.75430
| 34>    C        9.52179        -2.69078        -1.10593
| 35>    C        9.44540        -2.37758         0.24338
| 36>    C       10.38673        -1.54798         0.82482
| 37>    C       11.42939        -1.01756         0.07800
| 38>    C       12.47162        -0.14650         0.71732
| 39>    C       13.65179        -0.99169         1.20097
| 40>    C       11.51190        -1.35011        -1.26827
| 41>    C       10.57272        -2.17602        -1.85473
| 42>    C        8.16667        -3.17752        -3.16618
| 43>    C        8.03697        -4.08228        -4.20913
| 44>    C        7.66327        -3.64623        -5.46809
| 45>    C        7.40254        -2.30544        -5.71339
| 46>    C        6.95113        -1.84209        -7.06822
| 47>    C        5.42313        -1.83429        -7.14705
| 48>    C        7.51948        -1.40668        -4.66000
| 49>    C        7.89510        -1.83485        -3.40218
| 50>    C        9.02228        -5.04863        -1.66685
| 51>    C        8.09237        -5.87743        -0.99515
| 52>    C        6.99322        -5.04726        -0.61148
| 53>    S        5.49882        -5.29499         0.22433
| 54>    C        8.32735        -7.23471        -0.79179
| 55>    C        9.51882        -7.74250        -1.25345
| 56>    C       10.02220        -9.17403        -1.17784
| 57>    C       10.30861        -9.67974         0.22539
| 58>    C       10.49689       -11.04209         0.42675
| 59>    C       10.85859       -11.52262         1.66973
| 60>    C       11.05698       -10.65755         2.73860
| 61>    C       11.41855       -11.19175         4.09311
| 62>    C       10.15676       -11.56195         4.87551
| 63>    C       10.87107        -9.29809         2.52894
| 64>    C       10.50698        -8.80996         1.28685
| 65>    C        9.04868       -10.06597        -1.92291
| 66>    C        9.22525       -10.35699        -3.26788
| 67>    C        8.31130       -11.14793        -3.93982
| 68>    C        7.19729       -11.66094        -3.28990
| 69>    C        6.18628       -12.48631        -4.03211
| 70>    C        5.10962       -11.58865        -4.64523
| 71>    C        7.01744       -11.35371        -1.94709
| 72>    C        7.92923       -10.56690        -1.27022
| 73>    C       11.36211        -9.03370        -1.84459
| 74>    C       11.58531        -7.72482        -2.23659
| 75>    C       10.45696        -6.90906        -1.91015
| 76>    C       10.21695        -5.55449        -2.12319
| 77>    S       13.15622        -7.44966        -2.90925
| 78>    C       13.55203        -9.12042        -2.62718
| 79>    C       12.48168        -9.83089        -2.05497
| 80>    S       12.90755       -11.46530        -1.74114
| 81>    C       14.54317       -11.17392        -2.32720
| 82>    C       14.69951        -9.88632        -2.80558
| 83>    C       15.52456       -12.19353        -2.33425
| 84>    C       15.59571       -13.30566        -1.55692
| 85>    C       14.90456       -13.68856        -0.33753
| 86>    C       14.43386       -12.87330         0.65807
| 87>    C       13.86330       -13.39482         1.83536
| 88>    N       13.38069       -13.79910         2.79544
| 89>    C       14.56035       -11.46904         0.67542
| 90>    N       14.70225       -10.33381         0.76902
| 91>    C       15.07086       -15.12422        -0.20847
| 92>    C       15.98885       -15.55951        -1.15760
| 93>    C       16.43903       -14.45866        -2.00380
| 94>    O       17.26152       -14.45380        -2.89008
| 95>    S       -1.07716        -0.55420         3.07863
| 96>    C       -1.49576         1.11499         2.96280
| 97>    C       -0.60710         1.86082         2.24665
| 98>    S       16.30711       -17.23427        -1.03049
| 99>    C       15.20436       -17.34751         0.29022
|100>    C       14.62433       -16.16134         0.63155
|101>    H        3.93986         0.56021        -0.16480
|102>    H        3.22211        -3.14916         0.99785
|103>    H        8.64450        -2.77924         0.84738
|104>    H       10.30575        -1.30651         1.87506
|105>    H       12.03885         0.38698         1.56580
|106>    H       12.82947         0.59123        -0.00372
|107>    H       13.31748        -1.72621         1.93027
|108>    H       14.40698        -0.36081         1.66380
|109>    H       14.10526        -1.52177         0.36642
|110>    H       12.31846        -0.95169        -1.86710
|111>    H       10.64603        -2.40971        -2.90712
|112>    H        8.22918        -5.13237        -4.04307
|113>    H        7.57324        -4.36324        -6.27183
|114>    H        7.34840        -2.50562        -7.83890
|115>    H        7.32522        -0.83408        -7.25777
|116>    H        5.03031        -2.83356        -6.97216
|117>    H        5.09424        -1.49797        -8.12749
|118>    H        5.00921        -1.16772        -6.39389
|119>    H        7.31492        -0.35898        -4.82580
|120>    H        7.98603        -1.12083        -2.59641
|121>    H        7.60242        -7.85036        -0.28260
|122>    H       10.35431       -11.72956        -0.39548
|123>    H       10.99966       -12.58420         1.81282
|124>    H       11.98120       -10.43948         4.64914
|125>    H       12.04515       -12.07866         3.98216
|126>    H        9.51992       -10.68917         5.00522
|127>    H       10.41975       -11.95016         5.85642
|128>    H        9.59161       -12.32251         4.34158
|129>    H       11.02364        -8.60728         3.34574
|130>    H       10.38173        -7.74625         1.14355
|131>    H       10.08412        -9.96862        -3.79640
|132>    H        8.46974       -11.37252        -4.98508
|133>    H        5.71603       -13.19718        -3.34980
|134>    H        6.67974       -13.04999        -4.82646
|135>    H        4.59726       -11.02706        -3.86729
|136>    H        4.37706       -12.18601        -5.18288
|137>    H        5.55750       -10.88038        -5.33876
|138>    H        6.15524       -11.74056        -1.42279
|139>    H        7.78144       -10.35412        -0.22144
|140>    H       10.94436        -4.93567        -2.62523
|141>    H       15.62506        -9.52012        -3.21067
|142>    H       16.28895       -12.11241        -3.10139
|143>    H       -2.39297         1.45760         3.44011
|144>    H       -0.71484         2.91576         2.07694
|145>    H       15.04816       -18.30235         0.75302
|146>    H       13.91555       -16.04882         1.43079
|147> *
|148> 
|149>                          ****END OF INPUT****
================================================================================

                       ****************************
                       * Single Point Calculation *
                       ****************************

---------------------------------
CARTESIAN COORDINATES (ANGSTROEM)
---------------------------------
  C      1.434340   -1.073830    1.646690
  O      1.595720   -2.266460    1.804780
  C      0.326770   -0.267070    2.148610
  C      0.452300    1.062050    1.772610
  C      1.661930    1.212660    0.988190
  C      2.071020    2.399210    0.437130
  C      1.329770    3.587320    0.614490
  N      0.748550    4.568450    0.742710
  C      3.215790    2.620950   -0.354160
  N      4.119030    2.894900   -1.009350
  C      2.291900   -0.100870    0.914130
  C      3.484810   -0.317270    0.280590
  C      4.262510   -1.475730    0.096190
  C      4.085090   -2.801480    0.461040
  C      5.144910   -3.597690    0.053970
  C      6.163160   -2.904180   -0.634870
  S      5.786490   -1.236550   -0.776540
  C      7.215600   -3.737300   -1.003180
  C      8.514350   -3.620040   -1.754300
  C      9.521790   -2.690780   -1.105930
  C      9.445400   -2.377580    0.243380
  C     10.386730   -1.547980    0.824820
  C     11.429390   -1.017560    0.078000
  C     12.471620   -0.146500    0.717320
  C     13.651790   -0.991690    1.200970
  C     11.511900   -1.350110   -1.268270
  C     10.572720   -2.176020   -1.854730
  C      8.166670   -3.177520   -3.166180
  C      8.036970   -4.082280   -4.209130
  C      7.663270   -3.646230   -5.468090
  C      7.402540   -2.305440   -5.713390
  C      6.951130   -1.842090   -7.068220
  C      5.423130   -1.834290   -7.147050
  C      7.519480   -1.406680   -4.660000
  C      7.895100   -1.834850   -3.402180
  C      9.022280   -5.048630   -1.666850
  C      8.092370   -5.877430   -0.995150
  C      6.993220   -5.047260   -0.611480
  S      5.498820   -5.294990    0.224330
  C      8.327350   -7.234710   -0.791790
  C      9.518820   -7.742500   -1.253450
  C     10.022200   -9.174030   -1.177840
  C     10.308610   -9.679740    0.225390
  C     10.496890  -11.042090    0.426750
  C     10.858590  -11.522620    1.669730
  C     11.056980  -10.657550    2.738600
  C     11.418550  -11.191750    4.093110
  C     10.156760  -11.561950    4.875510
  C     10.871070   -9.298090    2.528940
  C     10.506980   -8.809960    1.286850
  C      9.048680  -10.065970   -1.922910
  C      9.225250  -10.356990   -3.267880
  C      8.311300  -11.147930   -3.939820
  C      7.197290  -11.660940   -3.289900
  C      6.186280  -12.486310   -4.032110
  C      5.109620  -11.588650   -4.645230
  C      7.017440  -11.353710   -1.947090
  C      7.929230  -10.566900   -1.270220
  C     11.362110   -9.033700   -1.844590
  C     11.585310   -7.724820   -2.236590
  C     10.456960   -6.909060   -1.910150
  C     10.216950   -5.554490   -2.123190
  S     13.156220   -7.449660   -2.909250
  C     13.552030   -9.120420   -2.627180
  C     12.481680   -9.830890   -2.054970
  S     12.907550  -11.465300   -1.741140
  C     14.543170  -11.173920   -2.327200
  C     14.699510   -9.886320   -2.805580
  C     15.524560  -12.193530   -2.334250
  C     15.595710  -13.305660   -1.556920
  C     14.904560  -13.688560   -0.337530
  C     14.433860  -12.873300    0.658070
  C     13.863300  -13.394820    1.835360
  N     13.380690  -13.799100    2.795440
  C     14.560350  -11.469040    0.675420
  N     14.702250  -10.333810    0.769020
  C     15.070860  -15.124220   -0.208470
  C     15.988850  -15.559510   -1.157600
  C     16.439030  -14.458660   -2.003800
  O     17.261520  -14.453800   -2.890080
  S     -1.077160   -0.554200    3.078630
  C     -1.495760    1.114990    2.962800
  C     -0.607100    1.860820    2.246650
  S     16.307110  -17.234270   -1.030490
  C     15.204360  -17.347510    0.290220
  C     14.624330  -16.161340    0.631550
  H      3.939860    0.560210   -0.164800
  H      3.222110   -3.149160    0.997850
  H      8.644500   -2.779240    0.847380
  H     10.305750   -1.306510    1.875060
  H     12.038850    0.386980    1.565800
  H     12.829470    0.591230   -0.003720
  H     13.317480   -1.726210    1.930270
  H     14.406980   -0.360810    1.663800
  H     14.105260   -1.521770    0.366420
  H     12.318460   -0.951690   -1.867100
  H     10.646030   -2.409710   -2.907120
  H      8.229180   -5.132370   -4.043070
  H      7.573240   -4.363240   -6.271830
  H      7.348400   -2.505620   -7.838900
  H      7.325220   -0.834080   -7.257770
  H      5.030310   -2.833560   -6.972160
  H      5.094240   -1.497970   -8.127490
  H      5.009210   -1.167720   -6.393890
  H      7.314920   -0.358980   -4.825800
  H      7.986030   -1.120830   -2.596410
  H      7.602420   -7.850360   -0.282600
  H     10.354310  -11.729560   -0.395480
  H     10.999660  -12.584200    1.812820
  H     11.981200  -10.439480    4.649140
  H     12.045150  -12.078660    3.982160
  H      9.519920  -10.689170    5.005220
  H     10.419750  -11.950160    5.856420
  H      9.591610  -12.322510    4.341580
  H     11.023640   -8.607280    3.345740
  H     10.381730   -7.746250    1.143550
  H     10.084120   -9.968620   -3.796400
  H      8.469740  -11.372520   -4.985080
  H      5.716030  -13.197180   -3.349800
  H      6.679740  -13.049990   -4.826460
  H      4.597260  -11.027060   -3.867290
  H      4.377060  -12.186010   -5.182880
  H      5.557500  -10.880380   -5.338760
  H      6.155240  -11.740560   -1.422790
  H      7.781440  -10.354120   -0.221440
  H     10.944360   -4.935670   -2.625230
  H     15.625060   -9.520120   -3.210670
  H     16.288950  -12.112410   -3.101390
  H     -2.392970    1.457600    3.440110
  H     -0.714840    2.915760    2.076940
  H     15.048160  -18.302350    0.753020
  H     13.915550  -16.048820    1.430790

----------------------------
CARTESIAN COORDINATES (A.U.)
----------------------------
  NO LB      ZA    FRAG     MASS         X           Y           Z
   0 C     6.0000    0    12.011    2.710510   -2.029245    3.111793
   1 O     8.0000    0    15.999    3.015474   -4.282989    3.410540
   2 C     6.0000    0    12.011    0.617506   -0.504689    4.060284
   3 C     6.0000    0    12.011    0.854723    2.006984    3.349747
   4 C     6.0000    0    12.011    3.140593    2.291595    1.867408
   5 C     6.0000    0    12.011    3.913661    4.533850    0.826056
   6 C     6.0000    0    12.011    2.512901    6.779052    1.161218
   7 N     7.0000    0    14.007    1.414554    8.633119    1.403518
   8 C     6.0000    0    12.011    6.076962    4.952878   -0.669265
   9 N     7.0000    0    14.007    7.783839    5.470568   -1.907395
  10 C     6.0000    0    12.011    4.331063   -0.190617    1.727455
  11 C     6.0000    0    12.011    6.585337   -0.599553    0.530238
  12 C     6.0000    0    12.011    8.054977   -2.788726    0.181773
  13 C     6.0000    0    12.011    7.719701   -5.294030    0.871239
  14 C     6.0000    0    12.011    9.722471   -6.798649    0.101989
  15 C     6.0000    0    12.011   11.646685   -5.488105   -1.199730
  16 S    16.0000    0    32.060   10.934881   -2.336741   -1.467448
  17 C     6.0000    0    12.011   13.635508   -7.062473   -1.895735
  18 C     6.0000    0    12.011   16.089790   -6.840884   -3.315147
  19 C     6.0000    0    12.011   17.993575   -5.084837   -2.089905
  20 C     6.0000    0    12.011   17.849219   -4.492975    0.459922
  21 C     6.0000    0    12.011   19.628075   -2.925258    1.558684
  22 C     6.0000    0    12.011   21.598417   -1.922910    0.147399
  23 C     6.0000    0    12.011   23.567946   -0.276845    1.355538
  24 C     6.0000    0    12.011   25.798144   -1.874023    2.269504
  25 C     6.0000    0    12.011   21.754338   -2.551338   -2.396683
  26 C     6.0000    0    12.011   19.979545   -4.112082   -3.504932
  27 C     6.0000    0    12.011   15.432770   -6.004643   -5.983213
  28 C     6.0000    0    12.011   15.187672   -7.714391   -7.954103
  29 C     6.0000    0    12.011   14.481482   -6.890376  -10.333193
  30 C     6.0000    0    12.011   13.988773   -4.356650  -10.796742
  31 C     6.0000    0    12.011   13.135732   -3.481046  -13.357000
  32 C     6.0000    0    12.011   10.248230   -3.466306  -13.505967
  33 C     6.0000    0    12.011   14.209758   -2.658240   -8.806124
  34 C     6.0000    0    12.011   14.919577   -3.467364   -6.429188
  35 C     6.0000    0    12.011   17.049638   -9.540528   -3.149890
  36 C     6.0000    0    12.011   15.292363  -11.106733   -1.880561
  37 C     6.0000    0    12.011   13.215271   -9.537939   -1.155530
  38 S    16.0000    0    32.060   10.391264  -10.006081    0.423922
  39 C     6.0000    0    12.011   15.736411  -13.671621   -1.496266
  40 C     6.0000    0    12.011   17.987963  -14.631205   -2.368677
  41 C     6.0000    0    12.011   18.939213  -17.336404   -2.225795
  42 C     6.0000    0    12.011   19.480450  -18.292058    0.425925
  43 C     6.0000    0    12.011   19.836247  -20.866526    0.806441
  44 C     6.0000    0    12.011   20.519761  -21.774596    3.155332
  45 C     6.0000    0    12.011   20.894664  -20.139851    5.175204
  46 C     6.0000    0    12.011   21.577932  -21.149342    7.734857
  47 C     6.0000    0    12.011   19.193495  -21.848919    9.213379
  48 C     6.0000    0    12.011   20.543345  -17.570844    4.779004
  49 C     6.0000    0    12.011   19.855315  -16.648412    2.431794
  50 C     6.0000    0    12.011   17.099527  -19.021927   -3.633773
  51 C     6.0000    0    12.011   17.433196  -19.571875   -6.175398
  52 C     6.0000    0    12.011   15.706081  -21.066535   -7.445181
  53 C     6.0000    0    12.011   13.600907  -22.035983   -6.217010
  54 C     6.0000    0    12.011   11.690375  -23.595706   -7.619584
  55 C     6.0000    0    12.011    9.655782  -21.899375   -8.778213
  56 C     6.0000    0    12.011   13.261040  -21.455403   -3.679467
  57 C     6.0000    0    12.011   14.984073  -19.968547   -2.400368
  58 C     6.0000    0    12.011   21.471276  -17.071219   -3.485770
  59 C     6.0000    0    12.011   21.893063  -14.597794   -4.226543
  60 C     6.0000    0    12.011   19.760791  -13.056231   -3.609660
  61 C     6.0000    0    12.011   19.307237  -10.496465   -4.012248
  62 S    16.0000    0    32.060   24.861653  -14.077817   -5.497686
  63 C     6.0000    0    12.011   25.609625  -17.235096   -4.964651
  64 C     6.0000    0    12.011   23.586957  -18.577690   -3.883331
  65 S    16.0000    0    32.060   24.391735  -21.666277   -3.290278
  66 C     6.0000    0    12.011   27.482608  -21.115649   -4.397771
  67 C     6.0000    0    12.011   27.778048  -18.682437   -5.301778
  68 C     6.0000    0    12.011   29.337167  -23.042432   -4.411093
  69 C     6.0000    0    12.011   29.471621  -25.144053   -2.942152
  70 C     6.0000    0    12.011   28.165537  -25.867630   -0.637839
  71 C     6.0000    0    12.011   27.276042  -24.327011    1.243572
  72 C     6.0000    0    12.011   26.197840  -25.312541    3.468328
  73 N     7.0000    0    14.007   25.285840  -26.076520    5.282616
  74 C     6.0000    0    12.011   27.515074  -21.673345    1.276359
  75 N     7.0000    0    14.007   27.783226  -19.528071    1.453237
  76 C     6.0000    0    12.011   28.479798  -28.580634   -0.393951
  77 C     6.0000    0    12.011   30.214548  -29.403213   -2.187547
  78 C     6.0000    0    12.011   31.065265  -27.322908   -3.786633
  79 O     8.0000    0    15.999   32.619545  -27.313724   -5.461460
  80 S    16.0000    0    32.060   -2.035537   -1.047286    5.817768
  81 C     6.0000    0    12.011   -2.826577    2.107026    5.598881
  82 C     6.0000    0    12.011   -1.147253    3.516440    4.245553
  83 S    16.0000    0    32.060   30.815972  -32.568050   -1.947344
  84 C     6.0000    0    12.011   28.732076  -32.782043    0.548436
  85 C     6.0000    0    12.011   27.635979  -30.540507    1.193457
  86 H     1.0000    0     1.008    7.445256    1.058643   -0.311427
  87 H     1.0000    0     1.008    6.088905   -5.951050    1.885663
  88 H     1.0000    0     1.008   16.335738   -5.252002    1.601316
  89 H     1.0000    0     1.008   19.475045   -2.468946    3.543350
  90 H     1.0000    0     1.008   22.750129    0.731286    2.958933
  91 H     1.0000    0     1.008   24.244185    1.117263   -0.007030
  92 H     1.0000    0     1.008   25.166390   -3.262064    3.647682
  93 H     1.0000    0     1.008   27.225247   -0.681832    3.144126
  94 H     1.0000    0     1.008   26.655078   -2.875729    0.692433
  95 H     1.0000    0     1.008   23.278516   -1.798433   -3.528308
  96 H     1.0000    0     1.008   20.118081   -4.553692   -5.493661
  97 H     1.0000    0     1.008   15.550897   -9.698774   -7.640295
  98 H     1.0000    0     1.008   14.311350   -8.245329  -11.852041
  99 H     1.0000    0     1.008   13.886464   -4.734936  -14.813374
 100 H     1.0000    0     1.008   13.842660   -1.576183  -13.715198
 101 H     1.0000    0     1.008    9.505908   -5.354652  -13.175473
 102 H     1.0000    0     1.008    9.626718   -2.830753  -15.358730
 103 H     1.0000    0     1.008    9.466035   -2.206671  -12.082701
 104 H     1.0000    0     1.008   13.823195   -0.678374   -9.119440
 105 H     1.0000    0     1.008   15.091410   -2.118062   -4.906504
 106 H     1.0000    0     1.008   14.366492  -14.835030   -0.534037
 107 H     1.0000    0     1.008   19.566810  -22.165656   -0.747349
 108 H     1.0000    0     1.008   20.786345  -23.780692    3.425733
 109 H     1.0000    0     1.008   22.641187  -19.727758    8.785601
 110 H     1.0000    0     1.008   22.762035  -22.825359    7.525192
 111 H     1.0000    0     1.008   17.990042  -20.199604    9.458495
 112 H     1.0000    0     1.008   19.690474  -22.582530   11.067030
 113 H     1.0000    0     1.008   18.125516  -23.286169    8.204397
 114 H     1.0000    0     1.008   20.831661  -16.265402    6.322532
 115 H     1.0000    0     1.008   19.618626  -14.638291    2.160996
 116 H     1.0000    0     1.008   19.056225  -18.837962   -7.174156
 117 H     1.0000    0     1.008   16.005489  -21.490948   -9.420436
 118 H     1.0000    0     1.008   10.801731  -24.939056   -6.330205
 119 H     1.0000    0     1.008   12.622879  -24.660907   -9.120688
 120 H     1.0000    0     1.008    8.687562  -20.838123   -7.308119
 121 H     1.0000    0     1.008    8.271445  -23.028222   -9.794224
 122 H     1.0000    0     1.008   10.502153  -20.560938  -10.088794
 123 H     1.0000    0     1.008   11.631718  -22.186443   -2.688683
 124 H     1.0000    0     1.008   14.704791  -19.566451   -0.418461
 125 H     1.0000    0     1.008   20.681843   -9.327065   -4.960966
 126 H     1.0000    0     1.008   29.527084  -17.990420   -6.067287
 127 H     1.0000    0     1.008   30.781655  -22.889138   -5.860778
 128 H     1.0000    0     1.008   -4.522058    2.754465    6.500866
 129 H     1.0000    0     1.008   -1.350852    5.509988    3.924848
 130 H     1.0000    0     1.008   28.436901  -34.586429    1.423002
 131 H     1.0000    0     1.008   26.296579  -30.327875    2.703801

--------------------------------
INTERNAL COORDINATES (ANGSTROEM)
--------------------------------
 C      0   0   0     0.000000000000     0.00000000     0.00000000
 O      1   0   0     1.213837826647     0.00000000     0.00000000
 C      1   2   0     1.459279510204   126.81978113     0.00000000
 C      3   1   2     1.386972874753   111.58321072   180.50686165
 C      4   3   1     1.449552636299   108.77150907     0.15656285
 C      5   4   3     1.370737996190   123.81668997   178.69508169
 C      6   5   4     1.411564204774   121.42374658     0.74746214
 N      7   6   5     1.147550928587   178.46534101   177.94438302
 C      6   5   4     1.409186589703   127.18542959   181.23158521
 N      9   6   5     1.148984349850   175.09053783   176.70287923
 C      5   4   3     1.458666564161   107.11619009   359.23618170
 C     11   5   4     1.367931343197   122.86030792   182.17563837
 C     12  11   5     1.407426808612   132.28050339   179.64192160
 C     13  12  11     1.386436598406   132.99123178     1.66253288
 C     14  13  12     1.386677605430   111.96227843   180.11858747
 C     15  14  13     1.411484937291   114.36237845   359.95576815
 S     16  15  14     1.715500071320   111.07120703   359.88570195
 C     16  15  14     1.391894803532   112.36565601   178.94804409
 C     18  16  15     1.504886282913   137.55982314   177.90913134
 C     19  18  16     1.516193641360   114.06388170    63.12785778
 C     20  19  18     1.387287694820   121.17840062    21.57233078
 C     21  20  19     1.382899418794   120.45714935   178.79612105
 C     22  21  20     1.387885212977   120.95741847   359.63654048
 C     23  22  21     1.501239141143   120.94085592   181.63632591
 C     24  23  22     1.530053818498   110.46235736    91.32027346
 C     23  22  21     1.389186926047   118.33385227   359.44087611
 C     26  23  22     1.381347795488   120.94308789     0.69769774
 C     19  18  16     1.519904755963   106.79304111   299.14559511
 C     28  19  18     1.386779524690   122.00931330   263.58661266
 C     29  28  19     1.383752714216   120.25893688   177.22862395
 C     30  29  28     1.387757200306   121.06528703   359.56061731
 C     31  30  29     1.501342245959   120.94258736   182.14472957
 C     32  31  30     1.530051962810   110.38547028    91.60746406
 C     31  30  29     1.389631243640   118.36402536   359.70010370
 C     34  31  30     1.380771916610   120.85524291     0.45709674
 C     19  18  16     1.518719781757   100.75437340   180.02058366
 C     36  19  18     1.415211269776   111.00521942     2.17074553
 C     18  16  15     1.385235343182   111.70434411     0.60367812
 S     38  18  16     1.730080885103   114.24768450   359.66278774
 C     37  36  19     1.392400764292   121.95792542   179.77688686
 C     40  37  36     1.374984145581   117.20586927     1.02751651
 C     41  40  37     1.519337499504   128.19571985   180.60584541
 C     42  41  40     1.518824454998   114.97188093   293.57032932
 C     43  42  41     1.389961413313   119.06048173   166.50529406
 C     44  43  42     1.380845846320   120.46216007   175.07052584
 C     45  44  43     1.389311978607   120.88116767   359.23883577
 C     46  45  44     1.500266591310   120.48484429   178.56653305
 C     47  46  45     1.530134570585   110.42979148   273.69840745
 C     46  45  44     1.388038664915   118.32718483     0.55413856
 C     49  46  45     1.383336543687   121.09614635   359.53381676
 C     42  41  40     1.516056548714   108.48881556    60.21503496
 C     51  42  41     1.387376627380   121.20595816    91.92566346
 C     52  51  42     1.382893361652   120.45780554   181.46294541
 C     53  52  51     1.388017848084   120.95114446     0.35289823
 C     54  53  52     1.501416844551   120.80727404   178.21574555
 C     55  54  53     1.530002080260   110.45181011   271.32841070
 C     54  53  52     1.389199406673   118.34418198     0.37988186
 C     57  54  53     1.381515102017   120.93708384   359.45116836
 C     42  41  40     1.503198882218   100.67821186   180.36432415
 C     59  42  41     1.384430964115   110.95041789     0.05878017
 C     41  40  37     1.416327569173   120.81913868   359.81849002
 C     36  19  18     1.375273407036   128.12765957   183.43088882
 S     60  59  42     1.730879178135   113.99490315   175.71811455
 C     63  60  59     1.740019545465    89.47337716   358.63955123
 C     59  42  41     1.390398728926   136.99845197   172.16830872
 S     65  59  42     1.717891316091   135.84555335     4.56815164
 C     66  65  59     1.761709798009    90.68920892   184.43525790
 C     67  66  65     1.382462795159   111.97207737   356.74269935
 C     67  66  65     1.415196306772   121.75758448   179.17045311
 C     69  67  66     1.358726384634   128.54849446   335.49147656
 C     70  69  67     1.453001274810   132.13719116   345.82020023
 C     71  70  69     1.370192219216   128.05374284   329.44852164
 C     72  71  70     1.408379767002   121.75126662   184.59366310
 N     73  72  71     1.148088993458   178.64123955   215.44385216
 C     72  71  70     1.410052087761   124.79743640   359.16086985
 N     75  72  71     1.147886633296   175.56387355   235.19760071
 C     71  70  69     1.451010616501   106.31175437   162.38015424
 C     77  71  70     1.390334773031   108.94886474     9.35195987
 C     78  77  71     1.459653107728   111.30124695   357.54677868
 O     79  78  77     1.209134259750   129.62480569   176.91676212
 S      3   1   2     1.708332602920   135.89535597     0.48969435
 C     81   3   1     1.724771812444    90.01334653   179.98612906
 C     82  81   3     1.363396423275   113.98479660     0.04209282
 S     78  77  71     1.709464078973   112.26503838   177.20666764
 C     84  78  77     1.724284130937    90.12759288     0.20872219
 C     85  84  78     1.363796259967   113.99022646   359.48628796
 H     12  11   5     1.084165072763   115.35644545     0.24087245
 H     14  13  12     1.074141908176   122.94538971   359.96420467
 H     21  20  19     1.080549659016   120.03740933   358.56243006
 H     22  21  20     1.080680146436   119.44860575   179.36914929
 H     24  23  22     1.091700093295   109.83488939   330.71870103
 H     24  23  22     1.091879506631   109.77563145   211.81905124
 H     25  24  23     1.087732180502   110.35841688   300.15740258
 H     25  24  23     1.087443386756   110.47042176   179.98113088
 H     25  24  23     1.087701038797   110.37987112    59.79690592
 H     26  23  22     1.080682607846   119.54301551   180.27694789
 H     27  26  23     1.080513805696   119.78116298   179.01981070
 H     29  28  19     1.080374757110   120.12534328   357.11741838
 H     30  29  28     1.080836124766   119.34144511   179.58401307
 H     32  31  30     1.091807298107   109.87843979   331.02101000
 H     32  31  30     1.091767690812   109.79147110   212.01935488
 H     33  32  31     1.087857802013   110.34335075   300.12374491
 H     33  32  31     1.087447639245   110.49126007   179.94476870
 H     33  32  31     1.087609910262   110.33531588    59.78054371
 H     34  31  30     1.080282242564   119.66828038   180.41249984
 H     35  34  31     1.080443482187   119.82382185   179.66845423
 H     40  37  36     1.078806230748   120.78485841   180.38756275
 H     44  43  42     1.081205914801   119.68126810   354.78700909
 H     45  44  43     1.080429354192   119.69231232   179.87262952
 H     47  46  45     1.091629303518   109.79851205   153.04447733
 H     47  46  45     1.091579960699   109.62630583    34.04915985
 H     48  47  46     1.088179579895   110.45678751   300.15141832
 H     48  47  46     1.087223607314   110.38005820   179.92707904
 H     48  47  46     1.087624604815   110.28306456    59.92746101
 H     49  46  45     1.080582389733   119.54094652   180.22450125
 H     50  49  46     1.080602339716   119.79680273   180.87997373
 H     52  51  42     1.080658282807   119.99253219     1.75335855
 H     53  52  51     1.080792472818   119.46461692   180.59981030
 H     55  54  53     1.091795839661   109.81738460   150.79633920
 H     55  54  53     1.091892777016   109.82243028    31.86567323
 H     56  55  54     1.087697909026   110.35215114   300.18742631
 H     56  55  54     1.087451445215   110.48013935   180.00345247
 H     56  55  54     1.087762266398   110.35105732    59.82682545
 H     57  54  53     1.080709143341   119.54229793   179.82707929
 H     58  57  54     1.080303985413   119.83716004   181.12808399
 H     62  36  19     1.078938210511   121.94386652   359.49136887
 H     68  67  66     1.074636287588   123.03985378   180.34577327
 H     69  67  66     1.085990932789   115.96408073   151.27816150
 H     82  81   3     1.072470154503   118.83658209   180.04207953
 H     83  82  81     1.073921689557   123.70972873   180.01889494
 H     85  84  78     1.072521191213   118.82397653   179.85444401
 H     86  85  84     1.074157537980   123.91543019   180.12037243

---------------------------
INTERNAL COORDINATES (A.U.)
---------------------------
 C      0   0   0     0.000000000000     0.00000000     0.00000000
 O      1   0   0     2.293821063358     0.00000000     0.00000000
 C      1   2   0     2.757638627128   126.81978113     0.00000000
 C      3   1   2     2.620998888460   111.58321072   180.50686165
 C      4   3   1     2.739257499308   108.77150907     0.15656285
 C      5   4   3     2.590319414160   123.81668997   178.69508169
 C      6   5   4     2.667469767470   121.42374658     0.74746214
 N      7   6   5     2.168556979756   178.46534101   177.94438302
 C      6   5   4     2.662976726134   127.18542959   181.23158521
 N      9   6   5     2.171265753378   175.09053783   176.70287923
 C      5   4   3     2.756480326971   107.11619009   359.23618170
 C     11   5   4     2.585015608649   122.86030792   182.17563837
 C     12  11   5     2.659651221816   132.28050339   179.64192160
 C     13  12  11     2.619985473033   132.99123178     1.66253288
 C     14  13  12     2.620440910304   111.96227843   180.11858747
 C     15  14  13     2.667319973635   114.36237845   359.95576815
 S     16  15  14     3.241825317518   111.07120703   359.88570195
 C     16  15  14     2.630299985904   112.36565601   178.94804409
 C     18  16  15     2.843822937400   137.55982314   177.90913134
 C     19  18  16     2.865190748163   114.06388170    63.12785778
 C     20  19  18     2.621593812169   121.17840062    21.57233078
 C     21  20  19     2.613301172279   120.45714935   178.79612105
 C     22  21  20     2.622722957845   120.95741847   359.63654048
 C     23  22  21     2.836930838284   120.94085592   181.63632591
 C     24  23  22     2.891382687121   110.46235736    91.32027346
 C     23  22  21     2.625182839053   118.33385227   359.44087611
 C     26  23  22     2.610369029168   120.94308789     0.69769774
 C     19  18  16     2.872203738415   106.79304111   299.14559511
 C     28  19  18     2.620633509794   122.00931330   263.58661266
 C     29  28  19     2.614913666938   120.25893688   177.22862395
 C     30  29  28     2.622481048955   121.06528703   359.56061731
 C     31  30  29     2.837125678148   120.94258736   182.14472957
 C     32  31  30     2.891379180380   110.38547028    91.60746406
 C     31  30  29     2.626022477620   118.36402536   359.70010370
 C     34  31  30     2.609280775803   120.85524291     0.45709674
 C     19  18  16     2.869964461689   100.75437340   180.02058366
 C     36  19  18     2.674361721515   111.00521942     2.17074553
 C     18  16  15     2.617715429642   111.70434411     0.60367812
 S     38  18  16     3.269379062377   114.24768450   359.66278774
 C     37  36  19     2.631256113174   121.95792542   179.77688686
 C     40  37  36     2.598343473632   117.20586927     1.02751651
 C     41  40  37     2.871131779060   128.19571985   180.60584541
 C     42  41  40     2.870162265448   114.97188093   293.57032932
 C     43  42  41     2.626646407880   119.06048173   166.50529406
 C     44  43  42     2.609420482708   120.46216007   175.07052584
 C     45  44  43     2.625419154143   120.88116767   359.23883577
 C     46  45  44     2.835092985447   120.48484429   178.56653305
 C     47  46  45     2.891535286451   110.42979148   273.69840745
 C     46  45  44     2.623012939984   118.32718483     0.55413856
 C     49  46  45     2.614127218614   121.09614635   359.53381676
 C     42  41  40     2.864931680608   108.48881556    60.21503496
 C     51  42  41     2.621761870351   121.20595816    91.92566346
 C     52  51  42     2.613289725939   120.45780554   181.46294541
 C     53  52  51     2.622973601874   120.95114446     0.35289823
 C     54  53  52     2.837266649057   120.80727404   178.21574555
 C     55  54  53     2.891284916021   110.45181011   271.32841070
 C     54  53  52     2.625206424017   118.34418198     0.37988186
 C     57  54  53     2.610685192688   120.93708384   359.45116836
 C     42  41  40     2.840634212208   100.67821186   180.36432415
 C     59  42  41     2.616195373498   110.95041789     0.05878017
 C     41  40  37     2.676471221660   120.81913868   359.81849002
 C     36  19  18     2.598890098563   128.12765957   183.43088882
 S     60  59  42     3.270887617581   113.99490315   175.71811455
 C     63  60  59     3.288160408599    89.47337716   358.63955123
 C     59  42  41     2.627472814623   136.99845197   172.16830872
 S     65  59  42     3.246344115253   135.84555335     4.56815164
 C     66  65  59     3.329149045682    90.68920892   184.43525790
 C     67  66  65     2.612476073187   111.97207737   356.74269935
 C     67  66  65     2.674333445535   121.75758448   179.17045311
 C     69  67  66     2.567620757891   128.54849446   335.49147656
 C     70  69  67     2.745774481630   132.13719116   345.82020023
 C     71  70  69     2.589288045148   128.05374284   329.44852164
 C     72  71  70     2.661452052189   121.75126662   184.59366310
 N     73  72  71     2.169573775005   178.64123955   215.44385216
 C     72  71  70     2.664612280433   124.79743640   359.16086985
 N     75  72  71     2.169191369719   175.56387355   235.19760071
 C     71  70  69     2.742012682600   106.31175437   162.38015424
 C     77  71  70     2.627351955497   108.94886474     9.35195987
 C     78  77  71     2.758344624133   111.30124695   357.54677868
 O     79  78  77     2.284932610068   129.62480569   176.91676212
 S      3   1   2     3.228280765168   135.89535597     0.48969435
 C     81   3   1     3.259346369025    90.01334653   179.98612906
 C     82  81   3     2.576445851958   113.98479660     0.04209282
 S     78  77  71     3.230418945035   112.26503838   177.20666764
 C     84  78  77     3.258424784537    90.12759288     0.20872219
 C     85  84  78     2.577201433804   113.99022646   359.48628796
 H     12  11   5     2.048775071486   115.35644545     0.24087245
 H     14  13  12     2.029834035420   122.94538971   359.96420467
 H     21  20  19     2.041942929643   120.03740933   358.56243006
 H     22  21  20     2.042189515129   119.44860575   179.36914929
 H     24  23  22     2.063014196704   109.83488939   330.71870103
 H     24  23  22     2.063353238773   109.77563145   211.81905124
 H     25  24  23     2.055515928202   110.35841688   300.15740258
 H     25  24  23     2.054970187113   110.47042176   179.98113088
 H     25  24  23     2.055457078908   110.37987112    59.79690592
 H     26  23  22     2.042194166520   119.54301551   180.27694789
 H     27  26  23     2.041875176687   119.78116298   179.01981070
 H     29  28  19     2.041612412939   120.12534328   357.11741838
 H     30  29  28     2.042484271457   119.34144511   179.58401307
 H     32  31  30     2.063216784439   109.87843979   331.02101000
 H     32  31  30     2.063141937497   109.79147110   212.01935488
 H     33  32  31     2.055753318454   110.34335075   300.12374491
 H     33  32  31     2.054978223153   110.49126007   179.94476870
 H     33  32  31     2.055284870934   110.33531588    59.78054371
 H     34  31  30     2.041437585785   119.66828038   180.41249984
 H     35  34  31     2.041742284513   119.82382185   179.66845423
 H     40  37  36     2.038648327681   120.78485841   180.38756275
 H     44  43  42     2.043183073349   119.68126810   354.78700909
 H     45  44  43     2.041715586473   119.69231232   179.87262952
 H     47  46  45     2.062880423413   109.79851205   153.04447733
 H     47  46  45     2.062787178998   109.62630583    34.04915985
 H     48  47  46     2.056361390527   110.45678751   300.15141832
 H     48  47  46     2.054554864157   110.38005820   179.92707904
 H     48  47  46     2.055312639616   110.28306456    59.92746101
 H     49  46  45     2.042004781733   119.54094652   180.22450125
 H     50  49  46     2.042042481738   119.79680273   180.87997373
 H     52  51  42     2.042148198859   119.99253219     1.75335855
 H     53  52  51     2.042401781230   119.46461692   180.59981030
 H     55  54  53     2.063195131113   109.81738460   150.79633920
 H     55  54  53     2.063378316167   109.82243028    31.86567323
 H     56  55  54     2.055451164498   110.35215114   300.18742631
 H     56  55  54     2.054985415393   110.48013935   180.00345247
 H     56  55  54     2.055572782306   110.35105732    59.82682545
 H     57  54  53     2.042244311338   119.54229793   179.82707929
 H     58  57  54     2.041478673815   119.83716004   181.12808399
 H     62  36  19     2.038897733288   121.94386652   359.49136887
 H     68  67  66     2.030768277114   123.03985378   180.34577327
 H     69  67  66     2.052225446893   115.96408073   151.27816150
 H     82  81   3     2.026674878815   118.83658209   180.04207953
 H     83  82  81     2.029417882540   123.70972873   180.01889494
 H     85  84  78     2.026771324219   118.82397653   179.85444401
 H     86  85  84     2.029863571470   123.91543019   180.12037243

---------------------
BASIS SET INFORMATION
---------------------
There are 5 groups of distinct atoms

 Group   1 Type C   : 11s6p2d1f contracted to 5s3p2d1f pattern {62111/411/11/1}
 Group   2 Type O   : 11s6p2d1f contracted to 5s3p2d1f pattern {62111/411/11/1}
 Group   3 Type N   : 11s6p2d1f contracted to 5s3p2d1f pattern {62111/411/11/1}
 Group   4 Type S   : 14s9p3d1f contracted to 5s5p2d1f pattern {73211/51111/21/1}
 Group   5 Type H   : 5s1p contracted to 3s1p pattern {311/1}

Atom   0C    basis set group =>   1
Atom   1O    basis set group =>   2
Atom   2C    basis set group =>   1
Atom   3C    basis set group =>   1
Atom   4C    basis set group =>   1
Atom   5C    basis set group =>   1
Atom   6C    basis set group =>   1
Atom   7N    basis set group =>   3
Atom   8C    basis set group =>   1
Atom   9N    basis set group =>   3
Atom  10C    basis set group =>   1
Atom  11C    basis set group =>   1
Atom  12C    basis set group =>   1
Atom  13C    basis set group =>   1
Atom  14C    basis set group =>   1
Atom  15C    basis set group =>   1
Atom  16S    basis set group =>   4
Atom  17C    basis set group =>   1
Atom  18C    basis set group =>   1
Atom  19C    basis set group =>   1
Atom  20C    basis set group =>   1
Atom  21C    basis set group =>   1
Atom  22C    basis set group =>   1
Atom  23C    basis set group =>   1
Atom  24C    basis set group =>   1
Atom  25C    basis set group =>   1
Atom  26C    basis set group =>   1
Atom  27C    basis set group =>   1
Atom  28C    basis set group =>   1
Atom  29C    basis set group =>   1
Atom  30C    basis set group =>   1
Atom  31C    basis set group =>   1
Atom  32C    basis set group =>   1
Atom  33C    basis set group =>   1
Atom  34C    basis set group =>   1
Atom  35C    basis set group =>   1
Atom  36C    basis set group =>   1
Atom  37C    basis set group =>   1
Atom  38S    basis set group =>   4
Atom  39C    basis set group =>   1
Atom  40C    basis set group =>   1
Atom  41C    basis set group =>   1
Atom  42C    basis set group =>   1
Atom  43C    basis set group =>   1
Atom  44C    basis set group =>   1
Atom  45C    basis set group =>   1
Atom  46C    basis set group =>   1
Atom  47C    basis set group =>   1
Atom  48C    basis set group =>   1
Atom  49C    basis set group =>   1
Atom  50C    basis set group =>   1
Atom  51C    basis set group =>   1
Atom  52C    basis set group =>   1
Atom  53C    basis set group =>   1
Atom  54C    basis set group =>   1
Atom  55C    basis set group =>   1
Atom  56C    basis set group =>   1
Atom  57C    basis set group =>   1
Atom  58C    basis set group =>   1
Atom  59C    basis set group =>   1
Atom  60C    basis set group =>   1
Atom  61C    basis set group =>   1
Atom  62S    basis set group =>   4
Atom  63C    basis set group =>   1
Atom  64C    basis set group =>   1
Atom  65S    basis set group =>   4
Atom  66C    basis set group =>   1
Atom  67C    basis set group =>   1
Atom  68C    basis set group =>   1
Atom  69C    basis set group =>   1
Atom  70C    basis set group =>   1
Atom  71C    basis set group =>   1
Atom  72C    basis set group =>   1
Atom  73N    basis set group =>   3
Atom  74C    basis set group =>   1
Atom  75N    basis set group =>   3
Atom  76C    basis set group =>   1
Atom  77C    basis set group =>   1
Atom  78C    basis set group =>   1
Atom  79O    basis set group =>   2
Atom  80S    basis set group =>   4
Atom  81C    basis set group =>   1
Atom  82C    basis set group =>   1
Atom  83S    basis set group =>   4
Atom  84C    basis set group =>   1
Atom  85C    basis set group =>   1
Atom  86H    basis set group =>   5
Atom  87H    basis set group =>   5
Atom  88H    basis set group =>   5
Atom  89H    basis set group =>   5
Atom  90H    basis set group =>   5
Atom  91H    basis set group =>   5
Atom  92H    basis set group =>   5
Atom  93H    basis set group =>   5
Atom  94H    basis set group =>   5
Atom  95H    basis set group =>   5
Atom  96H    basis set group =>   5
Atom  97H    basis set group =>   5
Atom  98H    basis set group =>   5
Atom  99H    basis set group =>   5
Atom 100H    basis set group =>   5
Atom 101H    basis set group =>   5
Atom 102H    basis set group =>   5
Atom 103H    basis set group =>   5
Atom 104H    basis set group =>   5
Atom 105H    basis set group =>   5
Atom 106H    basis set group =>   5
Atom 107H    basis set group =>   5
Atom 108H    basis set group =>   5
Atom 109H    basis set group =>   5
Atom 110H    basis set group =>   5
Atom 111H    basis set group =>   5
Atom 112H    basis set group =>   5
Atom 113H    basis set group =>   5
Atom 114H    basis set group =>   5
Atom 115H    basis set group =>   5
Atom 116H    basis set group =>   5
Atom 117H    basis set group =>   5
Atom 118H    basis set group =>   5
Atom 119H    basis set group =>   5
Atom 120H    basis set group =>   5
Atom 121H    basis set group =>   5
Atom 122H    basis set group =>   5
Atom 123H    basis set group =>   5
Atom 124H    basis set group =>   5
Atom 125H    basis set group =>   5
Atom 126H    basis set group =>   5
Atom 127H    basis set group =>   5
Atom 128H    basis set group =>   5
Atom 129H    basis set group =>   5
Atom 130H    basis set group =>   5
Atom 131H    basis set group =>   5
---------------------------------
AUXILIARY/J BASIS SET INFORMATION
---------------------------------
There are 5 groups of distinct atoms

 Group   1 Type C   : 12s5p4d2f1g contracted to 6s4p3d1f1g pattern {711111/2111/211/2/1}
 Group   2 Type O   : 12s5p4d2f1g contracted to 6s4p3d1f1g pattern {711111/2111/211/2/1}
 Group   3 Type N   : 12s5p4d2f1g contracted to 6s4p3d1f1g pattern {711111/2111/211/2/1}
 Group   4 Type S   : 14s5p5d2f1g contracted to 8s4p3d1f1g pattern {71111111/2111/311/2/1}
 Group   5 Type H   : 5s2p1d contracted to 3s1p1d pattern {311/2/1}

Atom   0C    basis set group =>   1
Atom   1O    basis set group =>   2
Atom   2C    basis set group =>   1
Atom   3C    basis set group =>   1
Atom   4C    basis set group =>   1
Atom   5C    basis set group =>   1
Atom   6C    basis set group =>   1
Atom   7N    basis set group =>   3
Atom   8C    basis set group =>   1
Atom   9N    basis set group =>   3
Atom  10C    basis set group =>   1
Atom  11C    basis set group =>   1
Atom  12C    basis set group =>   1
Atom  13C    basis set group =>   1
Atom  14C    basis set group =>   1
Atom  15C    basis set group =>   1
Atom  16S    basis set group =>   4
Atom  17C    basis set group =>   1
Atom  18C    basis set group =>   1
Atom  19C    basis set group =>   1
Atom  20C    basis set group =>   1
Atom  21C    basis set group =>   1
Atom  22C    basis set group =>   1
Atom  23C    basis set group =>   1
Atom  24C    basis set group =>   1
Atom  25C    basis set group =>   1
Atom  26C    basis set group =>   1
Atom  27C    basis set group =>   1
Atom  28C    basis set group =>   1
Atom  29C    basis set group =>   1
Atom  30C    basis set group =>   1
Atom  31C    basis set group =>   1
Atom  32C    basis set group =>   1
Atom  33C    basis set group =>   1
Atom  34C    basis set group =>   1
Atom  35C    basis set group =>   1
Atom  36C    basis set group =>   1
Atom  37C    basis set group =>   1
Atom  38S    basis set group =>   4
Atom  39C    basis set group =>   1
Atom  40C    basis set group =>   1
Atom  41C    basis set group =>   1
Atom  42C    basis set group =>   1
Atom  43C    basis set group =>   1
Atom  44C    basis set group =>   1
Atom  45C    basis set group =>   1
Atom  46C    basis set group =>   1
Atom  47C    basis set group =>   1
Atom  48C    basis set group =>   1
Atom  49C    basis set group =>   1
Atom  50C    basis set group =>   1
Atom  51C    basis set group =>   1
Atom  52C    basis set group =>   1
Atom  53C    basis set group =>   1
Atom  54C    basis set group =>   1
Atom  55C    basis set group =>   1
Atom  56C    basis set group =>   1
Atom  57C    basis set group =>   1
Atom  58C    basis set group =>   1
Atom  59C    basis set group =>   1
Atom  60C    basis set group =>   1
Atom  61C    basis set group =>   1
Atom  62S    basis set group =>   4
Atom  63C    basis set group =>   1
Atom  64C    basis set group =>   1
Atom  65S    basis set group =>   4
Atom  66C    basis set group =>   1
Atom  67C    basis set group =>   1
Atom  68C    basis set group =>   1
Atom  69C    basis set group =>   1
Atom  70C    basis set group =>   1
Atom  71C    basis set group =>   1
Atom  72C    basis set group =>   1
Atom  73N    basis set group =>   3
Atom  74C    basis set group =>   1
Atom  75N    basis set group =>   3
Atom  76C    basis set group =>   1
Atom  77C    basis set group =>   1
Atom  78C    basis set group =>   1
Atom  79O    basis set group =>   2
Atom  80S    basis set group =>   4
Atom  81C    basis set group =>   1
Atom  82C    basis set group =>   1
Atom  83S    basis set group =>   4
Atom  84C    basis set group =>   1
Atom  85C    basis set group =>   1
Atom  86H    basis set group =>   5
Atom  87H    basis set group =>   5
Atom  88H    basis set group =>   5
Atom  89H    basis set group =>   5
Atom  90H    basis set group =>   5
Atom  91H    basis set group =>   5
Atom  92H    basis set group =>   5
Atom  93H    basis set group =>   5
Atom  94H    basis set group =>   5
Atom  95H    basis set group =>   5
Atom  96H    basis set group =>   5
Atom  97H    basis set group =>   5
Atom  98H    basis set group =>   5
Atom  99H    basis set group =>   5
Atom 100H    basis set group =>   5
Atom 101H    basis set group =>   5
Atom 102H    basis set group =>   5
Atom 103H    basis set group =>   5
Atom 104H    basis set group =>   5
Atom 105H    basis set group =>   5
Atom 106H    basis set group =>   5
Atom 107H    basis set group =>   5
Atom 108H    basis set group =>   5
Atom 109H    basis set group =>   5
Atom 110H    basis set group =>   5
Atom 111H    basis set group =>   5
Atom 112H    basis set group =>   5
Atom 113H    basis set group =>   5
Atom 114H    basis set group =>   5
Atom 115H    basis set group =>   5
Atom 116H    basis set group =>   5
Atom 117H    basis set group =>   5
Atom 118H    basis set group =>   5
Atom 119H    basis set group =>   5
Atom 120H    basis set group =>   5
Atom 121H    basis set group =>   5
Atom 122H    basis set group =>   5
Atom 123H    basis set group =>   5
Atom 124H    basis set group =>   5
Atom 125H    basis set group =>   5
Atom 126H    basis set group =>   5
Atom 127H    basis set group =>   5
Atom 128H    basis set group =>   5
Atom 129H    basis set group =>   5
Atom 130H    basis set group =>   5
Atom 131H    basis set group =>   5
------------------------------------------------------------------------------
                           ORCA GTO INTEGRAL CALCULATION
                           -- RI-GTO INTEGRALS CHOSEN --
------------------------------------------------------------------------------

                         BASIS SET STATISTICS AND STARTUP INFO

Gaussian basis set:
 # of primitive gaussian shells          ... 2038
 # of primitive gaussian functions       ... 4426
 # of contracted shells                  ... 1142
 # of contracted basis functions         ... 2978
 Highest angular momentum                ...    3
 Maximum contraction depth               ...    7
Auxiliary gaussian basis set:
 # of primitive gaussian shells          ... 2450
 # of primitive gaussian functions       ... 6798
 # of contracted shells                  ... 1532
 # of contracted aux-basis functions     ... 4732
 Highest angular momentum                ...    4
 Maximum contraction depth               ...    7
Ratio of auxiliary to basis functions    ...  1.59
Integral package used                  ... LIBINT
 One Electron integrals                  ... done
 Ordering auxiliary basis shells         ... done
 Integral threshhold             Thresh  ...  2.500e-11
 Primitive cut-off               TCut    ...  2.500e-12
 Pre-screening matrix                    ... done
 Shell pair data                         ... 
 Ordering of the shell pairs             ... done (   0.050 sec) 214554 of 652653 pairs
 Determination of significant pairs      ... done (   0.001 sec)
 Creation of shell pair data             ... done (   0.025 sec)
 Storage of shell pair data              ... done (   0.033 sec)
 Shell pair data done in (   0.109 sec)
 Computing two index integrals           ... done
 Cholesky decomposition of the V-matrix  ... done


Timings:
 Total evaluation time                   ...  10.286 sec (  0.171 min)
 One electron matrix time                ...   3.718 sec (  0.062 min) = 36.1%
 Schwartz matrix evaluation time         ...   4.995 sec (  0.083 min) = 48.6%
 Two index repulsion integral time       ...   0.557 sec (  0.009 min) =  5.4%
 Cholesky decomposition of V             ...   0.889 sec (  0.015 min) =  8.6%
 Three index repulsion integral time     ...   0.000 sec (  0.000 min) =  0.0%

-------------------------------------------------------------------------------
                                 ORCA SCF
-------------------------------------------------------------------------------

------------
SCF SETTINGS
------------
Hamiltonian:
 Density Functional     Method          .... DFT(GTOs)
 Exchange Functional    Exchange        .... B88
   X-Alpha parameter    XAlpha          ....  0.666667
   Becke's b parameter  XBeta           ....  0.004200
 Correlation Functional Correlation     .... LYP
 LDA part of GGA corr.  LDAOpt          .... VWN-5
 Gradients option       PostSCFGGA      .... off
 Hybrid DFT is turned on
   Fraction HF Exchange ScalHFX         ....  0.200000
   Scaling of DF-GGA-X  ScalDFX         ....  0.720000
   Scaling of DF-GGA-C  ScalDFC         ....  0.810000
   Scaling of DF-LDA-C  ScalLDAC        ....  1.000000
   Perturbative correction              ....  0.000000
   Density functional embedding theory  .... OFF
   NL short-range parameter             ....  4.800000
 RI-approximation to the Coulomb term is turned on
   Number of auxiliary basis functions  .... 4732
   RIJ-COSX (HFX calculated with COS-X)).... on


General Settings:
 Integral files         IntName         .... ITCC
 Hartree-Fock type      HFTyp           .... RHF
 Total Charge           Charge          ....    0
 Multiplicity           Mult            ....    1
 Number of Electrons    NEL             ....  630
 Basis Dimension        Dim             .... 2978
 Nuclear Repulsion      ENuc            ....  15245.5387129260 Eh

Convergence Acceleration:
 DIIS                   CNVDIIS         .... on
   Start iteration      DIISMaxIt       ....    12
   Startup error        DIISStart       ....  0.200000
   # of expansion vecs  DIISMaxEq       ....     5
   Bias factor          DIISBfac        ....   1.050
   Max. coefficient     DIISMaxC        ....  10.000
 Newton-Raphson         CNVNR           .... off
 SOSCF                  CNVSOSCF        .... on
   Start iteration      SOSCFMaxIt      ....   150
   Startup grad/error   SOSCFStart      ....  0.003300
 Level Shifting         CNVShift        .... on
   Level shift para.    LevelShift      ....    0.2500
   Turn off err/grad.   ShiftErr        ....    0.0010
 Zerner damping         CNVZerner       .... off
 Static damping         CNVDamp         .... on
   Fraction old density DampFac         ....    0.7000
   Max. Damping (<1)    DampMax         ....    0.9800
   Min. Damping (>=0)   DampMin         ....    0.0000
   Turn off err/grad.   DampErr         ....    0.1000
 Fernandez-Rico         CNVRico         .... off

SCF Procedure:
 Maximum # iterations   MaxIter         ....   125
 SCF integral mode      SCFMode         .... Direct
   Integral package                     .... LIBINT
 Reset frequency        DirectResetFreq ....    20
 Integral Threshold     Thresh          ....  2.500e-11 Eh
 Primitive CutOff       TCut            ....  2.500e-12 Eh

Convergence Tolerance:
 Convergence Check Mode ConvCheckMode   .... Total+1el-Energy
 Convergence forced     ConvForced      .... 1
 Energy Change          TolE            ....  1.000e-08 Eh
 1-El. energy change                    ....  1.000e-05 Eh
 Orbital Gradient       TolG            ....  1.000e-05
 Orbital Rotation angle TolX            ....  1.000e-05
 DIIS Error             TolErr          ....  5.000e-07


Diagonalization of the overlap matrix:
Smallest eigenvalue                        ... 1.823e-06
Time for diagonalization                   ...    7.581 sec
Threshold for overlap eigenvalues          ... 1.000e-08
Number of eigenvalues below threshold      ... 0
Time for construction of square roots      ...    2.121 sec
Total time needed                          ...    9.747 sec

-------------------
DFT GRID GENERATION
-------------------

General Integration Accuracy     IntAcc      ...  4.670
Radial Grid Type                 RadialGrid  ... Gauss-Chebyshev
Angular Grid (max. acc.)         AngularGrid ... Lebedev-302
Angular grid pruning method      GridPruning ... 3 (G Style)
Weight generation scheme         WeightScheme... Becke
Basis function cutoff            BFCut       ...    1.0000e-11
Integration weight cutoff        WCut        ...    1.0000e-14
Grids for H and He will be reduced by one unit

# of grid points (after initial pruning)     ... 694160 (   3.7 sec)
# of grid points (after weights+screening)   ... 581664 (  43.3 sec)
nearest neighbour list constructed           ...    0.0 sec
Grid point re-assignment to atoms done       ...    0.1 sec
Grid point division into batches done        ...    2.0 sec
Reduced shell lists constructed in   31.8 sec

Total number of grid points                  ...   581664
Total number of batches                      ...     9156
Average number of points per batch           ...       63
Average number of grid points per atom       ...     4407
Average number of shells per batch           ...   191.37 (16.76%)
Average number of basis functions per batch  ...   469.63 (15.77%)
Average number of large shells per batch     ...   107.76 (56.31%)
Average number of large basis fcns per batch ...   272.20 (57.96%)
Maximum spatial batch extension              ...  20.75, 22.30, 22.31 au
Average spatial batch extension              ...   2.10,  2.04,  2.13 au

Time for grid setup =   78.855 sec

------------------------------
INITIAL GUESS: MODEL POTENTIAL
------------------------------
Loading Hartree-Fock densities                     ... done
Calculating cut-offs                               ... done
Setting up the integral package                    ... done
Initializing the effective Hamiltonian             ... done
Starting the Coulomb interaction                   ... done (  52.0 sec)
Reading the grid                                   ... done
Mapping shells                                     ... done
Starting the XC term evaluation                    ... done (  46.3 sec)
  promolecular density results
     # of electrons  =    629.977492084
     EX              =   -587.401215026
     EC              =    -22.215540385
     EX+EC           =   -609.616755410
Transforming the Hamiltonian                       ... done (   2.1 sec)
Diagonalizing the Hamiltonian                      ... done (   7.1 sec)
Back transforming the eigenvectors                 ... done (   0.9 sec)
Now organizing SCF variables                       ... done
                      ------------------
                      INITIAL GUESS DONE ( 189.0 sec)
                      ------------------
--------------------
COSX GRID GENERATION
--------------------

General Integration Accuracy     IntAcc      ...  3.340
Radial Grid Type                 RadialGrid  ... Gauss-Chebyshev
Angular Grid (max. acc.)         AngularGrid ... Lebedev-50
Angular grid pruning method      GridPruning ... 3 (G Style)
Weight generation scheme         WeightScheme... Becke
Basis function cutoff            BFCut       ...    1.0000e-11
Integration weight cutoff        WCut        ...    1.0000e-14
Grids for H and He will be reduced by one unit

# of grid points (after initial pruning)     ...  65300 (   0.1 sec)
# of grid points (after weights+screening)   ...  57484 (   4.0 sec)
nearest neighbour list constructed           ...    0.0 sec
Grid point re-assignment to atoms done       ...    0.0 sec
Grid point division into batches done        ...    0.0 sec
Reduced shell lists constructed in    4.8 sec

Total number of grid points                  ...    57484
Total number of batches                      ...      971
Average number of points per batch           ...       59
Average number of grid points per atom       ...      435
Average number of shells per batch           ...   234.31 (20.52%)
Average number of basis functions per batch  ...   580.56 (19.49%)
Average number of large shells per batch     ...   131.97 (56.32%)
Average number of large basis fcns per batch ...   337.81 (58.19%)
Maximum spatial batch extension              ...  19.47, 20.13, 24.81 au
Average spatial batch extension              ...   4.43,  4.03,  4.59 au

Overlap Fitting                  UseSFitting ... on
Constructing numerical overlap ... done (      4.2 sec)
Inverting numerical overlap    ... done (      0.7 sec)
Obtaining analytic overlap     ... done (      0.0 sec)
Final contraction and storage  ... done (      1.0 sec)


General Integration Accuracy     IntAcc      ...  3.670
Radial Grid Type                 RadialGrid  ... Gauss-Chebyshev
Angular Grid (max. acc.)         AngularGrid ... Lebedev-50
Angular grid pruning method      GridPruning ... 3 (G Style)
Weight generation scheme         WeightScheme... Becke
Basis function cutoff            BFCut       ...    1.0000e-11
Integration weight cutoff        WCut        ...    1.0000e-14
Grids for H and He will be reduced by one unit

# of grid points (after initial pruning)     ...  81804 (   0.1 sec)
# of grid points (after weights+screening)   ...  71687 (   5.1 sec)
nearest neighbour list constructed           ...    0.0 sec
Grid point re-assignment to atoms done       ...    0.0 sec
Grid point division into batches done        ...    0.0 sec
Reduced shell lists constructed in    5.5 sec

Total number of grid points                  ...    71687
Total number of batches                      ...     1186
Average number of points per batch           ...       60
Average number of grid points per atom       ...      543
Average number of shells per batch           ...   229.21 (20.07%)
Average number of basis functions per batch  ...   567.48 (19.06%)
Average number of large shells per batch     ...   128.81 (56.20%)
Average number of large basis fcns per batch ...   329.37 (58.04%)
Maximum spatial batch extension              ...  20.80, 19.63, 31.77 au
Average spatial batch extension              ...   4.13,  3.83,  4.27 au

Overlap Fitting                  UseSFitting ... on
Constructing numerical overlap ... done (      5.1 sec)
Inverting numerical overlap    ... done (      0.7 sec)
Obtaining analytic overlap     ... done (      0.0 sec)
Final contraction and storage  ... done (      1.0 sec)


General Integration Accuracy     IntAcc      ...  4.010
Radial Grid Type                 RadialGrid  ... Gauss-Chebyshev
Angular Grid (max. acc.)         AngularGrid ... Lebedev-110
Angular grid pruning method      GridPruning ... 3 (G Style)
Weight generation scheme         WeightScheme... Becke
Basis function cutoff            BFCut       ...    1.0000e-11
Integration weight cutoff        WCut        ...    1.0000e-14
Grids for H and He will be reduced by one unit

# of grid points (after initial pruning)     ... 157868 (   0.3 sec)
# of grid points (after weights+screening)   ... 136836 (   9.8 sec)
nearest neighbour list constructed           ...    0.0 sec
Grid point re-assignment to atoms done       ...    0.0 sec
Grid point division into batches done        ...    0.1 sec
Reduced shell lists constructed in    8.9 sec

Total number of grid points                  ...   136836
Total number of batches                      ...     2204
Average number of points per batch           ...       62
Average number of grid points per atom       ...     1037
Average number of shells per batch           ...   217.14 (19.01%)
Average number of basis functions per batch  ...   537.07 (18.03%)
Average number of large shells per batch     ...   122.98 (56.64%)
Average number of large basis fcns per batch ...   313.67 (58.40%)
Maximum spatial batch extension              ...  22.85, 19.10, 30.49 au
Average spatial batch extension              ...   3.45,  3.22,  3.49 au

Overlap Fitting                  UseSFitting ... on
Constructing numerical overlap ... done (      8.8 sec)
Inverting numerical overlap    ... done (      0.7 sec)
Obtaining analytic overlap     ... done (      0.0 sec)
Final contraction and storage  ... done (      1.0 sec)

Time for X-Grid setup             =   62.402 sec
--------------
SCF ITERATIONS
--------------
ITER       Energy         Delta-E        Max-DP      RMS-DP      [F,P]     Damp
               ***  Starting incremental Fock matrix formation  ***
  0  -5602.6989023001   0.000000000000 0.45683345  0.00091085  0.3046160 0.7000
  1  -5603.8020109196  -1.103108619489 0.30734069  0.00071996  0.1061573 0.7000
                               ***Turning on DIIS***
  2  -5604.2124567838  -0.410445864212 0.27329621  0.00103529  0.0471458 0.0000
  3  -5604.8556425018  -0.643185718021 0.26048940  0.00066082  0.0572270 0.0000
  4  -5605.0131375201  -0.157495018273 0.04641098  0.00020605  0.0392916 0.0000
  5  -5605.0273688240  -0.014231303956 0.02262196  0.00008953  0.0162807 0.0000
                      *** Initiating the SOSCF procedure ***
                           *** Shutting down DIIS ***
                      *** Re-Reading the Fockian *** 
                      *** Removing any level shift *** 
ITER      Energy       Delta-E        Grad      Rot      Max-DP    RMS-DP
  6  -5605.02900062  -0.0016317993  0.000600  0.000600  0.019722  0.000033
               *** Restarting incremental Fock matrix formation ***
  7  -5605.02911409  -0.0001134625  0.000272  0.002784  0.030828  0.000109
  8  -5605.02909775   0.0000163322  0.000511  0.001787  0.015042  0.000034
  9  -5605.02914187  -0.0000441161  0.000134  0.000918  0.014138  0.000037
 10  -5605.02913756   0.0000043124  0.000183  0.000369  0.001343  0.000003
 11  -5605.02914512  -0.0000075639  0.000066  0.000752  0.003075  0.000013
 12  -5605.02914383   0.0000012952  0.000106  0.000403  0.001398  0.000004
 13  -5605.02914558  -0.0000017515  0.000019  0.000115  0.003181  0.000005
 14  -5605.02914534   0.0000002394  0.000039  0.000077  0.001253  0.000002
 15  -5605.02914563  -0.0000002911  0.000006  0.000079  0.003209  0.000003
 16  -5605.02914557   0.0000000640  0.000011  0.000046  0.000830  0.000001
                  ***Gradient check signals convergence***
              ***Rediagonalizing the Fockian in SOSCF/NRSCF***

               *****************************************************
               *                     SUCCESS                       *
               *           SCF CONVERGED AFTER  17 CYCLES          *
               *****************************************************

Setting up the final grid:

General Integration Accuracy     IntAcc      ...  5.010
Radial Grid Type                 RadialGrid  ... Gauss-Chebyshev
Angular Grid (max. acc.)         AngularGrid ... Lebedev-434
Angular grid pruning method      GridPruning ... 3 (G Style)
Weight generation scheme         WeightScheme... Becke
Basis function cutoff            BFCut       ...    1.0000e-11
Integration weight cutoff        WCut        ...    1.0000e-14
Grids for H and He will be reduced by one unit

# of grid points (after initial pruning)     ... 1233968 (   2.6 sec)
# of grid points (after weights+screening)   ... 1030676 (  77.1 sec)
nearest neighbour list constructed           ...    0.0 sec
Grid point re-assignment to atoms done       ...    0.2 sec
Grid point division into batches done        ...    6.6 sec
Reduced shell lists constructed in   52.8 sec

Total number of grid points                  ...  1030676
Total number of batches                      ...    16170
Average number of points per batch           ...       63
Average number of grid points per atom       ...     7808
Average number of shells per batch           ...   183.78 (16.09%)
Average number of basis functions per batch  ...   449.27 (15.09%)
Average number of large shells per batch     ...   103.40 (56.26%)
Average number of large basis fcns per batch ...   260.32 (57.94%)
Maximum spatial batch extension              ...  20.83, 21.58, 23.26 au
Average spatial batch extension              ...   1.71,  1.68,  1.72 au

Final grid set up in  132.6 sec
Final integration                            ... done ( 112.3 sec)
Change in XC energy                          ...    -0.000077609
Integrated number of electrons               ...   629.999930297
Previous integrated no of electrons          ...   629.999964979
Old exchange energy                            =   -118.788411147 Eh
New exchange energy                            =   -118.789656747 Eh
Exchange energy change after final integration =     -0.001245600 Eh
Total energy after final integration           =  -5605.030468678 Eh
Final COS-X integration done in                =  2882.392 sec

----------------
TOTAL SCF ENERGY
----------------

Total Energy       :        -5605.03046868 Eh         -152520.63305 eV

Components:
Nuclear Repulsion  :        15245.53871293 Eh          414852.19906 eV
Electronic Energy  :       -20850.56918160 Eh         -567372.83211 eV
One Electron Energy:       -38053.41798556 Eh        -1035486.14649 eV
Two Electron Energy:        17202.84880395 Eh          468113.31438 eV

Virial components:
Potential Energy   :       -11193.97142193 Eh         -304603.44813 eV
Kinetic Energy     :         5588.94095325 Eh          152082.81508 eV
Virial Ratio       :            2.00287881


DFT components:
N(Alpha)           :      314.999965148436 electrons
N(Beta)            :      314.999965148436 electrons
N(Total)           :      629.999930296871 electrons
E(X)               :     -471.939374592593 Eh       
E(C)               :      -26.115713748969 Eh       
E(XC)              :     -498.055088341563 Eh       
DFET-embed. en.    :        0.000000000000 Eh       

---------------
SCF CONVERGENCE
---------------

  Last Energy change         ...    9.6314e-08  Tolerance :   1.0000e-08
  Last MAX-Density change    ...    7.9936e-15  Tolerance :   1.0000e-07
  Last RMS-Density change    ...    1.2424e-17  Tolerance :   5.0000e-09
  Last Orbital Gradient      ...    2.2236e-06  Tolerance :   1.0000e-05
  Last Orbital Rotation      ...    9.4201e-06  Tolerance :   1.0000e-05

             **** THE GBW FILE WAS UPDATED (ITCC.gbw) ****
             **** DENSITY FILE WAS UPDATED (ITCC.scfp) ****
             **** ENERGY FILE WAS UPDATED (ITCC.en.tmp) ****
             **** THE GBW FILE WAS UPDATED (ITCC.gbw) ****
             **** DENSITY FILE WAS UPDATED (ITCC.scfp) ****
----------------
ORBITAL ENERGIES
----------------

  NO   OCC          E(Eh)            E(eV) 
   0   2.0000     -88.922507     -2419.7044 
   1   2.0000     -88.919396     -2419.6198 
   2   2.0000     -88.906311     -2419.2637 
   3   2.0000     -88.905681     -2419.2466 
   4   2.0000     -88.900503     -2419.1057 
   5   2.0000     -88.899912     -2419.0896 
   6   2.0000     -19.128473      -520.5122 
   7   2.0000     -19.127938      -520.4977 
   8   2.0000     -14.328266      -389.8919 
   9   2.0000     -14.325800      -389.8248 
  10   2.0000     -14.321230      -389.7005 
  11   2.0000     -14.321196      -389.6996 
  12   2.0000     -10.280411      -279.7442 
  13   2.0000     -10.279116      -279.7090 
  14   2.0000     -10.254406      -279.0366 
  15   2.0000     -10.253669      -279.0165 
  16   2.0000     -10.251166      -278.9484 
  17   2.0000     -10.249851      -278.9126 
  18   2.0000     -10.233966      -278.4804 
  19   2.0000     -10.229517      -278.3593 
  20   2.0000     -10.229485      -278.3584 
  21   2.0000     -10.229194      -278.3505 
  22   2.0000     -10.228573      -278.3336 
  23   2.0000     -10.227884      -278.3149 
  24   2.0000     -10.227436      -278.3027 
  25   2.0000     -10.227343      -278.3001 
  26   2.0000     -10.226950      -278.2895 
  27   2.0000     -10.225466      -278.2491 
  28   2.0000     -10.225433      -278.2482 
[...]

   Memory handling for direct AO based CIS:
   Memory per vector needed      ...   263 MB
   Memory needed                 ...  2375 MB
   Memory available              ...  2000 MB
   Number of vectors per batch   ...     7
   Number of batches             ...     2
   Time for densities:    22.467
   Time for K (COSX):  4026.615
   Time for XC-Integration:    80.143
   Time for Sigma-Completion:   593.356
   Time for densities:     6.553
   Time for K (COSX):  4139.433
   Time for XC-Integration:    23.612
   Time for Sigma-Completion:   169.556
   Size of expansion space: 9
   Lowest Energy          :     0.053597386799
   Maximum Energy change  :     0.074626682066 (vector 2)
   Maximum residual norm  :     0.000509229633

                       ****Iteration    1****
   Time for densities:     9.750
   Time for K (COSX):  4366.229
   Time for XC-Integration:    38.987
   Time for Sigma-Completion:   253.085
   Size of expansion space: 12
   Lowest Energy          :     0.050229846192
   Maximum Energy change  :     0.003540701189 (vector 2)
   Maximum residual norm  :     0.000035675719

                       ****Iteration    2****
   Time for densities:    10.539
   Time for K (COSX):  4229.282
   Time for XC-Integration:    41.768
   Time for Sigma-Completion:   262.134
   Size of expansion space: 15
   Lowest Energy          :     0.050071629237
   Maximum Energy change  :     0.000251346685 (vector 2)
   Maximum residual norm  :     0.000004183893
   Rebuilding the expansion space

                       ****Iteration    3****
   Time for densities:    20.135
   Time for K (COSX):  4356.107
   Time for XC-Integration:    79.664
   Time for Sigma-Completion:   528.402
   Size of expansion space: 6
   Lowest Energy          :     0.050066542840
   Maximum Energy change  :     0.000032756765 (vector 2)
   Maximum residual norm  :     0.000000917575

                       ****Iteration    4****
   Time for densities:    10.285
   Time for K (COSX):  4364.669
   Time for XC-Integration:    37.404
   Time for Sigma-Completion:   239.023
   Size of expansion space: 9
   Lowest Energy          :     0.050066161151
   Maximum Energy change  :     0.000013008789 (vector 2)
   Maximum residual norm  :     0.000000300202

                       ****Iteration    5****
   Time for densities:     9.573
   Time for K (COSX):  4788.596
   Time for XC-Integration:    47.938
   Time for Sigma-Completion:   304.841
   Size of expansion space: 12
   Lowest Energy          :     0.050066138254
   Maximum Energy change  :     0.000004221902 (vector 2)
   Maximum residual norm  :     0.000000165236

      *** CONVERGENCE OF RESIDUAL NORM REACHED ***

Storing the converged CI vectors               ... ITCC.cis3

                 *** DAVIDSON DONE ***

------------------------------------
TD-DFT/TDA EXCITED STATES (TRIPLETS)
------------------------------------

the weight of the individual excitations are printed if larger than 1.0e-02

STATE  1:  E=   0.050066 au      1.362 eV    10988.2 cm**-1
   313a -> 315a  :     0.013449 (c=  0.11596926)
   313a -> 316a  :     0.034901 (c=  0.18681701)
   313a -> 318a  :     0.023078 (c=  0.15191583)
   314a -> 315a  :     0.859155 (c= -0.92690599)
   314a -> 317a  :     0.032034 (c= -0.17898153)

STATE  2:  E=   0.059289 au      1.613 eV    13012.5 cm**-1
   313a -> 315a  :     0.202960 (c= -0.45051084)
   313a -> 316a  :     0.012405 (c=  0.11137615)
   314a -> 316a  :     0.614349 (c=  0.78380441)
   314a -> 318a  :     0.114290 (c=  0.33806732)

STATE  3:  E=   0.070785 au      1.926 eV    15535.4 cm**-1
   313a -> 316a  :     0.061730 (c=  0.24845603)
   313a -> 318a  :     0.033201 (c= -0.18221048)
   314a -> 315a  :     0.019202 (c= -0.13856994)
   314a -> 316a  :     0.016184 (c=  0.12721531)
   314a -> 317a  :     0.789961 (c=  0.88879758)

------------------------------
TD-DFT/TDA SPIN-ORBIT COUPLING
------------------------------

Calculating the spin-orbit integrals:             

Loading the effective charges         ... done
Entering the SOC calc. section        ... 
------------------------------------------------------------------------------
                         ORCA SPIN-ORBIT COUPLING CALCULATION
------------------------------------------------------------------------------

GBW file                                    ... ITCC.gbw
Input density                               ... ITCC.cisp0
Output integrals                            ... ITCC.cis
Operator type                               ... Mean-field/Effective potential
   One-Electron Terms                       ... 1
   Coulomb Contribution                     ... 2
   Exchange Contribution                    ... 3
   Correlation Contribution                 ... 0
   Maximum number of centers                ... 4
Setting up the integration grid             ... done
Evaluating density on the grid              ... (NumEl=  629.999965) done
Evaluating Coulomb term semi-analytically   ... done
One-Center Exchange (+SOO)                  ... done
Evaluating the spin-orbit operator          ... done
Transforming the SOC integrals              ... done
Constructing the SOC matrix:                ... done
Diagonalizing the SOC matrix:               ... done

      --------------------------------------------------------------------------------
                      CALCULATED SOCME BETWEEN TRIPLETS AND SINGLETS                  
      --------------------------------------------------------------------------------
           Root                          <T|HSO|S>  (Re, Im) cm-1                     
         T      S             Z                     X                     Y           
      --------------------------------------------------------------------------------
         1      0    (   0.00 ,   -0.21 )    (   0.00 ,   -0.31 )    (  -0.00 ,   -0.41 )
         1      1    (   0.00 ,   -0.04 )    (   0.00 ,    0.02 )    (  -0.00 ,    0.48 )
         1      2    (   0.00 ,    0.17 )    (   0.00 ,   -0.10 )    (  -0.00 ,   -0.08 )
         1      3    (   0.00 ,   -0.42 )    (   0.00 ,    0.15 )    (  -0.00 ,   -0.30 )
         2      0    (   0.00 ,    0.16 )    (   0.00 ,    0.27 )    (  -0.00 ,    0.50 )
         2      1    (   0.00 ,    0.08 )    (   0.00 ,   -0.13 )    (  -0.00 ,   -0.03 )
         2      2    (   0.00 ,   -0.13 )    (   0.00 ,    0.09 )    (  -0.00 ,    0.09 )
         2      3    (   0.00 ,    0.33 )    (   0.00 ,   -0.23 )    (  -0.00 ,   -0.04 )
         3      0    (   0.00 ,    0.35 )    (   0.00 ,   -0.43 )    (  -0.00 ,    0.29 )
         3      1    (   0.00 ,    0.19 )    (   0.00 ,    0.17 )    (  -0.00 ,   -0.21 )
         3      2    (   0.00 ,    0.02 )    (   0.00 ,   -0.10 )    (  -0.00 ,    0.01 )
         3      3    (   0.00 ,   -0.18 )    (   0.00 ,    0.21 )    (  -0.00 ,    0.19 )

SOC stabilization of the ground state:  -0.0001 cm-1
Eigenvalues of the SOC matrix:

   State:        cm-1         eV
     0:          0.00         0.0000
     1:      10988.25         1.3624
     2:      10988.25         1.3624
     3:      10988.25         1.3624
     4:      13012.50         1.6133
     5:      13012.50         1.6133
     6:      13012.50         1.6133
     7:      14916.34         1.8494
     8:      15535.43         1.9261
     9:      15535.43         1.9261
    10:      15535.43         1.9261
    11:      16429.36         2.0370
    12:      17741.17         2.1996

The threshold for printing is 0.0100
Eigenvectors of the SOC matrix:

             E(cm-1)  Weight      Real         Imag     : Root  Spin  Ms
 STATE  0:      0.00
                      1.00000     -0.55912      0.82909 : 0     0     0
 STATE  1:  10988.25
                      0.42292      0.62403     -0.18303 : 1     1     0
                      0.28854     -0.46015     -0.27713 : 1     1    -1
                      0.28854      0.23757     -0.48177 : 1     1     1
 STATE  2:  10988.25
                      0.56022     -0.44759     -0.59991 : 1     1     0
                      0.21989      0.20273     -0.42284 : 1     1    -1
                      0.21989      0.46306     -0.07390 : 1     1     1
 STATE  3:  10988.25
                      0.01686      0.08704      0.09635 : 1     1     0
                      0.49157      0.68644      0.14275 : 1     1    -1
                      0.49157     -0.07251     -0.69736 : 1     1     1
 STATE  4:  13012.50
                      0.51550      0.68614     -0.21146 : 2     1     0
                      0.24225     -0.42938      0.24059 : 2     1    -1
                      0.24225      0.49032     -0.04285 : 2     1     1
 STATE  5:  13012.50
                      0.49614      0.12526      0.69315 : 2     1    -1
                      0.49614     -0.04407      0.70299 : 2     1     1
 STATE  6:  13012.50
                      0.47678     -0.40888     -0.55642 : 2     1     0
                      0.26161     -0.31768     -0.40086 : 2     1    -1
                      0.26161      0.28767      0.42291 : 2     1     1
 STATE  7:  14916.34
                      1.00000     -0.78232      0.62288 : 1     0     0
 STATE  8:  15535.43
                      0.12995      0.29428     -0.20821 : 3     1     0
                      0.43502     -0.21949      0.62197 : 3     1    -1
                      0.43502      0.65956      0.00000 : 3     1     1
 STATE  9:  15535.43
                      0.64343     -0.05604     -0.80018 : 3     1     0
                      0.17829     -0.41812      0.05885 : 3     1    -1
                      0.17829     -0.42224      0.00000 : 3     1     1
 STATE 10:  15535.43
                      0.22662      0.35017      0.32249 : 3     1     0
                      0.38669      0.05111      0.61974 : 3     1    -1
                      0.38669     -0.62184      0.00000 : 3     1     1
 STATE 11:  16429.36
                      1.00000     -0.12720      0.99188 : 2     0     0
 STATE 12:  17741.17
                      1.00000     -0.66742     -0.74468 : 3     0     0

-----------------------------
TD-DFT/TDA-EXCITATION SPECTRA
-----------------------------

Center of mass = ( 16.7785,-12.2973, -1.4218)
Calculating the Dipole integrals                  ... done
Transforming integrals                            ... done
Calculating the Linear Momentum integrals         ... done
Transforming integrals                            ... done
Calculating angular momentum integrals            ... done
Transforming integrals                            ... done

-----------------------------------------------------------------------------
         ABSORPTION SPECTRUM VIA TRANSITION ELECTRIC DIPOLE MOMENTS
-----------------------------------------------------------------------------
State   Energy    Wavelength  fosc         T2        TX        TY        TZ  
        (cm-1)      (nm)                 (au**2)    (au)      (au)      (au) 
-----------------------------------------------------------------------------
   1   14916.3    670.4   1.131591293  24.97486   3.23496  -3.80860   0.06712
   2   16429.4    608.7   0.419644280   8.40884   1.81297  -2.22079  -0.43597
   3   17741.2    563.7   1.206990060  22.39737  -3.26359   3.38830   0.51555
   4   10988.2    910.1   spin forbidden (mult=3)
   5   13012.5    768.5   spin forbidden (mult=3)
   6   15535.4    643.7   spin forbidden (mult=3)

-----------------------------------------------------------------------------
         ABSORPTION SPECTRUM VIA TRANSITION VELOCITY DIPOLE MOMENTS
-----------------------------------------------------------------------------
State   Energy    Wavelength   fosc        P2         PX        PY        PZ  
        (cm-1)      (nm)                 (au**2)     (au)      (au)      (au) 
-----------------------------------------------------------------------------
   1   14916.3    670.4   0.144297082   0.01471  -0.08133   0.08017   0.04085
   2   16429.4    608.7   0.065840005   0.00739  -0.07473   0.04132   0.01007
   3   17741.2    563.7   0.202659843   0.02457   0.08865  -0.12878   0.01139
   4   10988.2    910.1   spin forbidden (mult=3)
   5   13012.5    768.5   spin forbidden (mult=3)
   6   15535.4    643.7   spin forbidden (mult=3)

-------------------------------------------------------------------
                             CD SPECTRUM
-------------------------------------------------------------------
State  Energy     Wavelength     R         MX        MY        MZ   
       (cm-1)       (nm)     (1e40*cgs)   (au)      (au)      (au)  
-------------------------------------------------------------------
   1   14916.3    670.4    159.75078  -0.29156  -0.34427  -0.43416
   2   16429.4    608.7     44.21205  -0.36929  -0.24377  -0.50903
   3   17741.2    563.7     88.62050   0.39548   0.38990   0.30562
   4   10988.2    910.1 spin forbidden
   5   13012.5    768.5 spin forbidden
   6   15535.4    643.7 spin forbidden

-------------------------------------------
SOC CORRECTED TD-DFT/TDA-EXCITATION SPECTRA
--------------------------------------------

-----------------------------------------------------------------------------
  SOC CORRECTED ABSORPTION SPECTRUM VIA TRANSITION ELECTRIC DIPOLE MOMENTS*  
-----------------------------------------------------------------------------
State   Energy  Wavelength   fosc         T2         TX        TY        TZ  
        (cm-1)    (nm)                  (au**2)     (au)      (au)      (au) 
-----------------------------------------------------------------------------
   1   10988.2    910.1   0.000000011   0.00000   0.00039   0.00042   0.00003
   2   10988.2    910.1   0.000000002   0.00000   0.00014   0.00017   0.00003
   3   10988.2    910.1   0.000000000   0.00000   0.00006   0.00006   0.00003
   4   13012.5    768.5   0.000000005   0.00000   0.00022   0.00025   0.00006
   5   13012.5    768.5   0.000000000   0.00000   0.00003   0.00004   0.00003
   6   13012.5    768.5   0.000000000   0.00000   0.00003   0.00002   0.00003
   7   14916.3    670.4   1.131591034  24.97485   3.23496   3.80860   0.06712
   8   15535.4    643.7   0.000000015   0.00000   0.00036   0.00044   0.00005
   9   15535.4    643.7   0.000000003   0.00000   0.00019   0.00015   0.00003
  10   15535.4    643.7   0.000000311   0.00001   0.00163   0.00199   0.00007
  11   16429.4    608.7   0.419644182   8.40884   1.81297   2.22079   0.43597
  12   17741.2    563.7   1.206990080  22.39737   3.26359   3.38830   0.51555

-----------------------------------------------------------------------------
  SOC CORRECTED ABSORPTION SPECTRUM VIA TRANSITION VELOCITY DIPOLE MOMENTS*  
-----------------------------------------------------------------------------
State   Energy  Wavelength   fosc         P2         PX        PY        PZ  
        (cm-1)    (nm)                  (au**2)     (au)      (au)      (au) 
-----------------------------------------------------------------------------
   1   10988.2    910.1   0.000000006   0.00000   0.00001   0.00002   0.00000
   2   10988.2    910.1   0.000000000   0.00000   0.00000   0.00000   0.00000
   3   10988.2    910.1   0.000000002   0.00000   0.00001   0.00001   0.00000
   4   13012.5    768.5   0.000000001   0.00000   0.00000   0.00001   0.00000
   5   13012.5    768.5   0.000000000   0.00000   0.00000   0.00000   0.00000
   6   13012.5    768.5   0.000000000   0.00000   0.00000   0.00000   0.00000
   7   14916.3    670.4   0.144297045   0.01471   0.08133   0.08017   0.04085
   8   15535.4    643.7   0.000000005   0.00000   0.00001   0.00002   0.00000
   9   15535.4    643.7   0.000000000   0.00000   0.00000   0.00000   0.00000
  10   15535.4    643.7   0.000000039   0.00000   0.00004   0.00004   0.00002
  11   16429.4    608.7   0.065839990   0.00739   0.07473   0.04132   0.01007
  12   17741.2    563.7   0.202659839   0.02457   0.08865   0.12878   0.01139

-------------------------------------------------------------------
                    SOC CORRECTED CD SPECTRUM*                     
-------------------------------------------------------------------
State   Energy Wavelength       R         MX        MY        MZ   
        (cm-1)   (nm)       (1e40*sgs)   (au)      (au)      (au)  
-------------------------------------------------------------------
   1   10988.2    910.1      0.00000   0.00006   0.00005   0.00006
   2   10988.2    910.1      0.00000   0.00001   0.00002   0.00002
   3   10988.2    910.1      0.00000   0.00002   0.00003   0.00003
   4   13012.5    768.5      0.00000   0.00003   0.00002   0.00002
   5   13012.5    768.5      0.00000   0.00001   0.00000   0.00001
   6   13012.5    768.5      0.00000   0.00001   0.00001   0.00002
   7   14916.3    670.4    159.75075   0.29156   0.34427   0.43416
   8   15535.4    643.7      0.00000   0.00007   0.00005   0.00005
   9   15535.4    643.7      0.00000   0.00001   0.00000   0.00001
  10   15535.4    643.7      0.00004   0.00017   0.00018   0.00025
  11   16429.4    608.7     44.21204   0.36929   0.24377   0.50903
  12   17741.2    563.7     88.62050   0.39548   0.38990   0.30562

*The X,Y and Z components are the absolute values of the complex numbers

Total run time:   103529.604 sec

           *** ORCA-CIS/TD-DFT FINISHED WITHOUT ERROR ***

---------------------------
SOC CIS/TD-DFT TOTAL ENERGY
---------------------------

    E(SCF)        =  -5605.030468678 Eh
    E(SOC CIS)    =      0.050066138 Eh (SOC Root  1)
    ----------------------------- ---------
    E(tot)        =  -5604.980402540 Eh


-------------------------   --------------------
FINAL SINGLE POINT ENERGY     -5604.980402540414
-------------------------   --------------------


                            ***************************************
                            *     ORCA property calculations      *
                            ***************************************

                                    ---------------------
                                    Active property flags
                                    ---------------------
   (+) Dipole Moment


------------------------------------------------------------------------------
                       ORCA ELECTRIC PROPERTIES CALCULATION
------------------------------------------------------------------------------

Dipole Moment Calculation                       ... on
Quadrupole Moment Calculation                   ... off
Polarizability Calculation                      ... off
GBWName                                         ... ITCC.gbw
Electron density file                           ... ITCC.scfp
The origin for moment calculation is the CENTER OF MASS  = (16.778525, -12.297269 -1.421795)

-------------
DIPOLE MOMENT
-------------
                                X             Y             Z
Electronic contribution:     -0.65915      -3.19853      18.36057
Nuclear contribution   :      0.31482       0.62548     -18.93338
                        -----------------------------------------
Total Dipole Moment    :     -0.34433      -2.57305      -0.57281
                        -----------------------------------------
Magnitude (a.u.)       :      2.65843
Magnitude (Debye)      :      6.75719



--------------------
Rotational spectrum 
--------------------
 
Rotational constants in cm-1:     0.001199     0.000257     0.000247 
Rotational constants in MHz :    35.959952     7.690200     7.407541 

 Dipole components along the rotational axes: 
x,y,z [a.u.] :    -1.798517     1.275951     1.484767 
x,y,z [Debye]:    -4.571467     3.243209     3.773977 

 

Timings for individual modules:

Sum of individual times         ...   130428.936 sec (=2173.816 min)
GTO integral calculation        ...       10.322 sec (=   0.172 min)   0.0 %
SCF iterations                  ...    26888.813 sec (= 448.147 min)  20.6 %
CIS module                      ...   103529.801 sec (=1725.497 min)  79.4 %
                             ****ORCA TERMINATED NORMALLY****
TOTAL RUN TIME: 1 days 12 hours 13 minutes 51 seconds 255 msec
