
                                 *****************
                                 * O   R   C   A *
                                 *****************

           --- An Ab Initio, DFT and Semiempirical electronic structure package ---

                  #######################################################
                  #                        -***-                        #
                  #          Department of theory and spectroscopy      #
                  #               Directorship: Frank Neese             #
                  #        Max Planck Institute fuer Kohlenforschung    #
                  #                Kaiser Wilhelm Platz 1               #
                  #                 D-45470 Muelheim/Ruhr               #
                  #                      Germany                        #
                  #                                                     #
                  #                  All rights reserved                #
                  #                        -***-                        #
                  #######################################################


                         Program Version 4.2.0 -  RELEASE  -


 With contributions from (in alphabetic order):
   Daniel Aravena         : Magnetic Suceptibility
   Michael Atanasov       : Ab Initio Ligand Field Theory (pilot matlab implementation)
   Alexander A. Auer      : GIAO ZORA, VPT2
   Ute Becker             : Parallelization
   Giovanni Bistoni       : ED, misc. LED, open-shell LED, HFLED
   Martin Brehm           : Molecular dynamics
   Dmytro Bykov           : SCF Hessian
   Vijay G. Chilkuri      : MRCI spin determinant printing, contributions to CSF-ICE
   Dipayan Datta          : RHF DLPNO-CCSD density
   Achintya Kumar Dutta   : EOM-CC, STEOM-CC
   Dmitry Ganyushin       : Spin-Orbit,Spin-Spin,Magnetic field MRCI
   Miquel Garcia          : C-PCM Hessian, Gaussian charge scheme
   Yang Guo               : DLPNO-NEVPT2, CIM, IAO-localization
   Andreas Hansen         : Spin unrestricted coupled pair/coupled cluster methods
   Benjamin Helmich-Paris : CASSCF linear response (MC-RPA)
   Lee Huntington         : MR-EOM, pCC
   Robert Izsak           : Overlap fitted RIJCOSX, COSX-SCS-MP3, EOM
   Christian Kollmar      : KDIIS, OOCD, Brueckner-CCSD(T), CCSD density
   Simone Kossmann        : Meta GGA functionals, TD-DFT gradient, OOMP2, MP2 Hessian
   Martin Krupicka        : AUTO-CI
   Lucas Lang             : DCDCAS
   Dagmar Lenk            : GEPOL surface, SMD
   Dimitrios Liakos       : Extrapolation schemes; Compound Job, initial MDCI parallelization
   Dimitrios Manganas     : Further ROCIS development; embedding schemes
   Dimitrios Pantazis     : SARC Basis sets
   Taras Petrenko         : DFT Hessian,TD-DFT gradient, ASA, ECA, R-Raman, ABS, FL, XAS/XES, NRVS
   Peter Pinski           : DLPNO-MP2, DLPNO-MP2 Gradient
   Christoph Reimann      : Effective Core Potentials
   Marius Retegan         : Local ZFS, SOC
   Christoph Riplinger    : Optimizer, TS searches, QM/MM, DLPNO-CCSD(T), (RO)-DLPNO pert. Triples
   Tobias Risthaus        : Range-separated hybrids, TD-DFT gradient, RPA, STAB
   Michael Roemelt        : Original ROCIS implementation
   Masaaki Saitow         : Open-shell DLPNO-CCSD energy and density
   Barbara Sandhoefer     : DKH picture change effects
   Avijit Sen             : IP-ROCIS
   Kantharuban Sivalingam : CASSCF convergence, NEVPT2, FIC-MRCI
   Bernardo de Souza      : ESD, SOC TD-DFT
   Georgi Stoychev        : AutoAux, RI-MP2 NMR
   Willem Van den Heuvel  : Paramagnetic NMR
   Boris Wezisla          : Elementary symmetry handling
   Frank Wennmohs         : Technical directorship


 We gratefully acknowledge several colleagues who have allowed us to
 interface, adapt or use parts of their codes:
   Stefan Grimme, W. Hujo, H. Kruse,             : VdW corrections, initial TS optimization,
                  C. Bannwarth                     DFT functionals, gCP, sTDA/sTD-DF
   Ed Valeev, F. Pavosevic, A. Kumar             : LibInt (2-el integral package), F12 methods
   Garnet Chan, S. Sharma, J. Yang, R. Olivares  : DMRG
   Ulf Ekstrom                                   : XCFun DFT Library
   Mihaly Kallay                                 : mrcc  (arbitrary order and MRCC methods)
   Andreas Klamt, Michael Diedenhofen            : otool_cosmo (COSMO solvation model)
   Jiri Pittner, Ondrej Demel                    : Mk-CCSD
   Frank Weinhold                                : gennbo (NPA and NBO analysis)
   Christopher J. Cramer and Donald G. Truhlar   : smd solvation model
   Lars Goerigk                                  : TD-DFT with DH, B97 family of functionals
   V. Asgeirsson, H. Jonsson                     : NEB implementation
   FAccTs GmbH                                   : IRC, NEB, NEB-TS, Multilevel, MM, QM/MM, CI optimization
   S Lehtola, MJT Oliveira, MAL Marques          : LibXC Library


 Your calculation uses the libint2 library for the computation of 2-el integrals
 For citations please refer to: http://libint.valeyev.net

 Your ORCA version has been built with support for libXC version: 4.2.3
 For citations please refer to: https://tddft.org/programs/libxc/

 This ORCA versions uses:
   CBLAS   interface :  Fast vector & matrix operations
   LAPACKE interface :  Fast linear algebra routines
   SCALAPACK package :  Parallel linear algebra routines


----- Orbital basis set information -----
Your calculation utilizes the basis: def2-TZVP
   F. Weigend and R. Ahlrichs, Phys. Chem. Chem. Phys. 7, 3297 (2005).

----- AuxJ basis set information -----
Your calculation utilizes the auxiliary basis: def2/J
   F. Weigend, Phys. Chem. Chem. Phys. 8, 1057 (2006).

================================================================================
                                        WARNINGS
                       Please study these warnings very carefully!
================================================================================

INFO   : Checking CIS options ...

WARNING: (CIS/TDDFT): Spin-orbit needs TRIPLETS set to TRUE
  ===> : ajusting flags

WARNING: CIS/ROCIS methods need fully converged wavefunctions
  ===> : Setting SCFConvForced true
         You can overwrite this default with %scf ConvForced false 


INFO   : the flag for use of LIBINT has been found!

================================================================================
                                       INPUT FILE
================================================================================
NAME = M34.inp
|  1> # ORCA input file
|  2> # M34.out: Geometry 47
|  3> ! B3LYP def2-TZVP def2/J RIJCOSX Grid4 TightSCF
|  4> 
|  5> %maxcore 6000
|  6> %tddft
|  7>   maxdim 5
|  8>   nroots 3
|  9>   dosoc true
| 10>   end
| 11> %pal
| 12>   nprocs 6
| 13>   end
| 14> 
| 15> 
| 16> * xyz 0 1
| 17>    C       -1.19310        -0.52550         0.10064
| 18>    C       -1.83687        -0.37330         1.37737
| 19>    C       -1.27956        -1.05732         2.48530
| 20>    C       -0.19584        -1.91013         2.26793
| 21>    C        0.42590        -2.07385         0.98579
| 22>    C       -0.12023        -1.38600        -0.11681
| 23>    O        0.40206        -1.54659        -1.36886
| 24>    C       -0.37981        -2.30146        -2.31877
| 25>    O       -1.74950        -0.90359         3.76034
| 26>    C       -1.45244         0.36590         4.38614
| 27>    S        0.52168        -2.90950         3.53991
| 28>    C        1.70295        -3.50520         2.39395
| 29>    C        1.55362        -2.95651         1.09934
| 30>    S       -1.83794         0.52478        -1.16566
| 31>    C       -3.04564         1.09515        -0.05098
| 32>    C       -2.95693         0.52602         1.23609
| 33>    C       -4.15109         1.95932        -0.06087
| 34>    C       -4.73593         1.88007         1.22936
| 35>    N       -4.00170         0.99994         2.02943
| 36>    S       -5.00266         3.00632        -1.13268
| 37>    C       -6.18808         3.35755         0.15045
| 38>    C       -5.88416         2.66920         1.34943
| 39>    C        2.83352        -4.34447         2.35991
| 40>    C        3.35610        -4.25244         1.04165
| 41>    N        2.57551        -3.40401         0.27323
| 42>    S        3.83590        -5.33708         3.36031
| 43>    C        4.98690        -5.57732         2.02158
| 44>    C        4.55936        -4.93569         0.85365
| 45>    C       -7.31767         4.21151         0.07005
| 46>    C       -7.89549         4.93539        -0.95805
| 47>    C        6.13200        -6.39140         2.21673
| 48>    C        7.27516        -6.52747         1.45234
| 49>    C       -7.42980         4.95915        -2.36604
| 50>    C       -8.43629         5.73071        -3.13200
| 51>    C       -9.45489         6.17077        -2.26662
| 52>    C       -9.12145         5.73675        -0.88356
| 53>    C        8.09321        -7.77795         1.61346
| 54>    C        9.00547        -7.81534         0.43459
| 55>    C        8.83883        -6.63796        -0.32261
| 56>    C        7.86393        -5.75595         0.36842
| 57>    C       -8.43604         5.98971        -4.49751
| 58>    C       -9.50766         6.70989        -5.01141
| 59>    C      -10.54964         7.13646        -4.16813
| 60>    C      -10.53855         6.88649        -2.79750
| 61>    C        9.89895        -8.81763         0.06605
| 62>    C       10.63085        -8.63129        -1.10341
| 63>    C       10.47388        -7.45916        -1.86595
| 64>    C        9.59075        -6.45197        -1.48930
| 65>    F       -9.57352         7.00682        -6.30576
| 66>    F      -11.56758         7.79532        -4.71705
| 67>    O       -6.43238         4.44221        -2.83840
| 68>    C       -9.85349         6.07816         0.24118
| 69>    C       -9.47556         5.71796         1.57213
| 70>    C      -11.05966         6.84235         0.17181
| 71>    C       -4.63785         0.24257         3.11332
| 72>    C       -5.61208        -0.80624         2.58066
| 73>    C        3.12451        -2.73003        -0.91138
| 74>    C        3.22218        -3.63265        -2.13411
| 75>    C       -0.70094        -3.71050        -1.85040
| 76>    C        0.01576         0.52562         4.73179
| 77>    O        8.00421        -8.60904         2.49262
| 78>    C        7.73078        -4.39727         0.12022
| 79>    F       11.19619        -7.32114        -2.97412
| 80>    F       11.49045        -9.55405        -1.53000
| 81>    N      -12.04538         7.45648         0.12676
| 82>    N       -9.18438         5.43761         2.66234
| 83>    C        7.06396        -3.50296         1.00871
| 84>    C        8.31766        -3.75730        -1.01452
| 85>    N        8.75798        -3.22887        -1.95183
| 86>    N        6.53598        -2.74419         1.71359
| 87>    H        0.24266        -2.30919        -3.22456
| 88>    H       -1.30612        -1.75106        -2.55445
| 89>    H       -2.07407         0.37957         5.29278
| 90>    H       -1.79633         1.18222         3.72812
| 91>    H       -6.50208         2.78028         2.24126
| 92>    H        5.10554        -5.00022        -0.08355
| 93>    H       -7.82697         4.26602         1.03206
| 94>    H        6.09633        -7.09124         3.06252
| 95>    H       -7.63025         5.63702        -5.14345
| 96>    H      -11.37192         7.25658        -2.20428
| 97>    H       10.02686        -9.71982         0.66683
| 98>    H        9.51750        -5.56876        -2.12011
| 99>    H       -5.14813         0.96537         3.76943
|100>    H       -3.84926        -0.24849         3.69328
|101>    H       -6.41330        -0.34667         1.98120
|102>    H       -6.07795        -1.35451         3.41384
|103>    H       -5.08035        -1.53475         1.94815
|104>    H        4.11858        -2.34076        -0.63360
|105>    H        2.47757        -1.87657        -1.13142
|106>    H        3.84098        -4.52332        -1.94808
|107>    H        3.68111        -3.07790        -2.96669
|108>    H        2.22892        -3.97769        -2.45541
|109>    H        0.21193        -4.26387        -1.58540
|110>    H       -1.21889        -4.25829        -2.65355
|111>    H       -1.35891        -3.70166        -0.96853
|112>    H        0.64108         0.54073         3.82690
|113>    H        0.36088        -0.29551         5.37662
|114>    H        0.16738         1.47625         5.26757
|115> *
|116> 
|117>                          ****END OF INPUT****
================================================================================

                       ****************************
                       * Single Point Calculation *
                       ****************************

---------------------------------
CARTESIAN COORDINATES (ANGSTROEM)
---------------------------------
  C     -1.193100   -0.525500    0.100640
  C     -1.836870   -0.373300    1.377370
  C     -1.279560   -1.057320    2.485300
  C     -0.195840   -1.910130    2.267930
  C      0.425900   -2.073850    0.985790
  C     -0.120230   -1.386000   -0.116810
  O      0.402060   -1.546590   -1.368860
  C     -0.379810   -2.301460   -2.318770
  O     -1.749500   -0.903590    3.760340
  C     -1.452440    0.365900    4.386140
  S      0.521680   -2.909500    3.539910
  C      1.702950   -3.505200    2.393950
  C      1.553620   -2.956510    1.099340
  S     -1.837940    0.524780   -1.165660
  C     -3.045640    1.095150   -0.050980
  C     -2.956930    0.526020    1.236090
  C     -4.151090    1.959320   -0.060870
  C     -4.735930    1.880070    1.229360
  N     -4.001700    0.999940    2.029430
  S     -5.002660    3.006320   -1.132680
  C     -6.188080    3.357550    0.150450
  C     -5.884160    2.669200    1.349430
  C      2.833520   -4.344470    2.359910
  C      3.356100   -4.252440    1.041650
  N      2.575510   -3.404010    0.273230
  S      3.835900   -5.337080    3.360310
  C      4.986900   -5.577320    2.021580
  C      4.559360   -4.935690    0.853650
  C     -7.317670    4.211510    0.070050
  C     -7.895490    4.935390   -0.958050
  C      6.132000   -6.391400    2.216730
  C      7.275160   -6.527470    1.452340
  C     -7.429800    4.959150   -2.366040
  C     -8.436290    5.730710   -3.132000
  C     -9.454890    6.170770   -2.266620
  C     -9.121450    5.736750   -0.883560
  C      8.093210   -7.777950    1.613460
  C      9.005470   -7.815340    0.434590
  C      8.838830   -6.637960   -0.322610
  C      7.863930   -5.755950    0.368420
  C     -8.436040    5.989710   -4.497510
  C     -9.507660    6.709890   -5.011410
  C    -10.549640    7.136460   -4.168130
  C    -10.538550    6.886490   -2.797500
  C      9.898950   -8.817630    0.066050
  C     10.630850   -8.631290   -1.103410
  C     10.473880   -7.459160   -1.865950
  C      9.590750   -6.451970   -1.489300
  F     -9.573520    7.006820   -6.305760
  F    -11.567580    7.795320   -4.717050
  O     -6.432380    4.442210   -2.838400
  C     -9.853490    6.078160    0.241180
  C     -9.475560    5.717960    1.572130
  C    -11.059660    6.842350    0.171810
  C     -4.637850    0.242570    3.113320
  C     -5.612080   -0.806240    2.580660
  C      3.124510   -2.730030   -0.911380
  C      3.222180   -3.632650   -2.134110
  C     -0.700940   -3.710500   -1.850400
  C      0.015760    0.525620    4.731790
  O      8.004210   -8.609040    2.492620
  C      7.730780   -4.397270    0.120220
  F     11.196190   -7.321140   -2.974120
  F     11.490450   -9.554050   -1.530000
  N    -12.045380    7.456480    0.126760
  N     -9.184380    5.437610    2.662340
  C      7.063960   -3.502960    1.008710
  C      8.317660   -3.757300   -1.014520
  N      8.757980   -3.228870   -1.951830
  N      6.535980   -2.744190    1.713590
  H      0.242660   -2.309190   -3.224560
  H     -1.306120   -1.751060   -2.554450
  H     -2.074070    0.379570    5.292780
  H     -1.796330    1.182220    3.728120
  H     -6.502080    2.780280    2.241260
  H      5.105540   -5.000220   -0.083550
  H     -7.826970    4.266020    1.032060
  H      6.096330   -7.091240    3.062520
  H     -7.630250    5.637020   -5.143450
  H    -11.371920    7.256580   -2.204280
  H     10.026860   -9.719820    0.666830
  H      9.517500   -5.568760   -2.120110
  H     -5.148130    0.965370    3.769430
  H     -3.849260   -0.248490    3.693280
  H     -6.413300   -0.346670    1.981200
  H     -6.077950   -1.354510    3.413840
  H     -5.080350   -1.534750    1.948150
  H      4.118580   -2.340760   -0.633600
  H      2.477570   -1.876570   -1.131420
  H      3.840980   -4.523320   -1.948080
  H      3.681110   -3.077900   -2.966690
  H      2.228920   -3.977690   -2.455410
  H      0.211930   -4.263870   -1.585400
  H     -1.218890   -4.258290   -2.653550
  H     -1.358910   -3.701660   -0.968530
  H      0.641080    0.540730    3.826900
  H      0.360880   -0.295510    5.376620
  H      0.167380    1.476250    5.267570

----------------------------
CARTESIAN COORDINATES (A.U.)
----------------------------
  NO LB      ZA    FRAG     MASS         X           Y           Z
   0 C     6.0000    0    12.011   -2.254632   -0.993051    0.190182
   1 C     6.0000    0    12.011   -3.471181   -0.705435    2.602852
   2 C     6.0000    0    12.011   -2.418018   -1.998045    4.696536
   3 C     6.0000    0    12.011   -0.370084   -3.609623    4.285767
   4 C     6.0000    0    12.011    0.804834   -3.919009    1.862873
   5 C     6.0000    0    12.011   -0.227202   -2.619160   -0.220739
   6 O     8.0000    0    15.999    0.759783   -2.922632   -2.586771
   7 C     6.0000    0    12.011   -0.717737   -4.349129   -4.381840
   8 O     8.0000    0    15.999   -3.306076   -1.707538    7.106013
   9 C     6.0000    0    12.011   -2.744714    0.691451    8.288603
  10 S    16.0000    0    32.060    0.985832   -5.498158    6.689460
  11 C     6.0000    0    12.011    3.218109   -6.623868    4.523910
  12 C     6.0000    0    12.011    2.935916   -5.586994    2.077452
  13 S    16.0000    0    32.060   -3.473203    0.991690   -2.202778
  14 C     6.0000    0    12.011   -5.755426    2.069534   -0.096338
  15 C     6.0000    0    12.011   -5.587788    0.994034    2.335872
  16 C     6.0000    0    12.011   -7.844423    3.702578   -0.115028
  17 C     6.0000    0    12.011   -8.949611    3.552817    2.323154
  18 N     7.0000    0    14.007   -7.562117    1.889613    3.835067
  19 S    16.0000    0    32.060   -9.453657    5.681121   -2.140455
  20 C     6.0000    0    12.011  -11.693776    6.344850    0.284309
  21 C     6.0000    0    12.011  -11.119451    5.044057    2.550053
  22 C     6.0000    0    12.011    5.354577   -8.209858    4.459584
  23 C     6.0000    0    12.011    6.342110   -8.035947    1.968433
  24 N     7.0000    0    14.007    4.867009   -6.432647    0.516330
  25 S    16.0000    0    32.060    7.248800  -10.085620    6.350066
  26 C     6.0000    0    12.011    9.423875  -10.539607    3.820233
  27 C     6.0000    0    12.011    8.615942   -9.327102    1.613165
  28 C     6.0000    0    12.011  -13.828392    7.958601    0.132375
  29 C     6.0000    0    12.011  -14.920314    9.326535   -1.810452
  30 C     6.0000    0    12.011   11.587801  -12.077996    4.189013
  31 C     6.0000    0    12.011   13.748060  -12.335131    2.744525
  32 C     6.0000    0    12.011  -14.040287    9.371435   -4.471168
  33 C     6.0000    0    12.011  -15.942278   10.829472   -5.918622
  34 C     6.0000    0    12.011  -17.867153   11.661065   -4.283291
  35 C     6.0000    0    12.011  -17.237042   10.840886   -1.669686
  36 C     6.0000    0    12.011   15.293950  -14.698195    3.048998
  37 C     6.0000    0    12.011   17.017872  -14.768852    0.821256
  38 C     6.0000    0    12.011   16.702968  -12.543926   -0.609645
  39 C     6.0000    0    12.011   14.860674  -10.877169    0.696213
  40 C     6.0000    0    12.011  -15.941805   11.318912   -8.499062
  41 C     6.0000    0    12.011  -17.966874   12.679854   -9.470192
  42 C     6.0000    0    12.011  -19.935930   13.485955   -7.876624
  43 C     6.0000    0    12.011  -19.914973   13.013580   -5.286509
  44 C     6.0000    0    12.011   18.706305  -16.662906    0.124816
  45 C     6.0000    0    12.011   20.089395  -16.310774   -2.085143
  46 C     6.0000    0    12.011   19.792765  -14.095770   -3.526134
  47 C     6.0000    0    12.011   18.123891  -12.192456   -2.814369
  48 F     9.0000    0    18.998  -18.091331   13.240971  -11.916159
  49 F     9.0000    0    18.998  -21.859558   14.731020   -8.913933
  50 O     8.0000    0    15.999  -12.155437    8.394560   -5.363799
  51 C     6.0000    0    12.011  -18.620398   11.486058    0.455764
  52 C     6.0000    0    12.011  -17.906213   10.805378    2.970895
  53 C     6.0000    0    12.011  -20.899729   12.930168    0.324674
  54 C     6.0000    0    12.011   -8.764266    0.458391    5.883322
  55 C     6.0000    0    12.011  -10.605294   -1.523573    4.876741
  56 C     6.0000    0    12.011    5.904468   -5.159009   -1.722259
  57 C     6.0000    0    12.011    6.089038   -6.864714   -4.032883
  58 C     6.0000    0    12.011   -1.324585   -7.011829   -3.496749
  59 C     6.0000    0    12.011    0.029782    0.993278    8.941787
  60 O     8.0000    0    15.999   15.125765  -16.268728    4.710369
  61 C     6.0000    0    12.011   14.609057   -8.309636    0.227183
  62 F     9.0000    0    18.998   21.157733  -13.834950   -5.620272
  63 F     9.0000    0    18.998   21.713804  -18.054538   -2.891281
  64 N     7.0000    0    14.007  -22.762469   14.090705    0.239542
  65 N     7.0000    0    14.007  -17.355963   10.275594    5.031093
  66 C     6.0000    0    12.011   13.348950   -6.619635    1.906186
  67 C     6.0000    0    12.011   15.718099   -7.100268   -1.917165
  68 N     7.0000    0    14.007   16.550184   -6.101680   -3.688424
  69 N     7.0000    0    14.007   12.351212   -5.185768    3.238216
  70 H     1.0000    0     1.008    0.458561   -4.363737   -6.093535
  71 H     1.0000    0     1.008   -2.468209   -3.309024   -4.827211
  72 H     1.0000    0     1.008   -3.919424    0.717283   10.001905
  73 H     1.0000    0     1.008   -3.394572    2.234072    7.045126
  74 H     1.0000    0     1.008  -12.287151    5.253968    4.235368
  75 H     1.0000    0     1.008    9.648072   -9.449046   -0.157887
  76 H     1.0000    0     1.008  -14.790830    8.061609    1.950311
  77 H     1.0000    0     1.008   11.520394  -13.400502    5.787324
  78 H     1.0000    0     1.008  -14.419083   10.652424   -9.719712
  79 H     1.0000    0     1.008  -21.489814   13.712949   -4.165486
  80 H     1.0000    0     1.008   18.948019  -18.367798    1.260126
  81 H     1.0000    0     1.008   17.985468  -10.523431   -4.006427
  82 H     1.0000    0     1.008   -9.728556    1.824285    7.123190
  83 H     1.0000    0     1.008   -7.274047   -0.469578    6.979288
  84 H     1.0000    0     1.008  -12.119381   -0.655111    3.743925
  85 H     1.0000    0     1.008  -11.485661   -2.559653    6.451223
  86 H     1.0000    0     1.008   -9.600470   -2.900257    3.681470
  87 H     1.0000    0     1.008    7.782988   -4.423395   -1.197330
  88 H     1.0000    0     1.008    4.681929   -3.546203   -2.138074
  89 H     1.0000    0     1.008    7.258400   -8.547836   -3.681338
  90 H     1.0000    0     1.008    6.956290   -5.816388   -5.606232
  91 H     1.0000    0     1.008    4.212048   -7.516745   -4.640052
  92 H     1.0000    0     1.008    0.400490   -8.057547   -2.995972
  93 H     1.0000    0     1.008   -2.303368   -8.047002   -5.014483
  94 H     1.0000    0     1.008   -2.567968   -6.995124   -1.830256
  95 H     1.0000    0     1.008    1.211466    1.021832    7.231793
  96 H     1.0000    0     1.008    0.681964   -0.558433   10.160339
  97 H     1.0000    0     1.008    0.316302    2.789708    9.954265

--------------------------------
INTERNAL COORDINATES (ANGSTROEM)
--------------------------------
 C      0   0   0     0.000000000000     0.00000000     0.00000000
 C      1   0   0     1.437930507987     0.00000000     0.00000000
 C      2   1   0     1.416328592312   117.85743706     0.00000000
 C      3   2   1     1.396060045772   118.59896445   355.75966558
 C      4   3   2     1.434310930587   123.05243139     3.36297492
 C      1   2   3     1.392406115112   123.30103667     5.07813832
 O      6   1   2     1.366091210242   120.68823419   176.20500052
 C      7   6   1     1.443425932253   117.22833736   287.10567034
 O      3   2   1     1.367553844680   122.67201969   174.94324006
 C      9   3   2     1.446193328604   115.56537413   288.23194011
 S      4   3   2     1.769606868121   123.21748028   184.41851208
 C     11   4   3     1.750280441672    89.72754014   181.33125590
 C     12  11   4     1.413992651006   113.33500354     0.23448009
 S      1   2   3     1.767037745494   114.20439394   187.41146541
 C     14   1   2     1.739647300259    89.37190403   356.11178576
 C     15  14   1     1.410080709002   114.13248024     0.68998509
 C     15  14   1     1.403177573759   138.10121516   183.15974437
 C     17  15  14     1.418806484691   106.49511195   176.58221046
 N     16  15  14     1.394823599922   109.56628766   182.74876369
 S     17  15  14     1.723414384587   140.15736738   358.89427076
 C     20  17  15     1.781854563706    90.03609081   177.26655003
 C     18  17  15     1.398418783734   112.64490505   181.81570812
 C     12  11   4     1.408446441793   139.49768485   176.46578838
 C     23  12  11     1.421044969345   106.20171963   184.94759140
 N     24  23  12     1.385504785051   110.30211971   359.22809652
 S     23  12  11     1.729404647993   142.49403579   359.46695616
 C     26  23  12     1.781772788685    90.98438912   187.59627063
 C     24  23  12     1.396427294957   114.20973341   174.68233898
 C     21  20  17     1.418338961497   127.42301312   180.00685440
 C     29  21  20     1.383787489754   133.60085509     4.68054520
 C     27  26  23     1.418472339843   119.70291137   180.86014068
 C     31  27  26     1.381890698500   130.40790991   193.88497252
 C     30  29  21     1.483195049142   125.63104826     1.61543828
 C     33  30  29     1.481560554044   106.60816183   173.38461028
 C     34  33  30     1.407153619190   109.67449981     0.49707897
 C     30  29  21     1.466528053363   126.66799929   177.00279074
 C     32  31  27     1.502952323695   118.22216968   201.29708858
 C     37  32  31     1.491090472305   105.61143297   164.72760930
 C     38  37  32     1.409732029146   109.35330171     4.41931911
 C     32  31  27     1.454914358201   133.99928227    14.44271465
 C     34  33  30     1.389855612141   127.21904122   181.56384889
 C     41  34  33     1.389648108983   117.37192714   178.28482162
 C     42  41  34     1.406700196808   120.44242404   359.24120211
 C     43  42  41     1.393281947741   121.96673910     1.47903517
 C     38  37  32     1.392376919552   128.30921494   184.87834167
 C     45  38  37     1.392133936516   117.60408779   178.80547373
 C     46  45  38     1.407123153601   120.53631253     0.75617493
 C     47  46  45     1.391479613757   121.80692965   359.88716634
 F     42  41  34     1.329604033914   120.92622658   179.44184143
 F     43  42  41     1.331018974170   117.99366485   181.56660938
 O     33  30  29     1.218686829994   128.17902519   354.31020611
 C     36  30  29     1.384732254734   128.16388813     9.08304107
 C     52  36  30     1.429686338817   123.66150775     2.34341113
 C     52  36  30     1.429560989220   122.57646582   181.67050775
 C     19  16  15     1.467349198896   124.71533621   149.09523789
 C     55  19  16     1.527368058000   111.92246274   282.61360958
 C     25  24  23     1.469336888702   121.16622757   156.41043033
 C     57  25  24     1.522934977666   113.54045133    78.19547756
 C      8   7   6     1.519173675193   113.36990638   302.27355805
 C     10   9   3     1.516771453087   112.94689033   289.44710378
 O     37  32  31     1.213076211002   127.42928736   346.91484519
 C     40  32  31     1.387567477602   127.85573968    27.64162240
 F     47  46  45     1.329970678399   118.51567485   179.80380333
 F     46  45  38     1.331306578403   121.05500305   180.95463823
 N     54  52  36     1.162251727381   179.29237948   147.38773934
 N     53  52  36     1.162729443594   178.91933479   172.43001435
 C     62  40  32     1.426132451282   123.19296731     6.26053795
 C     62  40  32     1.428854297296   122.76583047   182.58886687
 N     68  62  40     1.162613436788   178.00420875   114.28711318
 N     67  62  40     1.162476067582   178.08822248   166.06196887
 H      8   7   6     1.099083335284   103.84251876   181.03860624
 H      8   7   6     1.102966653394   109.54623725    66.28680262
 H     10   9   3     1.099366551883   104.57406852   168.65861606
 H     10   9   3     1.103462276156   109.10700653    53.50316884
 H     22  18  17     1.090653309581   126.36156424   180.51617604
 H     28  24  23     1.086655673753   125.32862035   178.82026547
 H     29  21  20     1.089872043040   110.62472305   182.90987608
 H     31  27  26     1.098366559305   116.44899913    19.22157252
 H     41  34  33     1.091295672034   121.42896350   358.65656291
 H     44  43  42     1.087833688300   117.99027479   179.25374850
 H     45  38  37     1.091441419683   121.63671793   358.80124723
 H     48  47  46     1.087817412391   118.25870021   179.81506675
 H     55  19  16     1.101501634361   107.58594155   160.07629064
 H     55  19  16     1.095156478911   108.08557991    43.44632424
 H     56  55  19     1.101140483726   111.55421473   300.60392384
 H     56  55  19     1.100828670684   110.36419809   180.31171764
 H     56  55  19     1.101604517556   110.27151993    61.03701039
 H     57  25  24     1.103117412699   107.19056193   315.61845987
 H     57  25  24     1.093317399843   107.41165956   199.80828811
 H     58  57  25     1.100369778665   112.33772914   301.99197219
 H     58  57  25     1.100706029692   109.59263779   182.51435152
 H     58  57  25     1.099477930292   111.26516723    62.78345641
 H     59   8   7     1.099897719699   111.43694174   304.99079565
 H     59   8   7     1.101542558915   109.62397900   184.98405251
 H     59   8   7     1.100316937705   111.47222762    65.59742624
 H     60  10   9     1.100036056954   111.36071993    64.50494385
 H     60  10   9     1.099621762335   111.02674919   303.72010305
 H     60  10   9     1.101701515702   109.56673788   183.99246442

---------------------------
INTERNAL COORDINATES (A.U.)
---------------------------
 C      0   0   0     0.000000000000     0.00000000     0.00000000
 C      1   0   0     2.717294859706     0.00000000     0.00000000
 C      2   1   0     2.676473155112   117.85743706     0.00000000
 C      3   2   1     2.638171153018   118.59896445   355.75966558
 C      4   3   2     2.710454849698   123.05243139     3.36297492
 C      1   2   3     2.631266224758   123.30103667     5.07813832
 O      6   1   2     2.581538261314   120.68823419   176.20500052
 C      7   6   1     2.727679706558   117.22833736   287.10567034
 O      3   2   1     2.584302239837   122.67201969   174.94324006
 C      9   3   2     2.732909327766   115.56537413   288.23194011
 S      4   3   2     3.344072345454   123.21748028   184.41851208
 C     11   4   3     3.307550692319    89.72754014   181.33125590
 C     12  11   4     2.672058865779   113.33500354     0.23448009
 S      1   2   3     3.339217407285   114.20439394   187.41146541
 C     14   1   2     3.287456967106    89.37190403   356.11178576
 C     15  14   1     2.664666366740   114.13248024     0.68998509
 C     15  14   1     2.651621331664   138.10121516   183.15974437
 C     17  15  14     2.681155693097   106.49511195   176.58221046
 N     16  15  14     2.635834608983   109.56628766   182.74876369
 S     17  15  14     3.256781202129   140.15736738   358.89427076
 C     20  17  15     3.367217135882    90.03609081   177.26655003
 C     18  17  15     2.642628521788   112.64490505   181.81570812
 C     12  11   4     2.661578049285   139.49768485   176.46578838
 C     23  12  11     2.685385816048   106.20171963   184.94759140
 N     24  23  12     2.618224600984   110.30211971   359.22809652
 S     23  12  11     3.268101159437   142.49403579   359.46695616
 C     26  23  12     3.367062603489    90.98438912   187.59627063
 C     24  23  12     2.638865153401   114.20973341   174.68233898
 C     21  20  17     2.680272202299   127.42301312   180.00685440
 C     29  21  20     2.614979383182   133.60085509     4.68054520
 C     27  26  23     2.680524250846   119.70291137   180.86014068
 C     31  27  26     2.611394967178   130.40790991   193.88497252
 C     30  29  21     2.802832446067   125.63104826     1.61543828
 C     33  30  29     2.799743697964   106.60816183   173.38461028
 C     34  33  30     2.659134968626   109.67449981     0.49707897
 C     30  29  21     2.771336388568   126.66799929   177.00279074
 C     32  31  27     2.840168284124   118.22216968   201.29708858
 C     37  32  31     2.817752633557   105.61143297   164.72760930
 C     38  37  32     2.664007457303   109.35330171     4.41931911
 C     32  31  27     2.749389685310   133.99928227    14.44271465
 C     34  33  30     2.626446472640   127.21904122   181.56384889
 C     41  34  33     2.626054348499   117.37192714   178.28482162
 C     42  41  34     2.658278124500   120.44242404   359.24120211
 C     43  42  41     2.632921308566   121.96673910     1.47903517
 C     38  37  32     2.631211053145   128.30921494   184.87834167
 C     45  38  37     2.630751881753   117.60408779   178.80547373
 C     46  45  38     2.659077397005   120.53631253     0.75617493
 C     47  46  45     2.629515390934   121.80692965   359.88716634
 F     42  41  34     2.512587490654   120.92622658   179.44184143
 F     43  42  41     2.515261340234   117.99366485   181.56660938
 O     33  30  29     2.302984351705   128.17902519   354.31020611
 C     36  30  29     2.616764730254   128.16388813     9.08304107
 C     52  36  30     2.701715637773   123.66150775     2.34341113
 C     52  36  30     2.701478761364   122.57646582   181.67050775
 C     19  16  15     2.772888128742   124.71533621   149.09523789
 C     55  19  16     2.886307335320   111.92246274   282.61360958
 C     25  24  23     2.776644318114   121.16622757   156.41043033
 C     57  25  24     2.877930027559   113.54045133    78.19547756
 C      8   7   6     2.870822195978   113.36990638   302.27355805
 C     10   9   3     2.866282654084   112.94689033   289.44710378
 O     37  32  31     2.292381818369   127.42928736   346.91484519
 C     40  32  31     2.622122525005   127.85573968    27.64162240
 F     47  46  45     2.513280348319   118.51567485   179.80380333
 F     46  45  38     2.515804833470   121.05500305   180.95463823
 N     54  52  36     2.196337463427   179.29237948   147.38773934
 N     53  52  36     2.197240216239   178.91933479   172.43001435
 C     62  40  32     2.694999763621   123.19296731     6.26053795
 C     62  40  32     2.700143307165   122.76583047   182.58886687
 N     68  62  40     2.197020995146   178.00420875   114.28711318
 N     67  62  40     2.196761404967   178.08822248   166.06196887
 H      8   7   6     2.076966502044   103.84251876   181.03860624
 H      8   7   6     2.084304909763   109.54623725    66.28680262
 H     10   9   3     2.077501703853   104.57406852   168.65861606
 H     10   9   3     2.085241501049   109.10700653    53.50316884
 H     22  18  17     2.061036062163   126.36156424   180.51617604
 H     28  24  23     2.053481625265   125.32862035   178.82026547
 H     29  21  20     2.059559682363   110.62472305   182.90987608
 H     31  27  26     2.075611991744   116.44899913    19.22157252
 H     41  34  33     2.062249951278   121.42896350   358.65656291
 H     44  43  42     2.055707750140   117.99027479   179.25374850
 H     45  38  37     2.062525374419   121.63671793   358.80124723
 H     48  47  46     2.055676993129   118.25870021   179.81506675
 H     55  19  16     2.081536425009   107.58594155   160.07629064
 H     55  19  16     2.069545818931   108.08557991    43.44632424
 H     56  55  19     2.080853949215   111.55421473   300.60392384
 H     56  55  19     2.080264707961   110.36419809   180.31171764
 H     56  55  19     2.081730846071   110.27151993    61.03701039
 H     57  25  24     2.084589803561   107.19056193   315.61845987
 H     57  25  24     2.066070463155   107.41165956   199.80828811
 H     58  57  25     2.079397527721   112.33772914   301.99197219
 H     58  57  25     2.080032950073   109.59263779   182.51435152
 H     58  57  25     2.077712178543   111.26516723    62.78345641
 H     59   8   7     2.078505465556   111.43694174   304.99079565
 H     59   8   7     2.081613761207   109.62397900   184.98405251
 H     59   8   7     2.079297672777   111.47222762    65.59742624
 H     60  10   9     2.078766885083   111.36071993    64.50494385
 H     60  10   9     2.077983981712   111.02674919   303.72010305
 H     60  10   9     2.081914146003   109.56673788   183.99246442

---------------------
BASIS SET INFORMATION
---------------------
There are 6 groups of distinct atoms

 Group   1 Type C   : 11s6p2d1f contracted to 5s3p2d1f pattern {62111/411/11/1}
 Group   2 Type O   : 11s6p2d1f contracted to 5s3p2d1f pattern {62111/411/11/1}
 Group   3 Type S   : 14s9p3d1f contracted to 5s5p2d1f pattern {73211/51111/21/1}
 Group   4 Type N   : 11s6p2d1f contracted to 5s3p2d1f pattern {62111/411/11/1}
 Group   5 Type F   : 11s6p2d1f contracted to 5s3p2d1f pattern {62111/411/11/1}
 Group   6 Type H   : 5s1p contracted to 3s1p pattern {311/1}

Atom   0C    basis set group =>   1
Atom   1C    basis set group =>   1
Atom   2C    basis set group =>   1
Atom   3C    basis set group =>   1
Atom   4C    basis set group =>   1
Atom   5C    basis set group =>   1
Atom   6O    basis set group =>   2
Atom   7C    basis set group =>   1
Atom   8O    basis set group =>   2
Atom   9C    basis set group =>   1
Atom  10S    basis set group =>   3
Atom  11C    basis set group =>   1
Atom  12C    basis set group =>   1
Atom  13S    basis set group =>   3
Atom  14C    basis set group =>   1
Atom  15C    basis set group =>   1
Atom  16C    basis set group =>   1
Atom  17C    basis set group =>   1
Atom  18N    basis set group =>   4
Atom  19S    basis set group =>   3
Atom  20C    basis set group =>   1
Atom  21C    basis set group =>   1
Atom  22C    basis set group =>   1
Atom  23C    basis set group =>   1
Atom  24N    basis set group =>   4
Atom  25S    basis set group =>   3
Atom  26C    basis set group =>   1
Atom  27C    basis set group =>   1
Atom  28C    basis set group =>   1
Atom  29C    basis set group =>   1
Atom  30C    basis set group =>   1
Atom  31C    basis set group =>   1
Atom  32C    basis set group =>   1
Atom  33C    basis set group =>   1
Atom  34C    basis set group =>   1
Atom  35C    basis set group =>   1
Atom  36C    basis set group =>   1
Atom  37C    basis set group =>   1
Atom  38C    basis set group =>   1
Atom  39C    basis set group =>   1
Atom  40C    basis set group =>   1
Atom  41C    basis set group =>   1
Atom  42C    basis set group =>   1
Atom  43C    basis set group =>   1
Atom  44C    basis set group =>   1
Atom  45C    basis set group =>   1
Atom  46C    basis set group =>   1
Atom  47C    basis set group =>   1
Atom  48F    basis set group =>   5
Atom  49F    basis set group =>   5
Atom  50O    basis set group =>   2
Atom  51C    basis set group =>   1
Atom  52C    basis set group =>   1
Atom  53C    basis set group =>   1
Atom  54C    basis set group =>   1
Atom  55C    basis set group =>   1
Atom  56C    basis set group =>   1
Atom  57C    basis set group =>   1
Atom  58C    basis set group =>   1
Atom  59C    basis set group =>   1
Atom  60O    basis set group =>   2
Atom  61C    basis set group =>   1
Atom  62F    basis set group =>   5
Atom  63F    basis set group =>   5
Atom  64N    basis set group =>   4
Atom  65N    basis set group =>   4
Atom  66C    basis set group =>   1
Atom  67C    basis set group =>   1
Atom  68N    basis set group =>   4
Atom  69N    basis set group =>   4
Atom  70H    basis set group =>   6
Atom  71H    basis set group =>   6
Atom  72H    basis set group =>   6
Atom  73H    basis set group =>   6
Atom  74H    basis set group =>   6
Atom  75H    basis set group =>   6
Atom  76H    basis set group =>   6
Atom  77H    basis set group =>   6
Atom  78H    basis set group =>   6
Atom  79H    basis set group =>   6
Atom  80H    basis set group =>   6
Atom  81H    basis set group =>   6
Atom  82H    basis set group =>   6
Atom  83H    basis set group =>   6
Atom  84H    basis set group =>   6
Atom  85H    basis set group =>   6
Atom  86H    basis set group =>   6
Atom  87H    basis set group =>   6
Atom  88H    basis set group =>   6
Atom  89H    basis set group =>   6
Atom  90H    basis set group =>   6
Atom  91H    basis set group =>   6
Atom  92H    basis set group =>   6
Atom  93H    basis set group =>   6
Atom  94H    basis set group =>   6
Atom  95H    basis set group =>   6
Atom  96H    basis set group =>   6
Atom  97H    basis set group =>   6
---------------------------------
AUXILIARY/J BASIS SET INFORMATION
---------------------------------
There are 6 groups of distinct atoms

 Group   1 Type C   : 12s5p4d2f1g contracted to 6s4p3d1f1g pattern {711111/2111/211/2/1}
 Group   2 Type O   : 12s5p4d2f1g contracted to 6s4p3d1f1g pattern {711111/2111/211/2/1}
 Group   3 Type S   : 14s5p5d2f1g contracted to 8s4p3d1f1g pattern {71111111/2111/311/2/1}
 Group   4 Type N   : 12s5p4d2f1g contracted to 6s4p3d1f1g pattern {711111/2111/211/2/1}
 Group   5 Type F   : 12s5p4d2f1g contracted to 6s4p3d1f1g pattern {711111/2111/211/2/1}
 Group   6 Type H   : 5s2p1d contracted to 3s1p1d pattern {311/2/1}

Atom   0C    basis set group =>   1
Atom   1C    basis set group =>   1
Atom   2C    basis set group =>   1
Atom   3C    basis set group =>   1
Atom   4C    basis set group =>   1
Atom   5C    basis set group =>   1
Atom   6O    basis set group =>   2
Atom   7C    basis set group =>   1
Atom   8O    basis set group =>   2
Atom   9C    basis set group =>   1
Atom  10S    basis set group =>   3
Atom  11C    basis set group =>   1
Atom  12C    basis set group =>   1
Atom  13S    basis set group =>   3
Atom  14C    basis set group =>   1
Atom  15C    basis set group =>   1
Atom  16C    basis set group =>   1
Atom  17C    basis set group =>   1
Atom  18N    basis set group =>   4
Atom  19S    basis set group =>   3
Atom  20C    basis set group =>   1
Atom  21C    basis set group =>   1
Atom  22C    basis set group =>   1
Atom  23C    basis set group =>   1
Atom  24N    basis set group =>   4
Atom  25S    basis set group =>   3
Atom  26C    basis set group =>   1
Atom  27C    basis set group =>   1
Atom  28C    basis set group =>   1
Atom  29C    basis set group =>   1
Atom  30C    basis set group =>   1
Atom  31C    basis set group =>   1
Atom  32C    basis set group =>   1
Atom  33C    basis set group =>   1
Atom  34C    basis set group =>   1
Atom  35C    basis set group =>   1
Atom  36C    basis set group =>   1
Atom  37C    basis set group =>   1
Atom  38C    basis set group =>   1
Atom  39C    basis set group =>   1
Atom  40C    basis set group =>   1
Atom  41C    basis set group =>   1
Atom  42C    basis set group =>   1
Atom  43C    basis set group =>   1
Atom  44C    basis set group =>   1
Atom  45C    basis set group =>   1
Atom  46C    basis set group =>   1
Atom  47C    basis set group =>   1
Atom  48F    basis set group =>   5
Atom  49F    basis set group =>   5
Atom  50O    basis set group =>   2
Atom  51C    basis set group =>   1
Atom  52C    basis set group =>   1
Atom  53C    basis set group =>   1
Atom  54C    basis set group =>   1
Atom  55C    basis set group =>   1
Atom  56C    basis set group =>   1
Atom  57C    basis set group =>   1
Atom  58C    basis set group =>   1
Atom  59C    basis set group =>   1
Atom  60O    basis set group =>   2
Atom  61C    basis set group =>   1
Atom  62F    basis set group =>   5
Atom  63F    basis set group =>   5
Atom  64N    basis set group =>   4
Atom  65N    basis set group =>   4
Atom  66C    basis set group =>   1
Atom  67C    basis set group =>   1
Atom  68N    basis set group =>   4
Atom  69N    basis set group =>   4
Atom  70H    basis set group =>   6
Atom  71H    basis set group =>   6
Atom  72H    basis set group =>   6
Atom  73H    basis set group =>   6
Atom  74H    basis set group =>   6
Atom  75H    basis set group =>   6
Atom  76H    basis set group =>   6
Atom  77H    basis set group =>   6
Atom  78H    basis set group =>   6
Atom  79H    basis set group =>   6
Atom  80H    basis set group =>   6
Atom  81H    basis set group =>   6
Atom  82H    basis set group =>   6
Atom  83H    basis set group =>   6
Atom  84H    basis set group =>   6
Atom  85H    basis set group =>   6
Atom  86H    basis set group =>   6
Atom  87H    basis set group =>   6
Atom  88H    basis set group =>   6
Atom  89H    basis set group =>   6
Atom  90H    basis set group =>   6
Atom  91H    basis set group =>   6
Atom  92H    basis set group =>   6
Atom  93H    basis set group =>   6
Atom  94H    basis set group =>   6
Atom  95H    basis set group =>   6
Atom  96H    basis set group =>   6
Atom  97H    basis set group =>   6


           ************************************************************
           *        Program running with 6 parallel MPI-processes     *
           *              working on a common directory               *
           ************************************************************
------------------------------------------------------------------------------
                           ORCA GTO INTEGRAL CALCULATION
                           -- RI-GTO INTEGRALS CHOSEN --
------------------------------------------------------------------------------

                         BASIS SET STATISTICS AND STARTUP INFO

Gaussian basis set:
 # of primitive gaussian shells          ... 1596
 # of primitive gaussian functions       ... 3512
 # of contracted shells                  ...  890
 # of contracted basis functions         ... 2362
 Highest angular momentum                ...    3
 Maximum contraction depth               ...    7
Auxiliary gaussian basis set:
 # of primitive gaussian shells          ... 1916
 # of primitive gaussian functions       ... 5376
 # of contracted shells                  ... 1198
 # of contracted aux-basis functions     ... 3746
 Highest angular momentum                ...    4
 Maximum contraction depth               ...    7
Ratio of auxiliary to basis functions    ...  1.59
Integral package used                  ... LIBINT
 One Electron integrals                  ... done
 Ordering auxiliary basis shells         ... done
 Integral threshhold             Thresh  ...  2.500e-11
 Primitive cut-off               TCut    ...  2.500e-12
 Pre-screening matrix                    ... done
 Shell pair data                         ... 
 Ordering of the shell pairs             ... done (   0.029 sec) 132013 of 396495 pairs
 Determination of significant pairs      ... done (   0.001 sec)
 Creation of shell pair data             ... done (   0.014 sec)
 Storage of shell pair data              ... done (   0.020 sec)
 Shell pair data done in (   0.064 sec)
 Computing two index integrals           ... done
 Cholesky decomposition of the V-matrix  ... done


Timings:
 Total evaluation time                   ...   6.160 sec (  0.103 min)
 One electron matrix time                ...   2.026 sec (  0.034 min) = 32.9%
 Schwartz matrix evaluation time         ...   3.198 sec (  0.053 min) = 51.9%
 Two index repulsion integral time       ...   0.326 sec (  0.005 min) =  5.3%
 Cholesky decomposition of V             ...   0.529 sec (  0.009 min) =  8.6%
 Three index repulsion integral time     ...   0.000 sec (  0.000 min) =  0.0%



           ************************************************************
           *        Program running with 6 parallel MPI-processes     *
           *              working on a common directory               *
           ************************************************************
-------------------------------------------------------------------------------
                                 ORCA SCF
-------------------------------------------------------------------------------

------------
SCF SETTINGS
------------
Hamiltonian:
 Density Functional     Method          .... DFT(GTOs)
 Exchange Functional    Exchange        .... B88
   X-Alpha parameter    XAlpha          ....  0.666667
   Becke's b parameter  XBeta           ....  0.004200
 Correlation Functional Correlation     .... LYP
 LDA part of GGA corr.  LDAOpt          .... VWN-5
 Gradients option       PostSCFGGA      .... off
 Hybrid DFT is turned on
   Fraction HF Exchange ScalHFX         ....  0.200000
   Scaling of DF-GGA-X  ScalDFX         ....  0.720000
   Scaling of DF-GGA-C  ScalDFC         ....  0.810000
   Scaling of DF-LDA-C  ScalLDAC        ....  1.000000
   Perturbative correction              ....  0.000000
   Density functional embedding theory  .... OFF
   NL short-range parameter             ....  4.800000
 RI-approximation to the Coulomb term is turned on
   Number of auxiliary basis functions  .... 3746
   RIJ-COSX (HFX calculated with COS-X)).... on


General Settings:
 Integral files         IntName         .... M34
 Hartree-Fock type      HFTyp           .... RHF
 Total Charge           Charge          ....    0
 Multiplicity           Mult            ....    1
 Number of Electrons    NEL             ....  514
 Basis Dimension        Dim             .... 2362
 Nuclear Repulsion      ENuc            ....  10417.4710588677 Eh

Convergence Acceleration:
 DIIS                   CNVDIIS         .... on
   Start iteration      DIISMaxIt       ....    12
   Startup error        DIISStart       ....  0.200000
   # of expansion vecs  DIISMaxEq       ....     5
   Bias factor          DIISBfac        ....   1.050
   Max. coefficient     DIISMaxC        ....  10.000
 Newton-Raphson         CNVNR           .... off
 SOSCF                  CNVSOSCF        .... on
   Start iteration      SOSCFMaxIt      ....   150
   Startup grad/error   SOSCFStart      ....  0.003300
 Level Shifting         CNVShift        .... on
   Level shift para.    LevelShift      ....    0.2500
   Turn off err/grad.   ShiftErr        ....    0.0010
 Zerner damping         CNVZerner       .... off
 Static damping         CNVDamp         .... on
   Fraction old density DampFac         ....    0.7000
   Max. Damping (<1)    DampMax         ....    0.9800
   Min. Damping (>=0)   DampMin         ....    0.0000
   Turn off err/grad.   DampErr         ....    0.1000
 Fernandez-Rico         CNVRico         .... off

SCF Procedure:
 Maximum # iterations   MaxIter         ....   125
 SCF integral mode      SCFMode         .... Direct
   Integral package                     .... LIBINT
 Reset frequency        DirectResetFreq ....    20
 Integral Threshold     Thresh          ....  2.500e-11 Eh
 Primitive CutOff       TCut            ....  2.500e-12 Eh

Convergence Tolerance:
 Convergence Check Mode ConvCheckMode   .... Total+1el-Energy
 Convergence forced     ConvForced      .... 1
 Energy Change          TolE            ....  1.000e-08 Eh
 1-El. energy change                    ....  1.000e-05 Eh
 Orbital Gradient       TolG            ....  1.000e-05
 Orbital Rotation angle TolX            ....  1.000e-05
 DIIS Error             TolErr          ....  5.000e-07


Diagonalization of the overlap matrix:
Smallest eigenvalue                        ... 3.851e-06
Time for diagonalization                   ...    0.942 sec
Threshold for overlap eigenvalues          ... 1.000e-08
Number of eigenvalues below threshold      ... 0
Time for construction of square roots      ...    0.694 sec
Total time needed                          ...    1.648 sec

-------------------
DFT GRID GENERATION
-------------------

General Integration Accuracy     IntAcc      ...  4.670
Radial Grid Type                 RadialGrid  ... Gauss-Chebyshev
Angular Grid (max. acc.)         AngularGrid ... Lebedev-302
Angular grid pruning method      GridPruning ... 3 (G Style)
Weight generation scheme         WeightScheme... Becke
Basis function cutoff            BFCut       ...    1.0000e-11
Integration weight cutoff        WCut        ...    1.0000e-14
Grids for H and He will be reduced by one unit

# of grid points (after initial pruning)     ... 532648 (   0.0 sec)
# of grid points (after weights+screening)   ... 455147 (   3.4 sec)
nearest neighbour list constructed           ...    0.0 sec
Grid point re-assignment to atoms done       ...    0.1 sec
Grid point division into batches done        ...    1.6 sec
Reduced shell lists constructed in    3.9 sec

Total number of grid points                  ...   455147
Total number of batches                      ...     7165
Average number of points per batch           ...       63
Average number of grid points per atom       ...     4644
Average number of shells per batch           ...   216.57 (24.33%)
Average number of basis functions per batch  ...   542.38 (22.96%)
Average number of large shells per batch     ...   131.60 (60.77%)
Average number of large basis fcns per batch ...   336.69 (62.08%)
Maximum spatial batch extension              ...  16.02, 16.99, 18.38 au
Average spatial batch extension              ...   0.27,  0.28,  0.27 au

Time for grid setup =    7.389 sec

------------------------------
INITIAL GUESS: MODEL POTENTIAL
------------------------------
Loading Hartree-Fock densities                     ... done
Calculating cut-offs                               ... done
Setting up the integral package                    ... done
Initializing the effective Hamiltonian             ... done
Starting the Coulomb interaction                   ... done (   4.0 sec)
Reading the grid                                   ... done
Mapping shells                                     ... done
Starting the XC term evaluation                    ... done (   3.6 sec)
  promolecular density results
     # of electrons  =    513.985921452
     EX              =   -488.249470416
     EC              =    -18.327629961
     EX+EC           =   -506.577100377
Transforming the Hamiltonian                       ... done (   0.5 sec)
Diagonalizing the Hamiltonian                      ... done (   0.9 sec)
Back transforming the eigenvectors                 ... done (   0.3 sec)
Now organizing SCF variables                       ... done
                      ------------------
                      INITIAL GUESS DONE (  17.0 sec)
                      ------------------
--------------------
COSX GRID GENERATION
--------------------

General Integration Accuracy     IntAcc      ...  3.340
Radial Grid Type                 RadialGrid  ... Gauss-Chebyshev
Angular Grid (max. acc.)         AngularGrid ... Lebedev-50
Angular grid pruning method      GridPruning ... 3 (G Style)
Weight generation scheme         WeightScheme... Becke
Basis function cutoff            BFCut       ...    1.0000e-11
Integration weight cutoff        WCut        ...    1.0000e-14
Grids for H and He will be reduced by one unit

# of grid points (after initial pruning)     ...  49980 (   0.0 sec)
# of grid points (after weights+screening)   ...  44658 (   0.3 sec)
nearest neighbour list constructed           ...    0.0 sec
Grid point re-assignment to atoms done       ...    0.0 sec
Grid point division into batches done        ...    0.0 sec
Reduced shell lists constructed in    0.3 sec

Total number of grid points                  ...    44658
Total number of batches                      ...      753
Average number of points per batch           ...       59
Average number of grid points per atom       ...      456
Average number of shells per batch           ...   251.43 (28.25%)
Average number of basis functions per batch  ...   637.43 (26.99%)
Average number of large shells per batch     ...   153.74 (61.15%)
Average number of large basis fcns per batch ...   396.91 (62.27%)
Maximum spatial batch extension              ...  16.36, 23.28, 16.95 au
Average spatial batch extension              ...   0.53,  0.58,  0.53 au

Overlap Fitting                  UseSFitting ... on
Constructing numerical overlap ... done (      0.3 sec)
Inverting numerical overlap    ... done (      0.2 sec)
Obtaining analytic overlap     ... done (      0.0 sec)
Final contraction and storage  ... done (      0.4 sec)


General Integration Accuracy     IntAcc      ...  3.670
Radial Grid Type                 RadialGrid  ... Gauss-Chebyshev
Angular Grid (max. acc.)         AngularGrid ... Lebedev-50
Angular grid pruning method      GridPruning ... 3 (G Style)
Weight generation scheme         WeightScheme... Becke
Basis function cutoff            BFCut       ...    1.0000e-11
Integration weight cutoff        WCut        ...    1.0000e-14
Grids for H and He will be reduced by one unit

# of grid points (after initial pruning)     ...  62380 (   0.0 sec)
# of grid points (after weights+screening)   ...  55483 (   0.4 sec)
nearest neighbour list constructed           ...    0.0 sec
Grid point re-assignment to atoms done       ...    0.0 sec
Grid point division into batches done        ...    0.0 sec
Reduced shell lists constructed in    0.4 sec

Total number of grid points                  ...    55483
Total number of batches                      ...      920
Average number of points per batch           ...       60
Average number of grid points per atom       ...      566
Average number of shells per batch           ...   247.99 (27.86%)
Average number of basis functions per batch  ...   628.28 (26.60%)
Average number of large shells per batch     ...   151.37 (61.04%)
Average number of large basis fcns per batch ...   390.25 (62.11%)
Maximum spatial batch extension              ...  17.55, 21.76, 18.14 au
Average spatial batch extension              ...   0.49,  0.56,  0.51 au

Overlap Fitting                  UseSFitting ... on
Constructing numerical overlap ... done (      0.4 sec)
Inverting numerical overlap    ... done (      0.2 sec)
Obtaining analytic overlap     ... done (      0.0 sec)
Final contraction and storage  ... done (      0.4 sec)


General Integration Accuracy     IntAcc      ...  4.010
Radial Grid Type                 RadialGrid  ... Gauss-Chebyshev
Angular Grid (max. acc.)         AngularGrid ... Lebedev-110
Angular grid pruning method      GridPruning ... 3 (G Style)
Weight generation scheme         WeightScheme... Becke
Basis function cutoff            BFCut       ...    1.0000e-11
Integration weight cutoff        WCut        ...    1.0000e-14
Grids for H and He will be reduced by one unit

# of grid points (after initial pruning)     ... 121848 (   0.0 sec)
# of grid points (after weights+screening)   ... 107395 (   0.8 sec)
nearest neighbour list constructed           ...    0.0 sec
Grid point re-assignment to atoms done       ...    0.0 sec
Grid point division into batches done        ...    0.1 sec
Reduced shell lists constructed in    0.7 sec

Total number of grid points                  ...   107395
Total number of batches                      ...     1725
Average number of points per batch           ...       62
Average number of grid points per atom       ...     1096
Average number of shells per batch           ...   237.50 (26.69%)
Average number of basis functions per batch  ...   600.04 (25.40%)
Average number of large shells per batch     ...   145.63 (61.32%)
Average number of large basis fcns per batch ...   374.96 (62.49%)
Maximum spatial batch extension              ...  12.99, 15.23, 18.17 au
Average spatial batch extension              ...   0.43,  0.47,  0.44 au

Overlap Fitting                  UseSFitting ... on
Constructing numerical overlap ... done (      0.6 sec)
Inverting numerical overlap    ... done (      0.2 sec)
Obtaining analytic overlap     ... done (      0.0 sec)
Final contraction and storage  ... done (      0.4 sec)

Time for X-Grid setup             =    6.431 sec
--------------
SCF ITERATIONS
--------------
ITER       Energy         Delta-E        Max-DP      RMS-DP      [F,P]     Damp
               ***  Starting incremental Fock matrix formation  ***
  0  -4617.5238502250   0.000000000000 0.15435382  0.00091651  0.3064127 0.7000
  1  -4618.2834179385  -0.759567713514 0.13201724  0.00076085  0.1013094 0.7000
                               ***Turning on DIIS***
  2  -4618.5461264568  -0.262708518298 0.13767237  0.00099425  0.0438330 0.0000
  3  -4619.0074688867  -0.461342429930 0.13443634  0.00074131  0.0562426 0.0000
  4  -4619.0937322205  -0.086263333771 0.03455747  0.00020869  0.0367020 0.0000
  5  -4619.1058523405  -0.012120119965 0.01961387  0.00009430  0.0091846 0.0000
                      *** Initiating the SOSCF procedure ***
                           *** Shutting down DIIS ***
                      *** Re-Reading the Fockian *** 
                      *** Removing any level shift *** 
ITER      Energy       Delta-E        Grad      Rot      Max-DP    RMS-DP
  6  -4619.10677949  -0.0009271449  0.001053  0.001053  0.006404  0.000028
               *** Restarting incremental Fock matrix formation ***
  7  -4619.10688991  -0.0001104201  0.000580  0.006656  0.007920  0.000044
  8  -4619.10691060  -0.0000206974  0.000352  0.006163  0.004322  0.000025
  9  -4619.10692010  -0.0000094986  0.000561  0.004801  0.004011  0.000022
 10  -4619.10692952  -0.0000094197  0.000207  0.000981  0.001760  0.000010
 11  -4619.10693136  -0.0000018403  0.000186  0.001357  0.001592  0.000008
 12  -4619.10693342  -0.0000020554  0.000116  0.000473  0.001187  0.000005
 13  -4619.10693373  -0.0000003095  0.000063  0.000591  0.000824  0.000005
 14  -4619.10693461  -0.0000008854  0.000029  0.000187  0.000310  0.000002
 15  -4619.10693456   0.0000000527  0.000032  0.000247  0.000296  0.000002
 16  -4619.10693474  -0.0000001795  0.000009  0.000044  0.000290  0.000001
 17  -4619.10693477  -0.0000000283  0.000014  0.000059  0.000124  0.000001
 18  -4619.10693484  -0.0000000758  0.000006  0.000027  0.000360  0.000001
 19  -4619.10693477   0.0000000693  0.000009  0.000017  0.000105  0.000000
                  ***Gradient check signals convergence***
              ***Rediagonalizing the Fockian in SOSCF/NRSCF***

               *****************************************************
               *                     SUCCESS                       *
               *           SCF CONVERGED AFTER  20 CYCLES          *
               *****************************************************

Setting up the final grid:

General Integration Accuracy     IntAcc      ...  5.010
Radial Grid Type                 RadialGrid  ... Gauss-Chebyshev
Angular Grid (max. acc.)         AngularGrid ... Lebedev-434
Angular grid pruning method      GridPruning ... 3 (G Style)
Weight generation scheme         WeightScheme... Becke
Basis function cutoff            BFCut       ...    1.0000e-11
Integration weight cutoff        WCut        ...    1.0000e-14
Grids for H and He will be reduced by one unit

# of grid points (after initial pruning)     ... 940812 (   0.1 sec)
# of grid points (after weights+screening)   ... 801047 (   5.8 sec)
nearest neighbour list constructed           ...    0.0 sec
Grid point re-assignment to atoms done       ...    0.1 sec
Grid point division into batches done        ...    5.2 sec
Reduced shell lists constructed in    8.7 sec

Total number of grid points                  ...   801047
Total number of batches                      ...    12569
Average number of points per batch           ...       63
Average number of grid points per atom       ...     8174
Average number of shells per batch           ...   210.51 (23.65%)
Average number of basis functions per batch  ...   525.38 (22.24%)
Average number of large shells per batch     ...   127.50 (60.57%)
Average number of large basis fcns per batch ...   325.79 (62.01%)
Maximum spatial batch extension              ...  15.99, 17.25, 18.13 au
Average spatial batch extension              ...   0.22,  0.23,  0.22 au

Final grid set up in   14.7 sec
Final integration                            ... done (   8.2 sec)
Change in XC energy                          ...    -0.000061462
Integrated number of electrons               ...   513.999880714
Previous integrated no of electrons          ...   513.999762048
Old exchange energy                            =    -98.470851683 Eh
New exchange energy                            =    -98.472129332 Eh
Exchange energy change after final integration =     -0.001277649 Eh
Total energy after final integration           =  -4619.108273897 Eh
Final COS-X integration done in                =   241.454 sec

----------------
TOTAL SCF ENERGY
----------------

Total Energy       :        -4619.10827390 Eh         -125692.32621 eV

Components:
Nuclear Repulsion  :        10417.47105887 Eh          283473.79904 eV
Electronic Energy  :       -15036.57933276 Eh         -409166.12525 eV
One Electron Energy:       -27079.08517002 Eh         -736859.36868 eV
Two Electron Energy:        12042.50583726 Eh          327693.24343 eV

Virial components:
Potential Energy   :        -9221.68899864 Eh         -250934.91494 eV
Kinetic Energy     :         4602.58072474 Eh          125242.58873 eV
Virial Ratio       :            2.00359093


DFT components:
N(Alpha)           :      256.999940357161 electrons
N(Beta)            :      256.999940357161 electrons
N(Total)           :      513.999880714323 electrons
E(X)               :     -391.628514367973 Eh       
E(C)               :      -21.512238532016 Eh       
E(XC)              :     -413.140752899989 Eh       
DFET-embed. en.    :        0.000000000000 Eh       

---------------
SCF CONVERGENCE
---------------

  Last Energy change         ...   -1.3137e-08  Tolerance :   1.0000e-08
  Last MAX-Density change    ...    3.8858e-15  Tolerance :   1.0000e-07
  Last RMS-Density change    ...    1.2207e-17  Tolerance :   5.0000e-09
  Last Orbital Gradient      ...    9.5838e-07  Tolerance :   1.0000e-05
  Last Orbital Rotation      ...    7.8446e-06  Tolerance :   1.0000e-05

             **** THE GBW FILE WAS UPDATED (M34.gbw) ****
             **** DENSITY FILE WAS UPDATED (M34.scfp) ****
             **** ENERGY FILE WAS UPDATED (M34.en.tmp) ****
             **** THE GBW FILE WAS UPDATED (M34.gbw) ****
             **** DENSITY FILE WAS UPDATED (M34.scfp) ****
----------------
ORBITAL ENERGIES
----------------

  NO   OCC          E(Eh)            E(eV) 
   0   2.0000     -88.911543     -2419.4061 
   1   2.0000     -88.907942     -2419.3081 
   2   2.0000     -88.906180     -2419.2602 
   3   2.0000     -88.906105     -2419.2581 
   4   2.0000     -24.727304      -672.8641 
   5   2.0000     -24.726313      -672.8372 
   6   2.0000     -24.726276      -672.8362 
   7   2.0000     -24.724011      -672.7745 
   8   2.0000     -19.178006      -521.8601 
   9   2.0000     -19.177343      -521.8420 
  10   2.0000     -19.136046      -520.7183 
  11   2.0000     -19.133535      -520.6500 
  12   2.0000     -14.396974      -391.7616 
  13   2.0000     -14.395617      -391.7247 
  14   2.0000     -14.335662      -390.0932 
  15   2.0000     -14.335544      -390.0900 
  16   2.0000     -14.335464      -390.0878 
  17   2.0000     -14.331769      -389.9873 
  18   2.0000     -10.301599      -280.3208 
  19   2.0000     -10.301039      -280.3055 
  20   2.0000     -10.299836      -280.2728 
  21   2.0000     -10.299180      -280.2549 
  22   2.0000     -10.280830      -279.7556 
  23   2.0000     -10.280503      -279.7467 
  24   2.0000     -10.270882      -279.4849 
  25   2.0000     -10.268881      -279.4305 
  26   2.0000     -10.263582      -279.2863 
  27   2.0000     -10.262813      -279.2653 
  28   2.0000     -10.262190      -279.2484 
  29   2.0000     -10.261358      -279.2257 
  30   2.0000     -10.254080      -279.0277 
  31   2.0000     -10.252533      -278.9856 
  32   2.0000     -10.252093      -278.9736 
  33   2.0000     -10.251673      -278.9622 
  34   2.0000     -10.243450      -278.7385 
  35   2.0000     -10.242553      -278.7140 
  36   2.0000     -10.241815      -278.6940 
  37   2.0000     -10.241631      -278.6889 
  38   2.0000     -10.241111      -278.6748 
  39   2.0000     -10.240664      -278.6626 
  40   2.0000     -10.238795      -278.6118 
  41   2.0000     -10.238027      -278.5909 
  42   2.0000     -10.235965      -278.5348 
  43   2.0000     -10.235923      -278.5336 
  44   2.0000     -10.235718      -278.5280 
  45   2.0000     -10.235332      -278.5175 
  46   2.0000     -10.234048      -278.4826 
  47   2.0000     -10.233805      -278.4760 
  48   2.0000     -10.233699      -278.4731 
  49   2.0000     -10.233538      -278.4687 
  50   2.0000     -10.233413      -278.4653 
  51   2.0000     -10.232610      -278.4435 
  52   2.0000     -10.232551      -278.4419 
  53   2.0000     -10.232016      -278.4273 
  54   2.0000     -10.231595      -278.4159 
  55   2.0000     -10.229535      -278.3598 
  56   2.0000     -10.223821      -278.2043 
  57   2.0000     -10.223613      -278.1987 
  58   2.0000     -10.222242      -278.1614 
  59   2.0000     -10.221305      -278.1359 
  60   2.0000     -10.220995      -278.1274 
  61   2.0000     -10.220989      -278.1273 
  62   2.0000     -10.220121      -278.1036 
  63   2.0000     -10.217926      -278.0439 
  64   2.0000     -10.217825      -278.0411 
  65   2.0000     -10.216681      -278.0100 
  66   2.0000     -10.191455      -277.3236 
  67   2.0000     -10.190781      -277.3052 
  68   2.0000     -10.190650      -277.3017 
  69   2.0000     -10.185336      -277.1571 
  70   2.0000      -7.986798      -217.3318 
  71   2.0000      -7.983719      -217.2480 
  72   2.0000      -7.981432      -217.1858 
  73   2.0000      -7.980615      -217.1636 
  74   2.0000      -5.949636      -161.8978 
  75   2.0000      -5.946705      -161.8181 
  76   2.0000      -5.945874      -161.7955 
  77   2.0000      -5.944513      -161.7584 
  78   2.0000      -5.943543      -161.7320 
  79   2.0000      -5.943045      -161.7185 
  80   2.0000      -5.942924      -161.7152 
  81   2.0000      -5.940792      -161.6572 
  82   2.0000      -5.939521      -161.6226 
  83   2.0000      -5.939287      -161.6162 
  84   2.0000      -5.936936      -161.5523 
  85   2.0000      -5.936706      -161.5460 
  86   2.0000      -1.272876       -34.6367 
  87   2.0000      -1.271589       -34.6017 
  88   2.0000      -1.258749       -34.2523 
  89   2.0000      -1.257084       -34.2070 
  90   2.0000      -1.090452       -29.6727 
  91   2.0000      -1.089004       -29.6333 
  92   2.0000      -1.063783       -28.9470 
  93   2.0000      -1.061058       -28.8729 
  94   2.0000      -1.022377       -27.8203 
  95   2.0000      -1.021744       -27.8031 
  96   2.0000      -0.940787       -25.6001 
  97   2.0000      -0.938898       -25.5487 
  98   2.0000      -0.922580       -25.1047 
  99   2.0000      -0.922051       -25.0903 
 100   2.0000      -0.921370       -25.0718 
 101   2.0000      -0.919634       -25.0245 
 102   2.0000      -0.918728       -24.9999 
 103   2.0000      -0.904425       -24.6106 
 104   2.0000      -0.902908       -24.5694 
 105   2.0000      -0.895478       -24.3672 
 106   2.0000      -0.874964       -23.8090 
 107   2.0000      -0.873677       -23.7740 
 108   2.0000      -0.850042       -23.1308 
 109   2.0000      -0.831735       -22.6327 
 110   2.0000      -0.824950       -22.4480 
 111   2.0000      -0.821141       -22.3444 
 112   2.0000      -0.814569       -22.1656 
 113   2.0000      -0.810099       -22.0439 
 114   2.0000      -0.798518       -21.7288 
 115   2.0000      -0.797732       -21.7074 
 116   2.0000      -0.796976       -21.6868 
 117   2.0000      -0.795349       -21.6425 
 118   2.0000      -0.783645       -21.3241 
 119   2.0000      -0.778457       -21.1829 
 120   2.0000      -0.774999       -21.0888 
 121   2.0000      -0.773460       -21.0469 
 122   2.0000      -0.756768       -20.5927 
 123   2.0000      -0.750385       -20.4190 
 124   2.0000      -0.740990       -20.1634 
 125   2.0000      -0.738060       -20.0836 
 126   2.0000      -0.720599       -19.6085 
 127   2.0000      -0.717744       -19.5308 
 128   2.0000      -0.700422       -19.0594 
 129   2.0000      -0.696281       -18.9468 
 130   2.0000      -0.693491       -18.8708 
 131   2.0000      -0.679640       -18.4939 
 132   2.0000      -0.669650       -18.2221 
 133   2.0000      -0.663276       -18.0487 
 134   2.0000      -0.660261       -17.9666 
 135   2.0000      -0.653260       -17.7761 
 136   2.0000      -0.644909       -17.5489 
 137   2.0000      -0.642568       -17.4852 
 138   2.0000      -0.635103       -17.2820 
 139   2.0000      -0.628359       -17.0985 
 140   2.0000      -0.616172       -16.7669 
 141   2.0000      -0.615619       -16.7518 
 142   2.0000      -0.610609       -16.6155 
 143   2.0000      -0.604425       -16.4472 
 144   2.0000      -0.600896       -16.3512 
 145   2.0000      -0.597289       -16.2531 
 146   2.0000      -0.588343       -16.0096 
 147   2.0000      -0.581237       -15.8163 
 148   2.0000      -0.577240       -15.7075 
 149   2.0000      -0.574981       -15.6460 
 150   2.0000      -0.572746       -15.5852 
 151   2.0000      -0.572569       -15.5804 
 152   2.0000      -0.567020       -15.4294 
 153   2.0000      -0.549422       -14.9505 
 154   2.0000      -0.543516       -14.7898 
 155   2.0000      -0.541653       -14.7391 
 156   2.0000      -0.540169       -14.6987 
 157   2.0000      -0.536473       -14.5982 
 158   2.0000      -0.533349       -14.5132 
 159   2.0000      -0.526778       -14.3343 
 160   2.0000      -0.523168       -14.2361 
 161   2.0000      -0.522252       -14.2112 
 162   2.0000      -0.520948       -14.1757 
 163   2.0000      -0.520709       -14.1692 
 164   2.0000      -0.518564       -14.1108 
 165   2.0000      -0.513759       -13.9801 
 166   2.0000      -0.508735       -13.8434 
 167   2.0000      -0.505039       -13.7428 
 168   2.0000      -0.494462       -13.4550 
 169   2.0000      -0.490152       -13.3377 
 170   2.0000      -0.488652       -13.2969 
 171   2.0000      -0.487669       -13.2701 
 172   2.0000      -0.487160       -13.2563 
 173   2.0000      -0.486033       -13.2256 
 174   2.0000      -0.483325       -13.1519 
 175   2.0000      -0.482198       -13.1213 
 176   2.0000      -0.480488       -13.0747 
 177   2.0000      -0.475814       -12.9476 
 178   2.0000      -0.473109       -12.8740 
 179   2.0000      -0.470580       -12.8051 
 180   2.0000      -0.464565       -12.6415 
 181   2.0000      -0.463130       -12.6024 
 182   2.0000      -0.461379       -12.5548 
 183   2.0000      -0.460773       -12.5383 
 184   2.0000      -0.458329       -12.4718 
 185   2.0000      -0.457550       -12.4506 
 186   2.0000      -0.456324       -12.4172 
 187   2.0000      -0.453914       -12.3516 
 188   2.0000      -0.446319       -12.1450 
 189   2.0000      -0.443288       -12.0625 
 190   2.0000      -0.438045       -11.9198 
 191   2.0000      -0.434959       -11.8358 
 192   2.0000      -0.432461       -11.7679 
 193   2.0000      -0.431443       -11.7402 
 194   2.0000      -0.429777       -11.6948 
 195   2.0000      -0.429154       -11.6779 
 196   2.0000      -0.427301       -11.6275 
 197   2.0000      -0.426561       -11.6073 
 198   2.0000      -0.424543       -11.5524 
 199   2.0000      -0.422547       -11.4981 
 200   2.0000      -0.419843       -11.4245 
 201   2.0000      -0.419126       -11.4050 
 202   2.0000      -0.417165       -11.3516 
 203   2.0000      -0.413225       -11.2444 
 204   2.0000      -0.410779       -11.1779 
 205   2.0000      -0.409924       -11.1546 
 206   2.0000      -0.407834       -11.0977 
 207   2.0000      -0.405365       -11.0305 
 208   2.0000      -0.402073       -10.9410 
 209   2.0000      -0.400421       -10.8960 
 210   2.0000      -0.398864       -10.8537 
 211   2.0000      -0.397970       -10.8293 
 212   2.0000      -0.393571       -10.7096 
 213   2.0000      -0.391177       -10.6445 
 214   2.0000      -0.391037       -10.6407 
 215   2.0000      -0.389852       -10.6084 
 216   2.0000      -0.386968       -10.5299 
 217   2.0000      -0.386265       -10.5108 
 218   2.0000      -0.384871       -10.4729 
 219   2.0000      -0.383835       -10.4447 
 220   2.0000      -0.383049       -10.4233 
 221   2.0000      -0.382294       -10.4027 
 222   2.0000      -0.379263       -10.3203 
 223   2.0000      -0.376181       -10.2364 
 224   2.0000      -0.374437       -10.1890 
 225   2.0000      -0.371022       -10.0960 
 226   2.0000      -0.365791        -9.9537 
 227   2.0000      -0.364162        -9.9093 
 228   2.0000      -0.363118        -9.8809 
 229   2.0000      -0.361986        -9.8501 
 230   2.0000      -0.361484        -9.8365 
 231   2.0000      -0.359721        -9.7885 
 232   2.0000      -0.355882        -9.6840 
 233   2.0000      -0.352281        -9.5860 
 234   2.0000      -0.348895        -9.4939 
 235   2.0000      -0.345941        -9.4135 
 236   2.0000      -0.345143        -9.3918 
 237   2.0000      -0.342956        -9.3323 
 238   2.0000      -0.333347        -9.0708 
 239   2.0000      -0.321423        -8.7464 
 240   2.0000      -0.316825        -8.6212 
 241   2.0000      -0.314619        -8.5612 
 242   2.0000      -0.303403        -8.2560 
 243   2.0000      -0.296959        -8.0807 
 244   2.0000      -0.294411        -8.0113 
 245   2.0000      -0.292116        -7.9489 
 246   2.0000      -0.286393        -7.7932 
 247   2.0000      -0.280159        -7.6235 
 248   2.0000      -0.278772        -7.5858 
 249   2.0000      -0.276749        -7.5307 
 250   2.0000      -0.266201        -7.2437 
 251   2.0000      -0.264281        -7.1915 
 252   2.0000      -0.259987        -7.0746 
 253   2.0000      -0.244028        -6.6403 
 254   2.0000      -0.233299        -6.3484 
 255   2.0000      -0.228167        -6.2087 
 256   2.0000      -0.206763        -5.6263 
 257   0.0000      -0.135881        -3.6975 
 258   0.0000      -0.126028        -3.4294 
 259   0.0000      -0.108987        -2.9657 
 260   0.0000      -0.105535        -2.8717 
 261   0.0000      -0.071899        -1.9565 
 262   0.0000      -0.056894        -1.5482 
 263   0.0000      -0.044559        -1.2125 
 264   0.0000      -0.042475        -1.1558 
 265   0.0000      -0.025886        -0.7044 
 266   0.0000      -0.023894        -0.6502 
 267   0.0000      -0.021677        -0.5899 
 268   0.0000      -0.020284        -0.5520 
 269   0.0000      -0.016302        -0.4436 
 270   0.0000      -0.011772        -0.3203 
 271   0.0000      -0.002157        -0.0587 
 272   0.0000       0.002335         0.0635 
 273   0.0000       0.004509         0.1227 
 274   0.0000       0.005797         0.1577 
 275   0.0000       0.009373         0.2550 
 276   0.0000       0.011745         0.3196 
 277   0.0000       0.014567         0.3964 
 278   0.0000       0.018352         0.4994 
 279   0.0000       0.022796         0.6203 
 280   0.0000       0.023445         0.6380 
 281   0.0000       0.028494         0.7754 
 282   0.0000       0.030582         0.8322 
 283   0.0000       0.031019         0.8441 
 284   0.0000       0.031089         0.8460 
 285   0.0000       0.032821         0.8931 
 286   0.0000       0.033580         0.9138 
 287   0.0000       0.035198         0.9578 
 288   0.0000       0.036052         0.9810 
 289   0.0000       0.038279         1.0416 
[...]
Level Shift                                    ...    0.000e+00
Constructing the preconditioner                ... o.k.
Building the initial guess                     ... o.k.
Number of trial vectors determined             ...     15


                       ****Iteration    0****
                <<< Triplet sigma vectors requested >>>

   Memory handling for direct AO based CIS:
   Memory per vector needed      ...   166 MB
   Memory needed                 ...  1494 MB
   Memory available              ...  6000 MB
   Number of vectors per batch   ...    36
   Number of batches             ...     1
   Time for densities:    15.015
   Time for K (COSX):   220.792
   Time for XC-Integration:    10.441
   Time for Sigma-Completion:    54.370
   Size of expansion space: 9
   Lowest Energy          :     0.048286304579
   Maximum Energy change  :     0.072464692287 (vector 2)
   Maximum residual norm  :     0.000499333033

                       ****Iteration    1****
   Time for densities:     4.971
   Time for K (COSX):   206.867
   Time for XC-Integration:     3.765
   Time for Sigma-Completion:    18.965
   Size of expansion space: 12
   Lowest Energy          :     0.046011719803
   Maximum Energy change  :     0.003867510656 (vector 2)
   Maximum residual norm  :     0.000027424196

                       ****Iteration    2****
   Time for densities:     5.074
   Time for K (COSX):   209.834
   Time for XC-Integration:     3.933
   Time for Sigma-Completion:    19.180
   Size of expansion space: 15
   Lowest Energy          :     0.045911960549
   Maximum Energy change  :     0.000270142386 (vector 2)
   Maximum residual norm  :     0.000004853369
   Rebuilding the expansion space

                       ****Iteration    3****
   Time for densities:    10.491
   Time for K (COSX):   215.205
   Time for XC-Integration:     7.243
   Time for Sigma-Completion:    34.728
   Size of expansion space: 6
   Lowest Energy          :     0.045908388430
   Maximum Energy change  :     0.000035157444 (vector 2)
   Maximum residual norm  :     0.000000860848

                       ****Iteration    4****
   Time for densities:     5.211
   Time for K (COSX):   212.656
   Time for XC-Integration:     3.934
   Time for Sigma-Completion:    19.144
   Size of expansion space: 9
   Lowest Energy          :     0.045908142965
   Maximum Energy change  :     0.000010828723 (vector 2)
   Maximum residual norm  :     0.000000199079

      *** CONVERGENCE OF RESIDUAL NORM REACHED ***

Storing the converged CI vectors               ... M34.cis3

                 *** DAVIDSON DONE ***

------------------------------------
TD-DFT/TDA EXCITED STATES (TRIPLETS)
------------------------------------

the weight of the individual excitations are printed if larger than 1.0e-02

STATE  1:  E=   0.045908 au      1.249 eV    10075.7 cm**-1
   254a -> 257a  :     0.018391 (c= -0.13561516)
   254a -> 258a  :     0.054222 (c= -0.23285664)
   255a -> 257a  :     0.016827 (c= -0.12971990)
   256a -> 257a  :     0.870221 (c=  0.93285623)

STATE  2:  E=   0.054901 au      1.494 eV    12049.5 cm**-1
   254a -> 257a  :     0.214288 (c= -0.46291280)
   254a -> 258a  :     0.015119 (c=  0.12296042)
   255a -> 258a  :     0.024384 (c= -0.15615308)
   256a -> 258a  :     0.680435 (c=  0.82488468)
   256a -> 260a  :     0.018382 (c= -0.13558082)

STATE  3:  E=   0.068281 au      1.858 eV    14986.0 cm**-1
   251a -> 257a  :     0.011483 (c=  0.10716032)
   253a -> 257a  :     0.016226 (c= -0.12738055)
   253a -> 258a  :     0.053626 (c= -0.23157359)
   254a -> 258a  :     0.044014 (c=  0.20979471)
   255a -> 257a  :     0.768626 (c=  0.87671291)
   256a -> 257a  :     0.033418 (c=  0.18280661)
   256a -> 259a  :     0.015559 (c= -0.12473681)

------------------------------
TD-DFT/TDA SPIN-ORBIT COUPLING
------------------------------

Calculating the spin-orbit integrals:             

Loading the effective charges         ... done
Entering the SOC calc. section        ... 
------------------------------------------------------------------------------
                         ORCA SPIN-ORBIT COUPLING CALCULATION
------------------------------------------------------------------------------

GBW file                                    ... M34.gbw
Input density                               ... M34.cisp0
Output integrals                            ... M34.cis
Operator type                               ... Mean-field/Effective potential
   One-Electron Terms                       ... 1
   Coulomb Contribution                     ... 2
   Exchange Contribution                    ... 3
   Correlation Contribution                 ... 0
   Maximum number of centers                ... 4
Setting up the integration grid             ... done
Evaluating density on the grid              ... (NumEl=  513.999762) done
Evaluating Coulomb term semi-analytically   ... done
One-Center Exchange (+SOO)                  ... done
Evaluating the spin-orbit operator          ... done
Transforming the SOC integrals              ... done
Constructing the SOC matrix:                ... done
Diagonalizing the SOC matrix:               ... done

      --------------------------------------------------------------------------------
                      CALCULATED SOCME BETWEEN TRIPLETS AND SINGLETS                  
      --------------------------------------------------------------------------------
           Root                          <T|HSO|S>  (Re, Im) cm-1                     
         T      S             Z                     X                     Y           
      --------------------------------------------------------------------------------
         1      0    (   0.00 ,    0.89 )    (   0.00 ,    1.32 )    (  -0.00 ,    1.03 )
         1      1    (   0.00 ,    0.38 )    (   0.00 ,    0.35 )    (  -0.00 ,    0.45 )
         1      2    (   0.00 ,    0.76 )    (   0.00 ,    0.26 )    (  -0.00 ,    0.56 )
         1      3    (   0.00 ,    0.14 )    (   0.00 ,    0.57 )    (  -0.00 ,    0.39 )
         2      0    (   0.00 ,    0.46 )    (   0.00 ,    0.62 )    (  -0.00 ,    0.49 )
         2      1    (   0.00 ,    0.18 )    (   0.00 ,    0.07 )    (  -0.00 ,    0.08 )
         2      2    (   0.00 ,    0.21 )    (   0.00 ,    0.17 )    (  -0.00 ,    0.26 )
         2      3    (   0.00 ,    0.11 )    (   0.00 ,    0.08 )    (  -0.00 ,    0.02 )
         3      0    (   0.00 ,    1.87 )    (   0.00 ,    0.87 )    (  -0.00 ,    1.17 )
         3      1    (   0.00 ,   -0.43 )    (   0.00 ,   -0.46 )    (  -0.00 ,   -0.46 )
         3      2    (   0.00 ,    0.16 )    (   0.00 ,    0.08 )    (  -0.00 ,    0.14 )
         3      3    (   0.00 ,    0.01 )    (   0.00 ,    0.04 )    (  -0.00 ,    0.07 )

SOC stabilization of the ground state:  -0.0008 cm-1
Eigenvalues of the SOC matrix:

   State:        cm-1         eV
     0:          0.00         0.0000
     1:      10075.67         1.2492
     2:      10075.67         1.2492
     3:      10075.67         1.2492
     4:      12049.46         1.4939
     5:      12049.46         1.4939
     6:      12049.46         1.4939
     7:      14135.88         1.7526
     8:      14985.96         1.8580
     9:      14985.96         1.8580
    10:      14985.96         1.8580
    11:      16168.21         2.0046
    12:      17799.41         2.2068

The threshold for printing is 0.0100
Eigenvectors of the SOC matrix:

             E(cm-1)  Weight      Real         Imag     : Root  Spin  Ms
 STATE  0:      0.00
                      1.00000     -0.80090     -0.59880 : 0     0     0
 STATE  1:  10075.67
                      0.54564      0.34437      0.65349 : 1     1     0
                      0.22718     -0.19723     -0.43391 : 1     1    -1
                      0.22718      0.24643      0.40799 : 1     1     1
 STATE  2:  10075.67
                      0.15380     -0.39187      0.01523 : 1     1     0
                      0.42310     -0.29260     -0.58094 : 1     1    -1
                      0.42310      0.24664     -0.60189 : 1     1     1
 STATE  3:  10075.67
                      0.30056     -0.02313     -0.54775 : 1     1     0
                      0.34972     -0.40448     -0.43141 : 1     1    -1
                      0.34972     -0.36666      0.46398 : 1     1     1
 STATE  4:  12049.46
                      0.05792     -0.24006      0.01709 : 2     1     0
                      0.47104      0.01463      0.68617 : 2     1    -1
                      0.47104      0.08271      0.68132 : 2     1     1
 STATE  5:  12049.46
                      0.33472     -0.21779     -0.53599 : 2     1     0
                      0.33264      0.28307      0.50250 : 2     1    -1
                      0.33264     -0.14766     -0.55752 : 2     1     1
 STATE  6:  12049.46
                      0.60736      0.73364     -0.26292 : 2     1     0
                      0.19632      0.44300      0.00847 : 2     1    -1
                      0.19632     -0.33678      0.28792 : 2     1     1
 STATE  7:  14135.88
                      1.00000     -0.70539     -0.70882 : 1     0     0
 STATE  8:  14985.96
                      0.04718      0.12324      0.17886 : 3     1     0
                      0.47641     -0.24581      0.64497 : 3     1    -1
                      0.47641     -0.69022      0.00000 : 3     1     1
 STATE  9:  14985.96
                      0.59690     -0.73112      0.24972 : 3     1     0
                      0.20155      0.35514     -0.27464 : 3     1    -1
                      0.20155     -0.44895      0.00000 : 3     1     1
 STATE 10:  14985.96
                      0.35592     -0.42850      0.41511 : 3     1     0
                      0.32204     -0.01802      0.56720 : 3     1    -1
                      0.32204      0.56748      0.00000 : 3     1     1
 STATE 11:  16168.21
                      1.00000     -0.85010     -0.52663 : 2     0     0
 STATE 12:  17799.41
                      1.00000     -0.87395     -0.48601 : 3     0     0

-----------------------------
TD-DFT/TDA-EXCITATION SPECTRA
-----------------------------

Center of mass = ( -0.9216, -1.4214,  0.0723)
Calculating the Dipole integrals                  ... done
Transforming integrals                            ... done
Calculating the Linear Momentum integrals         ... done
Transforming integrals                            ... done
Calculating angular momentum integrals            ... done
Transforming integrals                            ... done

-----------------------------------------------------------------------------
         ABSORPTION SPECTRUM VIA TRANSITION ELECTRIC DIPOLE MOMENTS
-----------------------------------------------------------------------------
State   Energy    Wavelength  fosc         T2        TX        TY        TZ  
        (cm-1)      (nm)                 (au**2)    (au)      (au)      (au) 
-----------------------------------------------------------------------------
   1   14135.9    707.4   1.573984091  36.65667  -5.04623   3.28397  -0.63858
   2   16168.2    618.5   0.255204070   5.19639   1.58088  -1.52521   0.60904
   3   17799.4    561.8   0.804615402  14.88190   3.36157  -1.85686  -0.36579
   4   10075.7    992.5   spin forbidden (mult=3)
   5   12049.5    829.9   spin forbidden (mult=3)
   6   14986.0    667.3   spin forbidden (mult=3)

-----------------------------------------------------------------------------
         ABSORPTION SPECTRUM VIA TRANSITION VELOCITY DIPOLE MOMENTS
-----------------------------------------------------------------------------
State   Energy    Wavelength   fosc        P2         PX        PY        PZ  
        (cm-1)      (nm)                 (au**2)     (au)      (au)      (au) 
-----------------------------------------------------------------------------
   1   14135.9    707.4   0.387850217   0.03747   0.15512  -0.09206  -0.07025
   2   16168.2    618.5   0.054452116   0.00602  -0.07102   0.02621   0.01694
   3   17799.4    561.8   0.415532207   0.05055  -0.11597   0.14493  -0.12687
   4   10075.7    992.5   spin forbidden (mult=3)
   5   12049.5    829.9   spin forbidden (mult=3)
   6   14986.0    667.3   spin forbidden (mult=3)

-------------------------------------------------------------------
                             CD SPECTRUM
-------------------------------------------------------------------
State  Energy     Wavelength     R         MX        MY        MZ   
       (cm-1)       (nm)     (1e40*cgs)   (au)      (au)      (au)  
-------------------------------------------------------------------
   1   14135.9    707.4     66.23296  -0.44732  -0.67890  -0.17649
   2   16168.2    618.5    -22.43150   0.12159   0.20760   0.12615
   3   17799.4    561.8    -24.14151   0.19216   0.36132   0.07179
   4   10075.7    992.5 spin forbidden
   5   12049.5    829.9 spin forbidden
   6   14986.0    667.3 spin forbidden

-------------------------------------------
SOC CORRECTED TD-DFT/TDA-EXCITATION SPECTRA
--------------------------------------------

-----------------------------------------------------------------------------
  SOC CORRECTED ABSORPTION SPECTRUM VIA TRANSITION ELECTRIC DIPOLE MOMENTS*  
-----------------------------------------------------------------------------
State   Energy  Wavelength   fosc         T2         TX        TY        TZ  
        (cm-1)    (nm)                  (au**2)     (au)      (au)      (au) 
-----------------------------------------------------------------------------
   1   10075.7    992.5   0.000000000   0.00000   0.00007   0.00000   0.00004
   2   10075.7    992.5   0.000000000   0.00000   0.00009   0.00005   0.00001
   3   10075.7    992.5   0.000000021   0.00000   0.00073   0.00038   0.00014
   4   12049.5    829.9   0.000000009   0.00000   0.00042   0.00028   0.00001
   5   12049.5    829.9   0.000000005   0.00000   0.00033   0.00020   0.00001
   6   12049.5    829.9   0.000000005   0.00000   0.00032   0.00020   0.00002
   7   14135.9    707.4   1.573983523  36.65665   5.04623   3.28397   0.63858
   8   14986.0    667.3   0.000000000   0.00000   0.00005   0.00003   0.00001
   9   14986.0    667.3   0.000000007   0.00000   0.00034   0.00020   0.00001
  10   14986.0    667.3   0.000000778   0.00002   0.00339   0.00228   0.00066
  11   16168.2    618.5   0.255203896   5.19638   1.58088   1.52521   0.60904
  12   17799.4    561.8   0.804615342  14.88190   3.36157   1.85686   0.36579

-----------------------------------------------------------------------------
  SOC CORRECTED ABSORPTION SPECTRUM VIA TRANSITION VELOCITY DIPOLE MOMENTS*  
-----------------------------------------------------------------------------
State   Energy  Wavelength   fosc         P2         PX        PY        PZ  
        (cm-1)    (nm)                  (au**2)     (au)      (au)      (au) 
-----------------------------------------------------------------------------
   1   10075.7    992.5   0.000000001   0.00000   0.00000   0.00001   0.00000
   2   10075.7    992.5   0.000000000   0.00000   0.00000   0.00000   0.00000
   3   10075.7    992.5   0.000000009   0.00000   0.00001   0.00000   0.00002
   4   12049.5    829.9   0.000000000   0.00000   0.00000   0.00000   0.00001
   5   12049.5    829.9   0.000000001   0.00000   0.00001   0.00000   0.00000
   6   12049.5    829.9   0.000000001   0.00000   0.00000   0.00000   0.00001
   7   14135.9    707.4   0.387849956   0.03747   0.15512   0.09206   0.07025
   8   14986.0    667.3   0.000000000   0.00000   0.00000   0.00000   0.00000
   9   14986.0    667.3   0.000000001   0.00000   0.00001   0.00000   0.00000
  10   14986.0    667.3   0.000000222   0.00000   0.00012   0.00007   0.00006
  11   16168.2    618.5   0.054452097   0.00602   0.07102   0.02621   0.01694
  12   17799.4    561.8   0.415532159   0.05055   0.11597   0.14493   0.12687

-------------------------------------------------------------------
                    SOC CORRECTED CD SPECTRUM*                     
-------------------------------------------------------------------
State   Energy Wavelength       R         MX        MY        MZ   
        (cm-1)   (nm)       (1e40*sgs)   (au)      (au)      (au)  
-------------------------------------------------------------------
   1   10075.7    992.5      0.00000   0.00002   0.00003   0.00001
   2   10075.7    992.5      0.00000   0.00001   0.00001   0.00000
   3   10075.7    992.5      0.00001   0.00009   0.00012   0.00004
   4   12049.5    829.9      0.00000   0.00001   0.00001   0.00000
   5   12049.5    829.9      0.00000   0.00001   0.00002   0.00001
   6   12049.5    829.9      0.00000   0.00002   0.00003   0.00000
   7   14135.9    707.4     66.23293   0.44732   0.67890   0.17649
   8   14986.0    667.3      0.00000   0.00001   0.00001   0.00000
   9   14986.0    667.3      0.00000   0.00001   0.00002   0.00001
  10   14986.0    667.3      0.00002   0.00032   0.00049   0.00010
  11   16168.2    618.5     22.43149   0.12159   0.20760   0.12615
  12   17799.4    561.8     24.14149   0.19216   0.36132   0.07179

*The X,Y and Z components are the absolute values of the complex numbers

Total run time:     4742.078 sec

           *** ORCA-CIS/TD-DFT FINISHED WITHOUT ERROR ***

---------------------------
SOC CIS/TD-DFT TOTAL ENERGY
---------------------------

    E(SCF)        =  -4619.108273897 Eh
    E(SOC CIS)    =      0.045908141 Eh (SOC Root  1)
    ----------------------------- ---------
    E(tot)        =  -4619.062365757 Eh


-------------------------   --------------------
FINAL SINGLE POINT ENERGY     -4619.062365756513
-------------------------   --------------------


                            ***************************************
                            *     ORCA property calculations      *
                            ***************************************

                                    ---------------------
                                    Active property flags
                                    ---------------------
   (+) Dipole Moment


------------------------------------------------------------------------------
                       ORCA ELECTRIC PROPERTIES CALCULATION
------------------------------------------------------------------------------

Dipole Moment Calculation                       ... on
Quadrupole Moment Calculation                   ... off
Polarizability Calculation                      ... off
GBWName                                         ... M34.gbw
Electron density file                           ... M34.scfp
The origin for moment calculation is the CENTER OF MASS  = (-0.921603, -1.421384  0.072285)

-------------
DIPOLE MOMENT
-------------
                                X             Y             Z
Electronic contribution:      8.09843      15.17967     -28.22201
Nuclear contribution   :     -8.17161     -17.42274      28.10916
                        -----------------------------------------
Total Dipole Moment    :     -0.07318      -2.24306      -0.11286
                        -----------------------------------------
Magnitude (a.u.)       :      2.24709
Magnitude (Debye)      :      5.71165



--------------------
Rotational spectrum 
--------------------
 
Rotational constants in cm-1:     0.002563     0.000238     0.000223 
Rotational constants in MHz :    76.840507     7.135988     6.680129 

 Dipole components along the rotational axes: 
x,y,z [a.u.] :     1.231676     0.241173    -1.863927 
x,y,z [Debye]:     3.130672     0.613014    -4.737727 

 

Timings for individual modules:

Sum of individual times         ...     7340.861 sec (= 122.348 min)
GTO integral calculation        ...        6.939 sec (=   0.116 min)   0.1 %
SCF iterations                  ...     2590.218 sec (=  43.170 min)  35.3 %
CIS module                      ...     4743.704 sec (=  79.062 min)  64.6 %
                             ****ORCA TERMINATED NORMALLY****
TOTAL RUN TIME: 0 days 2 hours 2 minutes 22 seconds 750 msec
