
                                 *****************
                                 * O   R   C   A *
                                 *****************

           --- An Ab Initio, DFT and Semiempirical electronic structure package ---

                  #######################################################
                  #                        -***-                        #
                  #          Department of theory and spectroscopy      #
                  #               Directorship: Frank Neese             #
                  #        Max Planck Institute fuer Kohlenforschung    #
                  #                Kaiser Wilhelm Platz 1               #
                  #                 D-45470 Muelheim/Ruhr               #
                  #                      Germany                        #
                  #                                                     #
                  #                  All rights reserved                #
                  #                        -***-                        #
                  #######################################################


                         Program Version 4.2.0 -  RELEASE  -


 With contributions from (in alphabetic order):
   Daniel Aravena         : Magnetic Suceptibility
   Michael Atanasov       : Ab Initio Ligand Field Theory (pilot matlab implementation)
   Alexander A. Auer      : GIAO ZORA, VPT2
   Ute Becker             : Parallelization
   Giovanni Bistoni       : ED, misc. LED, open-shell LED, HFLED
   Martin Brehm           : Molecular dynamics
   Dmytro Bykov           : SCF Hessian
   Vijay G. Chilkuri      : MRCI spin determinant printing, contributions to CSF-ICE
   Dipayan Datta          : RHF DLPNO-CCSD density
   Achintya Kumar Dutta   : EOM-CC, STEOM-CC
   Dmitry Ganyushin       : Spin-Orbit,Spin-Spin,Magnetic field MRCI
   Miquel Garcia          : C-PCM Hessian, Gaussian charge scheme
   Yang Guo               : DLPNO-NEVPT2, CIM, IAO-localization
   Andreas Hansen         : Spin unrestricted coupled pair/coupled cluster methods
   Benjamin Helmich-Paris : CASSCF linear response (MC-RPA)
   Lee Huntington         : MR-EOM, pCC
   Robert Izsak           : Overlap fitted RIJCOSX, COSX-SCS-MP3, EOM
   Christian Kollmar      : KDIIS, OOCD, Brueckner-CCSD(T), CCSD density
   Simone Kossmann        : Meta GGA functionals, TD-DFT gradient, OOMP2, MP2 Hessian
   Martin Krupicka        : AUTO-CI
   Lucas Lang             : DCDCAS
   Dagmar Lenk            : GEPOL surface, SMD
   Dimitrios Liakos       : Extrapolation schemes; Compound Job, initial MDCI parallelization
   Dimitrios Manganas     : Further ROCIS development; embedding schemes
   Dimitrios Pantazis     : SARC Basis sets
   Taras Petrenko         : DFT Hessian,TD-DFT gradient, ASA, ECA, R-Raman, ABS, FL, XAS/XES, NRVS
   Peter Pinski           : DLPNO-MP2, DLPNO-MP2 Gradient
   Christoph Reimann      : Effective Core Potentials
   Marius Retegan         : Local ZFS, SOC
   Christoph Riplinger    : Optimizer, TS searches, QM/MM, DLPNO-CCSD(T), (RO)-DLPNO pert. Triples
   Tobias Risthaus        : Range-separated hybrids, TD-DFT gradient, RPA, STAB
   Michael Roemelt        : Original ROCIS implementation
   Masaaki Saitow         : Open-shell DLPNO-CCSD energy and density
   Barbara Sandhoefer     : DKH picture change effects
   Avijit Sen             : IP-ROCIS
   Kantharuban Sivalingam : CASSCF convergence, NEVPT2, FIC-MRCI
   Bernardo de Souza      : ESD, SOC TD-DFT
   Georgi Stoychev        : AutoAux, RI-MP2 NMR
   Willem Van den Heuvel  : Paramagnetic NMR
   Boris Wezisla          : Elementary symmetry handling
   Frank Wennmohs         : Technical directorship


 We gratefully acknowledge several colleagues who have allowed us to
 interface, adapt or use parts of their codes:
   Stefan Grimme, W. Hujo, H. Kruse,             : VdW corrections, initial TS optimization,
                  C. Bannwarth                     DFT functionals, gCP, sTDA/sTD-DF
   Ed Valeev, F. Pavosevic, A. Kumar             : LibInt (2-el integral package), F12 methods
   Garnet Chan, S. Sharma, J. Yang, R. Olivares  : DMRG
   Ulf Ekstrom                                   : XCFun DFT Library
   Mihaly Kallay                                 : mrcc  (arbitrary order and MRCC methods)
   Andreas Klamt, Michael Diedenhofen            : otool_cosmo (COSMO solvation model)
   Jiri Pittner, Ondrej Demel                    : Mk-CCSD
   Frank Weinhold                                : gennbo (NPA and NBO analysis)
   Christopher J. Cramer and Donald G. Truhlar   : smd solvation model
   Lars Goerigk                                  : TD-DFT with DH, B97 family of functionals
   V. Asgeirsson, H. Jonsson                     : NEB implementation
   FAccTs GmbH                                   : IRC, NEB, NEB-TS, Multilevel, MM, QM/MM, CI optimization
   S Lehtola, MJT Oliveira, MAL Marques          : LibXC Library


 Your calculation uses the libint2 library for the computation of 2-el integrals
 For citations please refer to: http://libint.valeyev.net

 Your ORCA version has been built with support for libXC version: 4.2.3
 For citations please refer to: https://tddft.org/programs/libxc/

 This ORCA versions uses:
   CBLAS   interface :  Fast vector & matrix operations
   LAPACKE interface :  Fast linear algebra routines
   SCALAPACK package :  Parallel linear algebra routines


----- Orbital basis set information -----
Your calculation utilizes the basis: def2-TZVP
   F. Weigend and R. Ahlrichs, Phys. Chem. Chem. Phys. 7, 3297 (2005).

----- AuxJ basis set information -----
Your calculation utilizes the auxiliary basis: def2/J
   F. Weigend, Phys. Chem. Chem. Phys. 8, 1057 (2006).

================================================================================
                                        WARNINGS
                       Please study these warnings very carefully!
================================================================================

INFO   : Checking CIS options ...

WARNING: (CIS/TDDFT): Spin-orbit needs TRIPLETS set to TRUE
  ===> : ajusting flags

WARNING: CIS/ROCIS methods need fully converged wavefunctions
  ===> : Setting SCFConvForced true
         You can overwrite this default with %scf ConvForced false 


INFO   : the flag for use of LIBINT has been found!

================================================================================
                                       INPUT FILE
================================================================================
NAME = N3.inp
|  1> # ORCA input file
|  2> # N3.out
|  3> ! B3LYP def2-TZVP def2/J RIJCOSX Grid4 TightSCF
|  4> 
|  5> %maxcore 2000
|  6> %tddft
|  7>   maxdim 5
|  8>   nroots 3
|  9>   dosoc true
| 10>   end
| 11> 
| 12> 
| 13> 
| 14> * xyz 0 1
| 15>    C        2.95748         4.00128         0.96639
| 16>    O        4.06750         4.15209         0.48542
| 17>    C        2.06117         5.08219         1.42870
| 18>    C        2.28155         6.44451         1.41448
| 19>    C        1.27828         7.26203         1.90967
| 20>    F        1.44860         8.59038         1.91565
| 21>    C        0.09409         6.71418         2.40147
| 22>    F       -0.85793         7.52682         2.87420
| 23>    C       -0.12592         5.34423         2.41525
| 24>    C        0.87249         4.51965         1.92211
| 25>    C        0.95522         3.06243         1.79646
| 26>    C       -0.03554         2.18678         2.16267
| 27>    C        0.01316         0.78315         2.03519
| 28>    N       -0.02849        -0.36296         1.96157
| 29>    C       -1.26909         2.57915         2.72406
| 30>    N       -2.29039         2.82897         3.18447
| 31>    C        2.24394         2.75134         1.21625
| 32>    C        2.71721         1.48033         0.96970
| 33>    C        3.91558         1.04110         0.41020
| 34>    S        5.20648         2.09491        -0.17723
| 35>    C        6.13378         0.72072        -0.64594
| 36>    C        5.47387        -0.48631        -0.34605
| 37>    C        4.23024        -0.32253         0.24292
| 38>    C        3.33909        -1.47092         0.58428
| 39>    C        2.33746        -1.73333        -0.54414
| 40>    S        6.39707        -1.91583        -0.77279
| 41>    C        7.65994        -0.88595        -1.34775
| 42>    C        7.38014         0.48098        -1.22798
| 43>    N        8.43136         1.21925        -1.70907
| 44>    C        8.54106         2.60585        -1.31689
| 45>    C        9.43307         2.80610        -0.08498
| 46>    C        9.40281         0.33671        -2.14549
| 47>    C        8.94589        -0.99199        -1.89299
| 48>    C        9.76935        -2.11944        -2.09683
| 49>    N        9.49234        -3.39351        -1.86716
| 50>    S       10.81182        -4.27081        -2.19673
| 51>    N       11.78360        -3.06023        -2.64748
| 52>    C       11.11217        -1.92198        -2.55839
| 53>    C       11.52081        -0.62053        -2.92293
| 54>    C       10.65953         0.50116        -2.79217
| 55>    N       11.27120         1.59131        -3.40665
| 56>    C       10.70754         2.84043        -3.86873
| 57>    C       11.09761         4.05565        -3.01516
| 58>    C       12.47223         1.15776        -3.87540
| 59>    C       12.68829        -0.18490        -3.59254
| 60>    S       13.70711         1.85235        -4.85096
| 61>    C       14.59157         0.33467        -4.81096
| 62>    C       13.91610        -0.65312        -4.12993
| 63>    S       14.51494        -2.28238        -3.91107
| 64>    C       16.67105        -0.76141        -5.22645
| 65>    C       15.84985         0.21711        -5.51448
| 66>    C       16.17834         1.26861        -6.54624
| 67>    C       17.47991         0.98755        -7.28238
| 68>    C       17.41396        -1.82579        -5.08918
| 69>    C       17.02006        -3.04276        -5.78173
| 70>    C       17.87847        -4.01474        -6.41760
| 71>    C       19.23441        -3.91901        -6.57160
| 72>    C       20.01903        -4.87920        -7.24411
| 73>    N       20.69907        -5.63493        -7.77566
| 74>    C       19.99612        -2.82899        -6.09765
| 75>    N       20.65501        -1.95789        -5.74617
| 76>    C       17.00715        -5.06594        -6.95186
| 77>    C       17.27796        -6.24898        -7.60719
| 78>    C       16.19983        -7.04370        -7.98663
| 79>    F       16.44014        -8.19756        -8.62497
| 80>    C       14.88942        -6.66823        -7.71397
| 81>    F       13.87665        -7.45919        -8.09436
| 82>    C       14.60740        -5.48080        -7.04874
| 83>    C       15.67420        -4.69132        -6.67661
| 84>    C       15.70771        -3.42474        -5.95221
| 85>    O       14.58377        -2.84835        -5.52228
| 86>    C       12.50534         4.61803        -3.25965
| 87>    C       12.62293         5.24286        -4.64633
| 88>    C        8.84351         2.22613         1.21462
| 89>    C        9.42640         0.84470         1.50893
| 90>    C        9.09118         3.19023         2.38243
| 91>    C        8.37608         2.77921         3.66384
| 92>    C       12.81751         5.64556        -2.16271
| 93>    C       14.26275         6.12918        -2.17490
| 94>    H        3.19916         6.86327         1.03341
| 95>    H       -1.05858         4.97345         2.80700
| 96>    H        2.05748         0.67237         1.25437
| 97>    H        2.79752        -1.28741         1.51322
| 98>    H        3.96218        -2.35709         0.72015
| 99>    H        1.69690        -0.86871        -0.70049
|100>    H        1.71041        -2.58214        -0.28792
|101>    H        2.86142        -1.95155        -1.47175
|102>    H        7.52880         2.94637        -1.08498
|103>    H        8.90899         3.20978        -2.14151
|104>    H        9.57087         3.88290         0.03136
|105>    H       10.41290         2.35856        -0.26781
|106>    H        9.62257         2.72646        -3.91300
|107>    H       11.05874         2.99023        -4.89455
|108>    H       11.02756         3.78055        -1.96314
|109>    H       10.37431         4.85198        -3.20626
|110>    H       16.23740         2.23753        -6.04013
|111>    H       15.35022         1.32253        -7.25913
|112>    H       18.31304         0.93993        -6.58515
|113>    H       17.67707         1.77323        -8.00730
|114>    H       17.42266         0.03722        -7.80885
|115>    H       18.27671        -1.84689        -4.43937
|116>    H       18.27774        -6.58441        -7.83031
|117>    H       13.58776        -5.20190        -6.83886
|118>    H       13.23220         3.80535        -3.17265
|119>    H       11.92016         6.06675        -4.75063
|120>    H       12.42200         4.51526        -5.42824
|121>    H       13.62684         5.62178        -4.80870
|122>    H        7.75981         2.13293         1.09450
|123>    H       10.47936         0.92793         1.77260
|124>    H        9.34397         0.18779         0.64728
|125>    H        8.90206         0.37276         2.33489
|126>    H        8.73368         4.18171         2.09420
|127>    H       10.16503         3.26338         2.57017
|128>    H        7.31146         2.65263         3.47836
|129>    H        8.50138         3.54717         4.42351
|130>    H        8.77293         1.84805         4.05841
|131>    H       12.61564         5.18988        -1.18987
|132>    H       12.14684         6.50085        -2.27082
|133>    H       14.94761         5.28465        -2.14222
|134>    H       14.45204         6.75640        -1.30705
|135>    H       14.47783         6.71471        -3.06413
|136> *
|137> 
|138>                          ****END OF INPUT****
================================================================================

                       ****************************
                       * Single Point Calculation *
                       ****************************

---------------------------------
CARTESIAN COORDINATES (ANGSTROEM)
---------------------------------
  C      2.957480    4.001280    0.966390
  O      4.067500    4.152090    0.485420
  C      2.061170    5.082190    1.428700
  C      2.281550    6.444510    1.414480
  C      1.278280    7.262030    1.909670
  F      1.448600    8.590380    1.915650
  C      0.094090    6.714180    2.401470
  F     -0.857930    7.526820    2.874200
  C     -0.125920    5.344230    2.415250
  C      0.872490    4.519650    1.922110
  C      0.955220    3.062430    1.796460
  C     -0.035540    2.186780    2.162670
  C      0.013160    0.783150    2.035190
  N     -0.028490   -0.362960    1.961570
  C     -1.269090    2.579150    2.724060
  N     -2.290390    2.828970    3.184470
  C      2.243940    2.751340    1.216250
  C      2.717210    1.480330    0.969700
  C      3.915580    1.041100    0.410200
  S      5.206480    2.094910   -0.177230
  C      6.133780    0.720720   -0.645940
  C      5.473870   -0.486310   -0.346050
  C      4.230240   -0.322530    0.242920
  C      3.339090   -1.470920    0.584280
  C      2.337460   -1.733330   -0.544140
  S      6.397070   -1.915830   -0.772790
  C      7.659940   -0.885950   -1.347750
  C      7.380140    0.480980   -1.227980
  N      8.431360    1.219250   -1.709070
  C      8.541060    2.605850   -1.316890
  C      9.433070    2.806100   -0.084980
  C      9.402810    0.336710   -2.145490
  C      8.945890   -0.991990   -1.892990
  C      9.769350   -2.119440   -2.096830
  N      9.492340   -3.393510   -1.867160
  S     10.811820   -4.270810   -2.196730
  N     11.783600   -3.060230   -2.647480
  C     11.112170   -1.921980   -2.558390
  C     11.520810   -0.620530   -2.922930
  C     10.659530    0.501160   -2.792170
  N     11.271200    1.591310   -3.406650
  C     10.707540    2.840430   -3.868730
  C     11.097610    4.055650   -3.015160
  C     12.472230    1.157760   -3.875400
  C     12.688290   -0.184900   -3.592540
  S     13.707110    1.852350   -4.850960
  C     14.591570    0.334670   -4.810960
  C     13.916100   -0.653120   -4.129930
  S     14.514940   -2.282380   -3.911070
  C     16.671050   -0.761410   -5.226450
  C     15.849850    0.217110   -5.514480
  C     16.178340    1.268610   -6.546240
  C     17.479910    0.987550   -7.282380
  C     17.413960   -1.825790   -5.089180
  C     17.020060   -3.042760   -5.781730
  C     17.878470   -4.014740   -6.417600
  C     19.234410   -3.919010   -6.571600
  C     20.019030   -4.879200   -7.244110
  N     20.699070   -5.634930   -7.775660
  C     19.996120   -2.828990   -6.097650
  N     20.655010   -1.957890   -5.746170
  C     17.007150   -5.065940   -6.951860
  C     17.277960   -6.248980   -7.607190
  C     16.199830   -7.043700   -7.986630
  F     16.440140   -8.197560   -8.624970
  C     14.889420   -6.668230   -7.713970
  F     13.876650   -7.459190   -8.094360
  C     14.607400   -5.480800   -7.048740
  C     15.674200   -4.691320   -6.676610
  C     15.707710   -3.424740   -5.952210
  O     14.583770   -2.848350   -5.522280
  C     12.505340    4.618030   -3.259650
  C     12.622930    5.242860   -4.646330
  C      8.843510    2.226130    1.214620
  C      9.426400    0.844700    1.508930
  C      9.091180    3.190230    2.382430
  C      8.376080    2.779210    3.663840
  C     12.817510    5.645560   -2.162710
  C     14.262750    6.129180   -2.174900
  H      3.199160    6.863270    1.033410
  H     -1.058580    4.973450    2.807000
  H      2.057480    0.672370    1.254370
  H      2.797520   -1.287410    1.513220
  H      3.962180   -2.357090    0.720150
  H      1.696900   -0.868710   -0.700490
  H      1.710410   -2.582140   -0.287920
  H      2.861420   -1.951550   -1.471750
  H      7.528800    2.946370   -1.084980
  H      8.908990    3.209780   -2.141510
  H      9.570870    3.882900    0.031360
  H     10.412900    2.358560   -0.267810
  H      9.622570    2.726460   -3.913000
  H     11.058740    2.990230   -4.894550
  H     11.027560    3.780550   -1.963140
  H     10.374310    4.851980   -3.206260
  H     16.237400    2.237530   -6.040130
  H     15.350220    1.322530   -7.259130
  H     18.313040    0.939930   -6.585150
  H     17.677070    1.773230   -8.007300
  H     17.422660    0.037220   -7.808850
  H     18.276710   -1.846890   -4.439370
  H     18.277740   -6.584410   -7.830310
  H     13.587760   -5.201900   -6.838860
  H     13.232200    3.805350   -3.172650
  H     11.920160    6.066750   -4.750630
  H     12.422000    4.515260   -5.428240
  H     13.626840    5.621780   -4.808700
  H      7.759810    2.132930    1.094500
  H     10.479360    0.927930    1.772600
  H      9.343970    0.187790    0.647280
  H      8.902060    0.372760    2.334890
  H      8.733680    4.181710    2.094200
  H     10.165030    3.263380    2.570170
  H      7.311460    2.652630    3.478360
  H      8.501380    3.547170    4.423510
  H      8.772930    1.848050    4.058410
  H     12.615640    5.189880   -1.189870
  H     12.146840    6.500850   -2.270820
  H     14.947610    5.284650   -2.142220
  H     14.452040    6.756400   -1.307050
  H     14.477830    6.714710   -3.064130

----------------------------
CARTESIAN COORDINATES (A.U.)
----------------------------
  NO LB      ZA    FRAG     MASS         X           Y           Z
   0 C     6.0000    0    12.011    5.588827    7.561323    1.826212
   1 O     8.0000    0    15.999    7.686461    7.846313    0.917311
   2 C     6.0000    0    12.011    3.895047    9.603947    2.699852
   3 C     6.0000    0    12.011    4.311505   12.178359    2.672980
   4 C     6.0000    0    12.011    2.415599   13.723248    3.608753
   5 F     9.0000    0    18.998    2.737457   16.233466    3.620054
   6 C     6.0000    0    12.011    0.177804   12.687961    4.538121
   7 F     9.0000    0    18.998   -1.621253   14.223628    5.431451
   8 C     6.0000    0    12.011   -0.237954   10.099131    4.564161
   9 C     6.0000    0    12.011    1.648767    8.540901    3.632261
  10 C     6.0000    0    12.011    1.805104    5.787154    3.394817
  11 C     6.0000    0    12.011   -0.067161    4.132415    4.086854
  12 C     6.0000    0    12.011    0.024869    1.479939    3.845952
  13 N     7.0000    0    14.007   -0.053838   -0.685895    3.706830
  14 C     6.0000    0    12.011   -2.398233    4.873887    5.147727
  15 N     7.0000    0    14.007   -4.328210    5.345979    6.017776
  16 C     6.0000    0    12.011    4.240432    5.199279    2.298379
  17 C     6.0000    0    12.011    5.134783    2.797418    1.832467
  18 C     6.0000    0    12.011    7.399374    1.967394    0.775166
  19 S    16.0000    0    32.060    9.838821    3.958806   -0.334916
  20 C     6.0000    0    12.011   11.591164    1.361963   -1.220650
  21 C     6.0000    0    12.011   10.344115   -0.918993   -0.653940
  22 C     6.0000    0    12.011    7.993995   -0.609493    0.459052
  23 C     6.0000    0    12.011    6.309966   -2.779636    1.104129
  24 C     6.0000    0    12.011    4.417159   -3.275519   -1.028276
  25 S    16.0000    0    32.060   12.088710   -3.620394   -1.460361
  26 C     6.0000    0    12.011   14.475189   -1.674203   -2.546878
  27 C     6.0000    0    12.011   13.946443    0.908920   -2.320546
  28 N     7.0000    0    14.007   15.932961    2.304049   -3.229674
  29 C     6.0000    0    12.011   16.140264    4.924343   -2.488561
  30 C     6.0000    0    12.011   17.825919    5.302761   -0.160589
  31 C     6.0000    0    12.011   17.768736    0.636290   -4.054389
  32 C     6.0000    0    12.011   16.905282   -1.874589   -3.577233
  33 C     6.0000    0    12.011   18.461396   -4.005161   -3.962434
  34 N     7.0000    0    14.007   17.937923   -6.412805   -3.528421
  35 S    16.0000    0    32.060   20.431379   -8.070661   -4.151218
  36 N     7.0000    0    14.007   22.267777   -5.782997   -5.003012
  37 C     6.0000    0    12.011   20.998958   -3.632016   -4.834656
  38 C     6.0000    0    12.011   21.771176   -1.172632   -5.523537
  39 C     6.0000    0    12.011   20.143592    0.947055   -5.276437
  40 N     7.0000    0    14.007   21.299481    3.007140   -6.437636
  41 C     6.0000    0    12.011   20.234318    5.367635   -7.310840
  42 C     6.0000    0    12.011   20.971444    7.664068   -5.697827
  43 C     6.0000    0    12.011   23.569099    2.187849   -7.323445
  44 C     6.0000    0    12.011   23.977393   -0.349410   -6.788917
  45 S    16.0000    0    32.060   25.902684    3.500434   -9.166986
  46 C     6.0000    0    12.011   27.574071    0.632435   -9.091397
  47 C     6.0000    0    12.011   26.297618   -1.234218   -7.804437
  48 S    16.0000    0    32.060   27.429261   -4.313073   -7.390851
  49 C     6.0000    0    12.011   31.503719   -1.438856   -9.876559
  50 C     6.0000    0    12.011   29.951876    0.410278  -10.420857
  51 C     6.0000    0    12.011   30.572632    2.397325  -12.370601
  52 C     6.0000    0    12.011   33.032243    1.866199  -13.761704
  53 C     6.0000    0    12.011   32.907615   -3.450243   -9.617156
  54 C     6.0000    0    12.011   32.163252   -5.749983  -10.925886
  55 C     6.0000    0    12.011   33.785412   -7.586759  -12.127506
  56 C     6.0000    0    12.011   36.347767   -7.405856  -12.418524
  57 C     6.0000    0    12.011   37.830484   -9.220352  -13.689384
  58 N     7.0000    0    14.007   39.115574  -10.648474  -14.693868
  59 C     6.0000    0    12.011   37.787191   -5.346016  -11.522889
  60 N     7.0000    0    14.007   39.032312   -3.699876  -10.858688
  61 C     6.0000    0    12.011   32.138856   -9.573239  -13.137112
  62 C     6.0000    0    12.011   32.650613  -11.808861  -14.375506
  63 C     6.0000    0    12.011   30.613242  -13.310664  -15.092543
  64 F     9.0000    0    18.998   31.067362  -15.491143  -16.298831
  65 C     6.0000    0    12.011   28.136926  -12.601128  -14.577291
  66 F     9.0000    0    18.998   26.223068  -14.095826  -15.296124
  67 C     6.0000    0    12.011   27.603986  -10.357211  -13.320188
  68 C     6.0000    0    12.011   29.619945   -8.865310  -12.616964
  69 C     6.0000    0    12.011   29.683270   -6.471821  -11.248047
  70 O     8.0000    0    15.999   27.559331   -5.382601  -10.435597
  71 C     6.0000    0    12.011   23.631668    8.726812   -6.159846
  72 C     6.0000    0    12.011   23.853881    9.907570   -8.780291
  73 C     6.0000    0    12.011   16.711812    4.206776    2.295299
  74 C     6.0000    0    12.011   17.813314    1.596252    2.851464
  75 C     6.0000    0    12.011   17.179840    6.028661    4.502140
  76 C     6.0000    0    12.011   15.828497    5.251946    6.923654
  77 C     6.0000    0    12.011   24.221584   10.668562   -4.086930
  78 C     6.0000    0    12.011   26.952691   11.582472   -4.109965
  79 H     1.0000    0     1.008    6.045536   12.969701    1.952862
  80 H     1.0000    0     1.008   -2.000426    9.398458    5.304461
  81 H     1.0000    0     1.008    3.888074    1.270595    2.370416
  82 H     1.0000    0     1.008    5.286547   -2.432852    2.859571
  83 H     1.0000    0     1.008    7.487435   -4.454255    1.360886
  84 H     1.0000    0     1.008    3.206676   -1.641624   -1.323734
  85 H     1.0000    0     1.008    3.232206   -4.879537   -0.544090
  86 H     1.0000    0     1.008    5.407300   -3.687895   -2.781204
  87 H     1.0000    0     1.008   14.227370    5.567832   -2.050315
  88 H     1.0000    0     1.008   16.835551    6.065605   -4.046867
  89 H     1.0000    0     1.008   18.086323    7.337618    0.059262
  90 H     1.0000    0     1.008   19.677529    4.457032   -0.506088
  91 H     1.0000    0     1.008   18.184022    5.152263   -7.394498
  92 H     1.0000    0     1.008   20.897990    5.650716   -9.249359
  93 H     1.0000    0     1.008   20.839068    7.144204   -3.709797
  94 H     1.0000    0     1.008   19.604605    9.168913   -6.058953
  95 H     1.0000    0     1.008   30.684239    4.228319  -11.414192
  96 H     1.0000    0     1.008   29.007712    2.499220  -13.717768
  97 H     1.0000    0     1.008   34.606630    1.776210  -12.444130
  98 H     1.0000    0     1.008   33.404821    3.350919  -15.131604
  99 H     1.0000    0     1.008   32.924056    0.070336  -14.756588
 100 H     1.0000    0     1.008   34.537977   -3.490116   -8.389194
 101 H     1.0000    0     1.008   34.539923  -12.442732  -14.797141
 102 H     1.0000    0     1.008   25.677145   -9.830166  -12.923572
 103 H     1.0000    0     1.008   25.005234    7.191069   -5.995440
 104 H     1.0000    0     1.008   22.525838   11.464496   -8.977390
 105 H     1.0000    0     1.008   23.474178    8.532605  -10.257887
 106 H     1.0000    0     1.008   25.750996   10.623625   -9.087126
 107 H     1.0000    0     1.008   14.663916    4.030654    2.068305
 108 H     1.0000    0     1.008   19.803120    1.753534    3.349729
 109 H     1.0000    0     1.008   17.657544    0.354872    1.223182
 110 H     1.0000    0     1.008   16.822455    0.704414    4.412303
 111 H     1.0000    0     1.008   16.504263    7.902287    3.957464
 112 H     1.0000    0     1.008   19.209123    6.166894    4.856917
 113 H     1.0000    0     1.008   13.816657    5.012744    6.573148
 114 H     1.0000    0     1.008   16.065280    6.703180    8.359222
 115 H     1.0000    0     1.008   16.578435    3.492308    7.669283
 116 H     1.0000    0     1.008   23.840105    9.807452   -2.248528
 117 H     1.0000    0     1.008   22.954201   12.284826   -4.291228
 118 H     1.0000    0     1.008   28.246889    9.986541   -4.048209
 119 H     1.0000    0     1.008   27.310398   12.767746   -2.469967
 120 H     1.0000    0     1.008   27.359134   12.688963   -5.790367

--------------------------------
INTERNAL COORDINATES (ANGSTROEM)
--------------------------------
 C      0   0   0     0.000000000000     0.00000000     0.00000000
 O      1   0   0     1.219106310951     0.00000000     0.00000000
 C      1   2   0     1.478333041063   125.80117996     0.00000000
 C      3   1   2     1.380103378447   128.44101266     0.03114592
 C      4   3   1     1.385677732880   117.58594420   180.07152601
 F      5   4   3     1.339237986804   119.64983992   179.99657564
 C      5   4   3     1.394386179866   120.60564740     0.00000000
 F      7   5   4     1.337983371683   119.35750203   179.97416841
 C      7   5   4     1.387572445316   121.73999974     0.00000000
 C      9   7   5     1.385619631825   118.01854224     0.00000000
 C     10   9   7     1.464964949683   131.54199749   179.99295926
 C     11  10   9     1.372034279528   124.83162245     0.91680732
 C     12  11  10     1.410248211238   125.88454072   179.09645213
 N     13  12  11     1.149227026744   175.67076433   183.06108311
 C     12  11  10     1.410942433801   124.05856509   359.39938765
 N     15  12  11     1.147798366657   176.41938180   180.69668717
 C     11  10   9     1.447141966291   107.36815780   180.39141307
 C     17  11  10     1.378491137258   125.14563929   178.24653147
 C     18  17  11     1.393575939732   131.12074601   179.22046192
 S     19  18  17     1.766921710490   125.01244245   359.26850849
 C     20  19  18     1.722780459084    90.45646202   180.76725425
 C     21  20  19     1.407954772391   111.93754440   359.43490079
 C     22  21  20     1.385757960901   114.19446964     0.56159584
 C     23  22  21     1.493142513024   122.81190690   177.17852652
 C     24  23  22     1.531487303702   110.71213505   265.48477709
 S     22  21  20     1.754403801295   113.58377360   181.31076688
 C     26  22  21     1.728025593821    88.84718497     0.05713388
 C     21  20  19     1.396301929670   136.95527076   180.68966807
 N     28  21  20     1.371697368008   137.54914370   358.97583087
 C     29  28  21     1.445163936168   118.64629828    17.84827855
 C     30  29  28     1.534074362833   112.78690403    93.44018185
 C     29  28  21     1.383132087149   107.78843016   179.03334636
 C     27  26  22     1.400784973399   139.05148305   177.52341270
 C     33  27  26     1.410950254155   130.73032559   354.65281117
 N     34  33  27     1.323909820909   128.44861318     3.30160371
 S     35  34  33     1.618424896404   108.40606312   183.04326077
 N     36  35  34     1.616488746419    98.10298988   359.87476710
 C     37  36  35     1.324525702091   108.66736616   359.95240544
 C     38  37  36     1.411966063225   128.90465061   184.23509913
 C     39  38  37     1.420242891938   121.91706362   178.41776694
 N     40  39  38     1.392893708005   108.13190501   188.47850371
 C     41  40  39     1.446212742441   130.22495056   161.50370708
 C     42  41  40     1.535413950112   114.01406892   108.64247736
 C     41  40  39     1.360207787766   106.87678296   359.00452632
 C     44  41  40     1.389038364769   112.04055085   359.81831328
 S     44  41  40     1.720203823999   134.47495721   173.22495739
 C     46  44  41     1.757049252013    89.98131291   183.57416643
 C     47  46  44     1.376877142631   112.58104733     2.79973852
 S     48  47  46     1.749570573827   124.19687345   179.74243824
 C     47  46  44     2.387102925494   146.21800905   194.24611297
 C     50  47  46     1.309515983599    31.66722839   332.40633414
 C     51  50  47     1.509333173193   122.30652970   178.49241023
 C     52  51  50     1.521506256346   112.84395832     5.31892310
 C     50  47  46     1.305244461930   148.42482631   168.36302678
 C     54  50  47     1.454578527753   118.55824199    67.48000072
 C     55  54  50     1.444279580068   127.71404823   142.10982190
 C     56  55  54     1.368010788152   126.26888334   354.86067685
 C     57  56  55     1.410625067337   123.87268916   182.31750999
 N     58  57  56     1.147226061855   177.43944476   187.11875136
 C     57  56  55     1.411727426595   123.43809805     0.86252441
 N     60  57  56     1.147383733761   177.29142104   198.43779819
 C     56  55  54     1.466169748017   106.84165379   179.07074733
 C     62  56  55     1.379267597894   132.17650424   182.54694882
 C     63  62  56     1.392091551910   117.84663347   179.74062744
 F     64  63  62     1.340380450208   118.84213378   179.98616034
 C     64  63  62     1.390142282142   121.49301028   359.76212255
 F     66  64  63     1.340155717296   119.82052299   180.01499887
 C     66  64  63     1.389984258256   121.05509237   359.95168159
 C     68  66  64     1.378340178367   117.48295800     0.25280440
 C     55  54  50     1.377401420538   123.29556650   323.68952325
 O     70  55  54     1.334281214962   130.00803482   357.56723883
 C     43  42  41     1.535496785213   115.73869857    78.30154334
 C     72  43  42     1.525490530747   111.43347555    67.54500029
 C     31  30  29     1.540424082680   113.94131315   292.20996656
 C     74  31  30     1.527981666480   110.90928156    97.64957961
 C     74  31  30     1.534473667092   110.10511700   221.02270671
 C     76  74  31     1.523915036510   113.24995256   172.21946068
 C     72  43  42     1.535104352609   108.53046772   190.17078126
 C     78  72  43     1.524058908999   113.54844588   171.61328725
 H      4   3   1     1.078231141546   121.52764796     0.05400791
 H      9   7   5     1.077404541711   118.72708858   179.96138853
 H     18  17  11     1.081240048925   115.62107353   359.16030247
 H     24  23  22     1.090826983806   111.19933323   143.69002841
 H     24  23  22     1.091787100995   108.18580346    24.88606602
 H     25  24  23     1.087350072654   110.79268404   298.58543928
 H     25  24  23     1.085964459363   109.73834135   178.94559185
 H     25  24  23     1.087480741025   110.35041682    59.03459528
 H     30  29  28     1.092889027349   106.63230315   333.68995803
 H     30  29  28     1.086325031563   110.67836217   217.00040958
 H     31  30  29     1.091797634912   106.72031601   171.54079558
 H     31  30  29     1.092605001544   109.48774469    54.91649014
 H     42  41  40     1.091837393892   108.06492598   344.78638180
 H     42  41  40     1.094572132114   107.01331980   229.67133627
 H     43  42  41     1.089648150964   108.69769350   316.91740164
 H     43  42  41     1.092622335897   108.14534843   199.81024991
 H     52  51  50     1.094733475372   108.19852088   243.44690437
 H     52  51  50     1.094030279700   108.36276705   127.33259985
 H     53  52  51     1.087429507692   110.68767981   300.62655465
 H     53  52  51     1.087048358814   110.13839365   180.42013483
 H     53  52  51     1.087922484509   110.51659019    60.48065956
 H     54  50  47     1.080294315731   122.25870954   250.85018375
 H     63  62  56     1.077894182051   123.18756734     0.14288646
 H     68  66  64     1.077729350997   120.41327824   180.26931780
 H     72  43  42     1.093774767491   108.93251840   307.26453367
 H     73  72  43     1.087914930038   110.33708764    60.74117341
 H     73  72  43     1.086810872691   111.43968016   300.03778165
 H     73  72  43     1.085255578838   110.50667944   180.84861174
 H     74  31  30     1.094312909729   108.57058880   338.18407642
 H     75  74  31     1.088656908029   110.27336960    68.70135104
 H     75  74  31     1.086630652752   111.40042817   308.59630900
 H     75  74  31     1.086218081602   110.80107922   188.74205219
 H     76  74  31     1.092664346128   108.45433081    52.05239832
 H     76  74  31     1.092589150871   109.35813886   294.70880729
 H     77  76  74     1.088044609012   110.31514594   305.29207028
 H     77  76  74     1.087456279811   110.05177948   185.85005130
 H     77  76  74     1.086385913476   111.41741724    66.04424135
 H     78  72  43     1.093075214658   108.62506600    51.01935593
 H     78  72  43     1.092248600411   109.18071737   294.03877696
 H     79  78  72     1.087810701777   110.51301109   306.45467325
 H     79  78  72     1.087381834960   109.98230860   186.91299315
 H     79  78  72     1.086201997881   111.43070298    67.25872196

---------------------------
INTERNAL COORDINATES (A.U.)
---------------------------
 C      0   0   0     0.000000000000     0.00000000     0.00000000
 O      1   0   0     2.303777055832     0.00000000     0.00000000
 C      1   2   0     2.793644582337   125.80117996     0.00000000
 C      3   1   2     2.608017421764   128.44101266     0.03114592
 C      4   3   1     2.618551425016   117.58594420   180.07152601
 F      5   4   3     2.530793023204   119.64983992   179.99657564
 C      5   4   3     2.635008004871   120.60564740     0.00000000
 F      7   5   4     2.528422144221   119.35750203   179.97416841
 C      7   5   4     2.622131912623   121.73999974     0.00000000
 C      9   7   5     2.618441629935   118.01854224     0.00000000
 C     10   9   7     2.768382550695   131.54199749   179.99295926
 C     11  10   9     2.592769034660   124.83162245     0.91680732
 C     12  11  10     2.664982900092   125.88454072   179.09645213
 N     13  12  11     2.171724346248   175.67076433   183.06108311
 C     12  11  10     2.666294790612   124.05856509   359.39938765
 N     15  12  11     2.169024569943   176.41938180   180.69668717
 C     11  10   9     2.734701993194   107.36815780   180.39141307
 C     17  11  10     2.604970727456   125.14563929   178.24653147
 C     18  17  11     2.633476872915   131.12074601   179.22046192
 S     19  18  17     3.338998132905   125.01244245   359.26850849
 C     20  19  18     3.255583256539    90.45646202   180.76725425
 C     21  20  19     2.660648928767   111.93754440   359.43490079
 C     22  21  20     2.618703034004   114.19446964     0.56159584
 C     23  22  21     2.821630428531   122.81190690   177.17852652
 C     24  23  22     2.894091581574   110.71213505   265.48477709
 S     22  21  20     3.315342712759   113.58377360   181.31076688
 C     26  22  21     3.265495124728    88.84718497     0.05713388
 C     21  20  19     2.638628247342   136.95527076   180.68966807
 N     28  21  20     2.592132364156   137.54914370   358.97583087
 C     29  28  21     2.730964057977   118.64629828    17.84827855
 C     30  29  28     2.898980414823   112.78690403    93.44018185
 C     29  28  21     2.613740851750   107.78843016   179.03334636
 C     27  26  22     2.647099972236   139.05148305   177.52341270
 C     33  27  26     2.666309568939   130.73032559   354.65281117
 N     34  33  27     2.501826987527   128.44861318     3.30160371
 S     35  34  33     3.058379822523   108.40606312   183.04326077
 N     36  35  34     3.054721029298    98.10298988   359.87476710
 C     37  36  35     2.502990834292   108.66736616   359.95240544
 C     38  37  36     2.668229169887   128.90465061   184.23509913
 C     39  38  37     2.683870109411   121.91706362   178.41776694
 N     40  39  38     2.632187641792   108.13190501   188.47850371
 C     41  40  39     2.732946014602   130.22495056   161.50370708
 C     42  41  40     2.901511867915   114.01406892   108.64247736
 C     41  40  39     2.570420204105   106.87678296   359.00452632
 C     44  41  40     2.624902098923   112.04055085   359.81831328
 S     44  41  40     3.250714121882   134.47495721   173.22495739
 C     46  44  41     3.320341890116    89.98131291   183.57416643
 C     47  46  44     2.601920719629   112.58104733     2.79973852
 S     48  47  46     3.306209236500   124.19687345   179.74243824
 C     47  46  44     4.510970782665   146.21800905   194.24611297
 C     50  47  46     2.474626576994    31.66722839   332.40633414
 C     51  50  47     2.852226342177   122.30652970   178.49241023
 C     52  51  50     2.875230135542   112.84395832     5.31892310
 C     50  47  46     2.466554570866   148.42482631   168.36302678
 C     54  50  47     2.748755057735   118.55824199    67.48000072
 C     55  54  50     2.729292867142   127.71404823   142.10982190
 C     56  55  54     2.585165737857   126.26888334   354.86067685
 C     57  56  55     2.665695054911   123.87268916   182.31750999
 N     58  57  56     2.167943070603   177.43944476   187.11875136
 C     57  56  55     2.667778212010   123.43809805     0.86252441
 N     60  57  56     2.168241027325   177.29142104   198.43779819
 C     56  55  54     2.770659289592   106.84165379   179.07074733
 C     62  56  55     2.606438025411   132.17650424   182.54694882
 C     63  62  56     2.630671786456   117.84663347   179.74062744
 F     64  63  62     2.532951966155   118.84213378   179.98616034
 C     64  63  62     2.626988200433   121.49301028   359.76212255
 F     66  64  63     2.532527282497   119.82052299   180.01499887
 C     66  64  63     2.626689578566   121.05509237   359.95168159
 C     68  66  64     2.604685456493   117.48295800     0.25280440
 C     55  54  50     2.602911461291   123.29556650   323.68952325
 O     70  55  54     2.521426081914   130.00803482   357.56723883
 C     43  42  41     2.901668403569   115.73869857    78.30154334
 C     72  43  42     2.882759323003   111.43347555    67.54500029
 C     31  30  29     2.910979646362   113.94131315   292.20996656
 C     74  31  30     2.887466887300   110.90928156    97.64957961
 C     74  31  30     2.899734990518   110.10511700   221.02270671
 C     76  74  31     2.879782070368   113.24995256   172.21946068
 C     72  43  42     2.900926813422   108.53046772   190.17078126
 C     78  72  43     2.880053949971   113.54844588   171.61328725
 H      4   3   1     2.037561566588   121.52764796     0.05400791
 H      9   7   5     2.035999519277   118.72708858   179.96138853
 H     18  17  11     2.043247577496   115.62107353   359.16030247
 H     24  23  22     2.061364258885   111.19933323   143.69002841
 H     24  23  22     2.063178617429   108.18580346    24.88606602
 H     25  24  23     2.054793849015   110.79268404   298.58543928
 H     25  24  23     2.052175419368   109.73834135   178.94559185
 H     25  24  23     2.055040776451   110.35041682    59.03459528
 H     30  29  28     2.065260956457   106.63230315   333.68995803
 H     30  29  28     2.052856802077   110.67836217   217.00040958
 H     31  30  29     2.063198523647   106.72031601   171.54079558
 H     31  30  29     2.064724225472   109.48774469    54.91649014
 H     42  41  40     2.063273657229   108.06492598   344.78638180
 H     42  41  40     2.068441563517   107.01331980   229.67133627
 H     43  42  41     2.059136587656   108.69769350   316.91740164
 H     43  42  41     2.064756982650   108.14534843   199.81024991
 H     52  51  50     2.068746458089   108.19852088   243.44690437
 H     52  51  50     2.067417610850   108.36276705   127.33259985
 H     53  52  51     2.054943959483   110.68767981   300.62655465
 H     53  52  51     2.054223692487   110.13839365   180.42013483
 H     53  52  51     2.055875550657   110.51659019    60.48065956
 H     54  50  47     2.041460400763   122.25870954   250.85018375
 H     63  62  56     2.036924805424   123.18756734     0.14288646
 H     68  66  64     2.036613319873   120.41327824   180.26931780
 H     72  43  42     2.066934762751   108.93251840   307.26453367
 H     73  72  43     2.055861274776   110.33708764    60.74117341
 H     73  72  43     2.053774908754   111.43968016   300.03778165
 H     73  72  43     2.050835829315   110.50667944   180.84861174
 H     74  31  30     2.067951704203   108.57058880   338.18407642
 H     75  74  31     2.057263409977   110.27336960    68.70135104
 H     75  74  31     2.053434342425   111.40042817   308.59630900
 H     75  74  31     2.052654695942   110.80107922   188.74205219
 H     76  74  31     2.064836370483   108.45433081    52.05239832
 H     76  74  31     2.064694272039   109.35813886   294.70880729
 H     77  76  74     2.056106332522   110.31514594   305.29207028
 H     77  76  74     2.054994551455   110.05177948   185.85005130
 H     77  76  74     2.052971852220   111.41741724    66.04424135
 H     78  72  43     2.065612799481   108.62506600    51.01935593
 H     78  72  43     2.064050724936   109.18071737   294.03877696
 H     79  78  72     2.055664311907   110.51301109   306.45467325
 H     79  78  72     2.054853871074   109.98230860   186.91299315
 H     79  78  72     2.052624302113   111.43070298    67.25872196

---------------------
BASIS SET INFORMATION
---------------------
There are 6 groups of distinct atoms

 Group   1 Type C   : 11s6p2d1f contracted to 5s3p2d1f pattern {62111/411/11/1}
 Group   2 Type O   : 11s6p2d1f contracted to 5s3p2d1f pattern {62111/411/11/1}
 Group   3 Type F   : 11s6p2d1f contracted to 5s3p2d1f pattern {62111/411/11/1}
 Group   4 Type N   : 11s6p2d1f contracted to 5s3p2d1f pattern {62111/411/11/1}
 Group   5 Type S   : 14s9p3d1f contracted to 5s5p2d1f pattern {73211/51111/21/1}
 Group   6 Type H   : 5s1p contracted to 3s1p pattern {311/1}

Atom   0C    basis set group =>   1
Atom   1O    basis set group =>   2
Atom   2C    basis set group =>   1
Atom   3C    basis set group =>   1
Atom   4C    basis set group =>   1
Atom   5F    basis set group =>   3
Atom   6C    basis set group =>   1
Atom   7F    basis set group =>   3
Atom   8C    basis set group =>   1
Atom   9C    basis set group =>   1
Atom  10C    basis set group =>   1
Atom  11C    basis set group =>   1
Atom  12C    basis set group =>   1
Atom  13N    basis set group =>   4
Atom  14C    basis set group =>   1
Atom  15N    basis set group =>   4
Atom  16C    basis set group =>   1
Atom  17C    basis set group =>   1
Atom  18C    basis set group =>   1
Atom  19S    basis set group =>   5
Atom  20C    basis set group =>   1
Atom  21C    basis set group =>   1
Atom  22C    basis set group =>   1
Atom  23C    basis set group =>   1
Atom  24C    basis set group =>   1
Atom  25S    basis set group =>   5
Atom  26C    basis set group =>   1
Atom  27C    basis set group =>   1
Atom  28N    basis set group =>   4
Atom  29C    basis set group =>   1
Atom  30C    basis set group =>   1
Atom  31C    basis set group =>   1
Atom  32C    basis set group =>   1
Atom  33C    basis set group =>   1
Atom  34N    basis set group =>   4
Atom  35S    basis set group =>   5
Atom  36N    basis set group =>   4
Atom  37C    basis set group =>   1
Atom  38C    basis set group =>   1
Atom  39C    basis set group =>   1
Atom  40N    basis set group =>   4
Atom  41C    basis set group =>   1
Atom  42C    basis set group =>   1
Atom  43C    basis set group =>   1
Atom  44C    basis set group =>   1
Atom  45S    basis set group =>   5
Atom  46C    basis set group =>   1
Atom  47C    basis set group =>   1
Atom  48S    basis set group =>   5
Atom  49C    basis set group =>   1
Atom  50C    basis set group =>   1
Atom  51C    basis set group =>   1
Atom  52C    basis set group =>   1
Atom  53C    basis set group =>   1
Atom  54C    basis set group =>   1
Atom  55C    basis set group =>   1
Atom  56C    basis set group =>   1
Atom  57C    basis set group =>   1
Atom  58N    basis set group =>   4
Atom  59C    basis set group =>   1
Atom  60N    basis set group =>   4
Atom  61C    basis set group =>   1
Atom  62C    basis set group =>   1
Atom  63C    basis set group =>   1
Atom  64F    basis set group =>   3
Atom  65C    basis set group =>   1
Atom  66F    basis set group =>   3
Atom  67C    basis set group =>   1
Atom  68C    basis set group =>   1
Atom  69C    basis set group =>   1
Atom  70O    basis set group =>   2
Atom  71C    basis set group =>   1
Atom  72C    basis set group =>   1
Atom  73C    basis set group =>   1
Atom  74C    basis set group =>   1
Atom  75C    basis set group =>   1
Atom  76C    basis set group =>   1
Atom  77C    basis set group =>   1
Atom  78C    basis set group =>   1
Atom  79H    basis set group =>   6
Atom  80H    basis set group =>   6
Atom  81H    basis set group =>   6
Atom  82H    basis set group =>   6
Atom  83H    basis set group =>   6
Atom  84H    basis set group =>   6
Atom  85H    basis set group =>   6
Atom  86H    basis set group =>   6
Atom  87H    basis set group =>   6
Atom  88H    basis set group =>   6
Atom  89H    basis set group =>   6
Atom  90H    basis set group =>   6
Atom  91H    basis set group =>   6
Atom  92H    basis set group =>   6
Atom  93H    basis set group =>   6
Atom  94H    basis set group =>   6
Atom  95H    basis set group =>   6
Atom  96H    basis set group =>   6
Atom  97H    basis set group =>   6
Atom  98H    basis set group =>   6
Atom  99H    basis set group =>   6
Atom 100H    basis set group =>   6
Atom 101H    basis set group =>   6
Atom 102H    basis set group =>   6
Atom 103H    basis set group =>   6
Atom 104H    basis set group =>   6
Atom 105H    basis set group =>   6
Atom 106H    basis set group =>   6
Atom 107H    basis set group =>   6
Atom 108H    basis set group =>   6
Atom 109H    basis set group =>   6
Atom 110H    basis set group =>   6
Atom 111H    basis set group =>   6
Atom 112H    basis set group =>   6
Atom 113H    basis set group =>   6
Atom 114H    basis set group =>   6
Atom 115H    basis set group =>   6
Atom 116H    basis set group =>   6
Atom 117H    basis set group =>   6
Atom 118H    basis set group =>   6
Atom 119H    basis set group =>   6
Atom 120H    basis set group =>   6
---------------------------------
AUXILIARY/J BASIS SET INFORMATION
---------------------------------
There are 6 groups of distinct atoms

 Group   1 Type C   : 12s5p4d2f1g contracted to 6s4p3d1f1g pattern {711111/2111/211/2/1}
 Group   2 Type O   : 12s5p4d2f1g contracted to 6s4p3d1f1g pattern {711111/2111/211/2/1}
 Group   3 Type F   : 12s5p4d2f1g contracted to 6s4p3d1f1g pattern {711111/2111/211/2/1}
 Group   4 Type N   : 12s5p4d2f1g contracted to 6s4p3d1f1g pattern {711111/2111/211/2/1}
 Group   5 Type S   : 14s5p5d2f1g contracted to 8s4p3d1f1g pattern {71111111/2111/311/2/1}
 Group   6 Type H   : 5s2p1d contracted to 3s1p1d pattern {311/2/1}

Atom   0C    basis set group =>   1
Atom   1O    basis set group =>   2
Atom   2C    basis set group =>   1
Atom   3C    basis set group =>   1
Atom   4C    basis set group =>   1
Atom   5F    basis set group =>   3
Atom   6C    basis set group =>   1
Atom   7F    basis set group =>   3
Atom   8C    basis set group =>   1
Atom   9C    basis set group =>   1
Atom  10C    basis set group =>   1
Atom  11C    basis set group =>   1
Atom  12C    basis set group =>   1
Atom  13N    basis set group =>   4
Atom  14C    basis set group =>   1
Atom  15N    basis set group =>   4
Atom  16C    basis set group =>   1
Atom  17C    basis set group =>   1
Atom  18C    basis set group =>   1
Atom  19S    basis set group =>   5
Atom  20C    basis set group =>   1
Atom  21C    basis set group =>   1
Atom  22C    basis set group =>   1
Atom  23C    basis set group =>   1
Atom  24C    basis set group =>   1
Atom  25S    basis set group =>   5
Atom  26C    basis set group =>   1
Atom  27C    basis set group =>   1
Atom  28N    basis set group =>   4
Atom  29C    basis set group =>   1
Atom  30C    basis set group =>   1
Atom  31C    basis set group =>   1
Atom  32C    basis set group =>   1
Atom  33C    basis set group =>   1
Atom  34N    basis set group =>   4
Atom  35S    basis set group =>   5
Atom  36N    basis set group =>   4
Atom  37C    basis set group =>   1
Atom  38C    basis set group =>   1
Atom  39C    basis set group =>   1
Atom  40N    basis set group =>   4
Atom  41C    basis set group =>   1
Atom  42C    basis set group =>   1
Atom  43C    basis set group =>   1
Atom  44C    basis set group =>   1
Atom  45S    basis set group =>   5
Atom  46C    basis set group =>   1
Atom  47C    basis set group =>   1
Atom  48S    basis set group =>   5
Atom  49C    basis set group =>   1
Atom  50C    basis set group =>   1
Atom  51C    basis set group =>   1
Atom  52C    basis set group =>   1
Atom  53C    basis set group =>   1
Atom  54C    basis set group =>   1
Atom  55C    basis set group =>   1
Atom  56C    basis set group =>   1
Atom  57C    basis set group =>   1
Atom  58N    basis set group =>   4
Atom  59C    basis set group =>   1
Atom  60N    basis set group =>   4
Atom  61C    basis set group =>   1
Atom  62C    basis set group =>   1
Atom  63C    basis set group =>   1
Atom  64F    basis set group =>   3
Atom  65C    basis set group =>   1
Atom  66F    basis set group =>   3
Atom  67C    basis set group =>   1
Atom  68C    basis set group =>   1
Atom  69C    basis set group =>   1
Atom  70O    basis set group =>   2
Atom  71C    basis set group =>   1
Atom  72C    basis set group =>   1
Atom  73C    basis set group =>   1
Atom  74C    basis set group =>   1
Atom  75C    basis set group =>   1
Atom  76C    basis set group =>   1
Atom  77C    basis set group =>   1
Atom  78C    basis set group =>   1
Atom  79H    basis set group =>   6
Atom  80H    basis set group =>   6
Atom  81H    basis set group =>   6
Atom  82H    basis set group =>   6
Atom  83H    basis set group =>   6
Atom  84H    basis set group =>   6
Atom  85H    basis set group =>   6
Atom  86H    basis set group =>   6
Atom  87H    basis set group =>   6
Atom  88H    basis set group =>   6
Atom  89H    basis set group =>   6
Atom  90H    basis set group =>   6
Atom  91H    basis set group =>   6
Atom  92H    basis set group =>   6
Atom  93H    basis set group =>   6
Atom  94H    basis set group =>   6
Atom  95H    basis set group =>   6
Atom  96H    basis set group =>   6
Atom  97H    basis set group =>   6
Atom  98H    basis set group =>   6
Atom  99H    basis set group =>   6
Atom 100H    basis set group =>   6
Atom 101H    basis set group =>   6
Atom 102H    basis set group =>   6
Atom 103H    basis set group =>   6
Atom 104H    basis set group =>   6
Atom 105H    basis set group =>   6
Atom 106H    basis set group =>   6
Atom 107H    basis set group =>   6
Atom 108H    basis set group =>   6
Atom 109H    basis set group =>   6
Atom 110H    basis set group =>   6
Atom 111H    basis set group =>   6
Atom 112H    basis set group =>   6
Atom 113H    basis set group =>   6
Atom 114H    basis set group =>   6
Atom 115H    basis set group =>   6
Atom 116H    basis set group =>   6
Atom 117H    basis set group =>   6
Atom 118H    basis set group =>   6
Atom 119H    basis set group =>   6
Atom 120H    basis set group =>   6
------------------------------------------------------------------------------
                           ORCA GTO INTEGRAL CALCULATION
                           -- RI-GTO INTEGRALS CHOSEN --
------------------------------------------------------------------------------

                         BASIS SET STATISTICS AND STARTUP INFO

Gaussian basis set:
 # of primitive gaussian shells          ... 1867
 # of primitive gaussian functions       ... 4055
 # of contracted shells                  ... 1047
 # of contracted basis functions         ... 2731
 Highest angular momentum                ...    3
 Maximum contraction depth               ...    7
Auxiliary gaussian basis set:
 # of primitive gaussian shells          ... 2247
 # of primitive gaussian functions       ... 6237
 # of contracted shells                  ... 1405
 # of contracted aux-basis functions     ... 4343
 Highest angular momentum                ...    4
 Maximum contraction depth               ...    7
Ratio of auxiliary to basis functions    ...  1.59
Integral package used                  ... LIBINT
 One Electron integrals                  ... done
 Ordering auxiliary basis shells         ... done
 Integral threshhold             Thresh  ...  2.500e-11
 Primitive cut-off               TCut    ...  2.500e-12
 Pre-screening matrix                    ... done
 Shell pair data                         ... 
 Ordering of the shell pairs             ... done (   0.044 sec) 181079 of 548628 pairs
 Determination of significant pairs      ... done (   0.001 sec)
 Creation of shell pair data             ... done (   0.022 sec)
 Storage of shell pair data              ... done (   0.034 sec)
 Shell pair data done in (   0.100 sec)
 Computing two index integrals           ... done
 Cholesky decomposition of the V-matrix  ... done


Timings:
 Total evaluation time                   ...   8.572 sec (  0.143 min)
 One electron matrix time                ...   3.009 sec (  0.050 min) = 35.1%
 Schwartz matrix evaluation time         ...   4.321 sec (  0.072 min) = 50.4%
 Two index repulsion integral time       ...   0.454 sec (  0.008 min) =  5.3%
 Cholesky decomposition of V             ...   0.668 sec (  0.011 min) =  7.8%
 Three index repulsion integral time     ...   0.000 sec (  0.000 min) =  0.0%

-------------------------------------------------------------------------------
                                 ORCA SCF
-------------------------------------------------------------------------------

------------
SCF SETTINGS
------------
Hamiltonian:
 Density Functional     Method          .... DFT(GTOs)
 Exchange Functional    Exchange        .... B88
   X-Alpha parameter    XAlpha          ....  0.666667
   Becke's b parameter  XBeta           ....  0.004200
 Correlation Functional Correlation     .... LYP
 LDA part of GGA corr.  LDAOpt          .... VWN-5
 Gradients option       PostSCFGGA      .... off
 Hybrid DFT is turned on
   Fraction HF Exchange ScalHFX         ....  0.200000
   Scaling of DF-GGA-X  ScalDFX         ....  0.720000
   Scaling of DF-GGA-C  ScalDFC         ....  0.810000
   Scaling of DF-LDA-C  ScalLDAC        ....  1.000000
   Perturbative correction              ....  0.000000
   Density functional embedding theory  .... OFF
   NL short-range parameter             ....  4.800000
 RI-approximation to the Coulomb term is turned on
   Number of auxiliary basis functions  .... 4343
   RIJ-COSX (HFX calculated with COS-X)).... on


General Settings:
 Integral files         IntName         .... N3
 Hartree-Fock type      HFTyp           .... RHF
 Total Charge           Charge          ....    0
 Multiplicity           Mult            ....    1
 Number of Electrons    NEL             ....  590
 Basis Dimension        Dim             .... 2731
 Nuclear Repulsion      ENuc            ....  13640.2786859233 Eh

Convergence Acceleration:
 DIIS                   CNVDIIS         .... on
   Start iteration      DIISMaxIt       ....    12
   Startup error        DIISStart       ....  0.200000
   # of expansion vecs  DIISMaxEq       ....     5
   Bias factor          DIISBfac        ....   1.050
   Max. coefficient     DIISMaxC        ....  10.000
 Newton-Raphson         CNVNR           .... off
 SOSCF                  CNVSOSCF        .... on
   Start iteration      SOSCFMaxIt      ....   150
   Startup grad/error   SOSCFStart      ....  0.003300
 Level Shifting         CNVShift        .... on
   Level shift para.    LevelShift      ....    0.2500
   Turn off err/grad.   ShiftErr        ....    0.0010
 Zerner damping         CNVZerner       .... off
 Static damping         CNVDamp         .... on
   Fraction old density DampFac         ....    0.7000
   Max. Damping (<1)    DampMax         ....    0.9800
   Min. Damping (>=0)   DampMin         ....    0.0000
   Turn off err/grad.   DampErr         ....    0.1000
 Fernandez-Rico         CNVRico         .... off

SCF Procedure:
 Maximum # iterations   MaxIter         ....   125
 SCF integral mode      SCFMode         .... Direct
   Integral package                     .... LIBINT
 Reset frequency        DirectResetFreq ....    20
 Integral Threshold     Thresh          ....  2.500e-11 Eh
 Primitive CutOff       TCut            ....  2.500e-12 Eh

Convergence Tolerance:
 Convergence Check Mode ConvCheckMode   .... Total+1el-Energy
 Convergence forced     ConvForced      .... 1
 Energy Change          TolE            ....  1.000e-08 Eh
 1-El. energy change                    ....  1.000e-05 Eh
 Orbital Gradient       TolG            ....  1.000e-05
 Orbital Rotation angle TolX            ....  1.000e-05
 DIIS Error             TolErr          ....  5.000e-07


Diagonalization of the overlap matrix:
Smallest eigenvalue                        ... 2.180e-06
Time for diagonalization                   ...    4.788 sec
Threshold for overlap eigenvalues          ... 1.000e-08
Number of eigenvalues below threshold      ... 0
Time for construction of square roots      ...    1.517 sec
Total time needed                          ...    6.325 sec

-------------------
DFT GRID GENERATION
-------------------

General Integration Accuracy     IntAcc      ...  4.670
Radial Grid Type                 RadialGrid  ... Gauss-Chebyshev
Angular Grid (max. acc.)         AngularGrid ... Lebedev-302
Angular grid pruning method      GridPruning ... 3 (G Style)
Weight generation scheme         WeightScheme... Becke
Basis function cutoff            BFCut       ...    1.0000e-11
Integration weight cutoff        WCut        ...    1.0000e-14
Grids for H and He will be reduced by one unit

# of grid points (after initial pruning)     ... 636706 (   1.8 sec)
# of grid points (after weights+screening)   ... 536223 (  35.6 sec)
nearest neighbour list constructed           ...    0.0 sec
Grid point re-assignment to atoms done       ...    0.1 sec
Grid point division into batches done        ...    1.9 sec
Reduced shell lists constructed in   19.9 sec

Total number of grid points                  ...   536223
Total number of batches                      ...     8439
Average number of points per batch           ...       63
Average number of grid points per atom       ...     4432
Average number of shells per batch           ...   181.77 (17.36%)
Average number of basis functions per batch  ...   442.41 (16.20%)
Average number of large shells per batch     ...   104.79 (57.65%)
Average number of large basis fcns per batch ...   261.66 (59.14%)
Maximum spatial batch extension              ...  22.42, 21.91, 21.77 au
Average spatial batch extension              ...   2.04,  2.04,  2.17 au

Time for grid setup =   57.406 sec

------------------------------
INITIAL GUESS: MODEL POTENTIAL
------------------------------
Loading Hartree-Fock densities                     ... done
Calculating cut-offs                               ... done
Setting up the integral package                    ... done
Initializing the effective Hamiltonian             ... done
Starting the Coulomb interaction                   ... done (  39.6 sec)
Reading the grid                                   ... done
Mapping shells                                     ... done
Starting the XC term evaluation                    ... done (  31.4 sec)
  promolecular density results
     # of electrons  =    589.979579117
     EX              =   -555.756818348
     EC              =    -20.969922836
     EX+EC           =   -576.726741184
Transforming the Hamiltonian                       ... done (   1.4 sec)
Diagonalizing the Hamiltonian                      ... done (   4.5 sec)
Back transforming the eigenvectors                 ... done (   0.6 sec)
Now organizing SCF variables                       ... done
                      ------------------
                      INITIAL GUESS DONE ( 136.1 sec)
                      ------------------
--------------------
COSX GRID GENERATION
--------------------

General Integration Accuracy     IntAcc      ...  3.340
Radial Grid Type                 RadialGrid  ... Gauss-Chebyshev
Angular Grid (max. acc.)         AngularGrid ... Lebedev-50
Angular grid pruning method      GridPruning ... 3 (G Style)
Weight generation scheme         WeightScheme... Becke
Basis function cutoff            BFCut       ...    1.0000e-11
Integration weight cutoff        WCut        ...    1.0000e-14
Grids for H and He will be reduced by one unit

# of grid points (after initial pruning)     ...  59778 (   0.1 sec)
# of grid points (after weights+screening)   ...  52740 (   3.3 sec)
nearest neighbour list constructed           ...    0.0 sec
Grid point re-assignment to atoms done       ...    0.0 sec
Grid point division into batches done        ...    0.0 sec
Reduced shell lists constructed in    2.8 sec

Total number of grid points                  ...    52740
Total number of batches                      ...      893
Average number of points per batch           ...       59
Average number of grid points per atom       ...      436
Average number of shells per batch           ...   220.95 (21.10%)
Average number of basis functions per batch  ...   545.18 (19.96%)
Average number of large shells per batch     ...   128.47 (58.15%)
Average number of large basis fcns per batch ...   325.83 (59.77%)
Maximum spatial batch extension              ...  22.03, 21.32, 26.74 au
Average spatial batch extension              ...   4.01,  4.03,  4.75 au

Overlap Fitting                  UseSFitting ... on
Constructing numerical overlap ... done (      2.7 sec)
Inverting numerical overlap    ... done (      0.8 sec)
Obtaining analytic overlap     ... done (      0.0 sec)
Final contraction and storage  ... done (      0.7 sec)


General Integration Accuracy     IntAcc      ...  3.670
Radial Grid Type                 RadialGrid  ... Gauss-Chebyshev
Angular Grid (max. acc.)         AngularGrid ... Lebedev-50
Angular grid pruning method      GridPruning ... 3 (G Style)
Weight generation scheme         WeightScheme... Becke
Basis function cutoff            BFCut       ...    1.0000e-11
Integration weight cutoff        WCut        ...    1.0000e-14
Grids for H and He will be reduced by one unit

# of grid points (after initial pruning)     ...  74954 (   0.1 sec)
# of grid points (after weights+screening)   ...  65844 (   4.2 sec)
nearest neighbour list constructed           ...    0.0 sec
Grid point re-assignment to atoms done       ...    0.0 sec
Grid point division into batches done        ...    0.0 sec
Reduced shell lists constructed in    3.3 sec

Total number of grid points                  ...    65844
Total number of batches                      ...     1093
Average number of points per batch           ...       60
Average number of grid points per atom       ...      544
Average number of shells per batch           ...   216.71 (20.70%)
Average number of basis functions per batch  ...   533.60 (19.54%)
Average number of large shells per batch     ...   125.35 (57.84%)
Average number of large basis fcns per batch ...   316.61 (59.33%)
Maximum spatial batch extension              ...  23.98, 22.29, 25.23 au
Average spatial batch extension              ...   3.73,  3.77,  4.39 au

Overlap Fitting                  UseSFitting ... on
Constructing numerical overlap ... done (      3.2 sec)
Inverting numerical overlap    ... done (      0.8 sec)
Obtaining analytic overlap     ... done (      0.0 sec)
Final contraction and storage  ... done (      0.7 sec)


General Integration Accuracy     IntAcc      ...  4.010
Radial Grid Type                 RadialGrid  ... Gauss-Chebyshev
Angular Grid (max. acc.)         AngularGrid ... Lebedev-110
Angular grid pruning method      GridPruning ... 3 (G Style)
Weight generation scheme         WeightScheme... Becke
Basis function cutoff            BFCut       ...    1.0000e-11
Integration weight cutoff        WCut        ...    1.0000e-14
Grids for H and He will be reduced by one unit

# of grid points (after initial pruning)     ... 144668 (   0.2 sec)
# of grid points (after weights+screening)   ... 125903 (   8.0 sec)
nearest neighbour list constructed           ...    0.0 sec
Grid point re-assignment to atoms done       ...    0.0 sec
Grid point division into batches done        ...    0.1 sec
Reduced shell lists constructed in    5.6 sec

Total number of grid points                  ...   125903
Total number of batches                      ...     2028
Average number of points per batch           ...       62
Average number of grid points per atom       ...     1041
Average number of shells per batch           ...   205.35 (19.61%)
Average number of basis functions per batch  ...   505.18 (18.50%)
Average number of large shells per batch     ...   119.45 (58.17%)
Average number of large basis fcns per batch ...   301.51 (59.68%)
Maximum spatial batch extension              ...  24.68, 20.48, 27.54 au
Average spatial batch extension              ...   3.25,  3.21,  3.65 au

Overlap Fitting                  UseSFitting ... on
Constructing numerical overlap ... done (      5.7 sec)
Inverting numerical overlap    ... done (      0.9 sec)
Obtaining analytic overlap     ... done (      0.0 sec)
Final contraction and storage  ... done (      0.7 sec)

Time for X-Grid setup             =   44.144 sec
--------------
SCF ITERATIONS
--------------
ITER       Energy         Delta-E        Max-DP      RMS-DP      [F,P]     Damp
               ***  Starting incremental Fock matrix formation  ***
  0  -5287.3362950316   0.000000000000 0.21997908  0.00086244  0.2964573 0.7000
  1  -5288.3254206924  -0.989125660739 0.24997398  0.00076301  0.1040266 0.7000
                               ***Turning on DIIS***
  2  -5288.6829050239  -0.357484331498 0.55723742  0.00132046  0.0444619 0.0000
  3  -5289.2618147207  -0.578909696829 0.12776544  0.00061013  0.0575786 0.0000
  4  -5289.3955831971  -0.133768476428 0.05102245  0.00022740  0.0356511 0.0000
  5  -5289.4081330442  -0.012549847050 0.02976844  0.00011307  0.0140588 0.0000
                      *** Initiating the SOSCF procedure ***
                           *** Shutting down DIIS ***
                      *** Re-Reading the Fockian *** 
                      *** Removing any level shift *** 
ITER      Energy       Delta-E        Grad      Rot      Max-DP    RMS-DP
  6  -5289.40953399  -0.0014009467  0.001546  0.001546  0.010922  0.000037
               *** Restarting incremental Fock matrix formation ***
  7  -5289.40970403  -0.0001700435  0.001172  0.013331  0.044374  0.000105
  8  -5289.40974677  -0.0000427313  0.000467  0.010370  0.017404  0.000058
  9  -5289.40977954  -0.0000327790  0.000524  0.005538  0.019303  0.000056
 10  -5289.40979695  -0.0000174094  0.000161  0.002350  0.008635  0.000022
 11  -5289.40979824  -0.0000012867  0.000188  0.002284  0.007917  0.000020
 12  -5289.40980284  -0.0000046015  0.000089  0.000745  0.003455  0.000009
 13  -5289.40980275   0.0000000898  0.000087  0.000863  0.002734  0.000009
 14  -5289.40980424  -0.0000014915  0.000055  0.000284  0.001181  0.000003
 15  -5289.40980405   0.0000001981  0.000069  0.000344  0.001267  0.000003
 16  -5289.40980446  -0.0000004114  0.000013  0.000077  0.001049  0.000002
 17  -5289.40980443   0.0000000245  0.000016  0.000072  0.000379  0.000001
 18  -5289.40980454  -0.0000001057  0.000004  0.000043  0.000874  0.000002
 19  -5289.40980442   0.0000001212  0.000007  0.000027  0.000937  0.000002
                  ***Gradient check signals convergence***
              ***Rediagonalizing the Fockian in SOSCF/NRSCF***

               *****************************************************
               *                     SUCCESS                       *
               *           SCF CONVERGED AFTER  20 CYCLES          *
               *****************************************************

Setting up the final grid:

General Integration Accuracy     IntAcc      ...  5.010
Radial Grid Type                 RadialGrid  ... Gauss-Chebyshev
Angular Grid (max. acc.)         AngularGrid ... Lebedev-434
Angular grid pruning method      GridPruning ... 3 (G Style)
Weight generation scheme         WeightScheme... Becke
Basis function cutoff            BFCut       ...    1.0000e-11
Integration weight cutoff        WCut        ...    1.0000e-14
Grids for H and He will be reduced by one unit

# of grid points (after initial pruning)     ... 1131320 (   2.4 sec)
# of grid points (after weights+screening)   ... 949219 (  63.3 sec)
nearest neighbour list constructed           ...    0.0 sec
Grid point re-assignment to atoms done       ...    0.2 sec
Grid point division into batches done        ...    6.1 sec
Reduced shell lists constructed in   36.3 sec

Total number of grid points                  ...   949219
Total number of batches                      ...    14893
Average number of points per batch           ...       63
Average number of grid points per atom       ...     7845
Average number of shells per batch           ...   175.54 (16.77%)
Average number of basis functions per batch  ...   425.21 (15.57%)
Average number of large shells per batch     ...   100.87 (57.46%)
Average number of large basis fcns per batch ...   250.91 (59.01%)
Maximum spatial batch extension              ...  21.67, 25.16, 23.43 au
Average spatial batch extension              ...   1.67,  1.66,  1.75 au

Final grid set up in  102.1 sec
Final integration                            ... done (  72.6 sec)
Change in XC energy                          ...    -0.000060568
Integrated number of electrons               ...   589.999743567
Previous integrated no of electrons          ...   589.999894463
Old exchange energy                            =   -112.278206255 Eh
New exchange energy                            =   -112.280224653 Eh
Exchange energy change after final integration =     -0.002018398 Eh
Total energy after final integration           =  -5289.411883413 Eh
Final COS-X integration done in                =  2167.556 sec

----------------
TOTAL SCF ENERGY
----------------

Total Energy       :        -5289.41188341 Eh         -143932.21472 eV

Components:
Nuclear Repulsion  :        13640.27868592 Eh          371170.85301 eV
Electronic Energy  :       -18929.69056934 Eh         -515103.06773 eV
One Electron Energy:       -34426.62808585 Eh         -936796.17601 eV
Two Electron Energy:        15496.93751651 Eh          421693.10829 eV

Virial components:
Potential Energy   :       -10563.15193732 Eh         -287437.97728 eV
Kinetic Energy     :         5273.74005391 Eh          143505.76256 eV
Virial Ratio       :            2.00297167


DFT components:
N(Alpha)           :      294.999871783611 electrons
N(Beta)            :      294.999871783611 electrons
N(Total)           :      589.999743567223 electrons
E(X)               :     -446.309383093016 Eh       
E(C)               :      -24.614434601444 Eh       
E(XC)              :     -470.923817694461 Eh       
DFET-embed. en.    :        0.000000000000 Eh       

---------------
SCF CONVERGENCE
---------------

  Last Energy change         ...   -2.9990e-08  Tolerance :   1.0000e-08
  Last MAX-Density change    ...    6.8834e-15  Tolerance :   1.0000e-07
  Last RMS-Density change    ...    1.2430e-17  Tolerance :   5.0000e-09
  Last Orbital Gradient      ...    1.5732e-06  Tolerance :   1.0000e-05
  Last Orbital Rotation      ...    6.9194e-06  Tolerance :   1.0000e-05

             **** THE GBW FILE WAS UPDATED (N3.gbw) ****
             **** DENSITY FILE WAS UPDATED (N3.scfp) ****
             **** ENERGY FILE WAS UPDATED (N3.en.tmp) ****
             **** THE GBW FILE WAS UPDATED (N3.gbw) ****
             **** DENSITY FILE WAS UPDATED (N3.scfp) ****
----------------
ORBITAL ENERGIES
----------------

  NO   OCC          E(Eh)            E(eV) 
   0   2.0000     -88.944183     -2420.2943 
   1   2.0000     -88.921153     -2419.6676 
   2   2.0000     -88.915356     -2419.5098 
   3   2.0000     -88.905929     -2419.2533 
   4   2.0000     -88.902583     -2419.1623 
   5   2.0000     -24.725131      -672.8050 
   6   2.0000     -24.723007      -672.7472 
   7   2.0000     -24.720399      -672.6763 
   8   2.0000     -24.716743      -672.5768 
   9   2.0000     -19.210219      -522.7366 
  10   2.0000     -19.138343      -520.7808 
  11   2.0000     -14.411110      -392.1462 
  12   2.0000     -14.404176      -391.9576 
  13   2.0000     -14.350583      -390.4992 
  14   2.0000     -14.347981      -390.4284 
  15   2.0000     -14.334367      -390.0580 
  16   2.0000     -14.332448      -390.0057 
  17   2.0000     -14.330956      -389.9651 
  18   2.0000     -14.325416      -389.8144 
  19   2.0000     -10.299245      -280.2567 
  20   2.0000     -10.298582      -280.2387 
  21   2.0000     -10.293803      -280.1086 
  22   2.0000     -10.290359      -280.0149 
  23   2.0000     -10.281074      -279.7622 
  24   2.0000     -10.280448      -279.7452 
  25   2.0000     -10.266062      -279.3538 
  26   2.0000     -10.260590      -279.2048 
  27   2.0000     -10.256931      -279.1053 
  28   2.0000     -10.256869      -279.1036 
  29   2.0000     -10.255482      -279.0659 
  30   2.0000     -10.254501      -279.0392 
  31   2.0000     -10.253585      -279.0142 
  32   2.0000     -10.252033      -278.9720 
  33   2.0000     -10.243474      -278.7391 
  34   2.0000     -10.241893      -278.6961 
  35   2.0000     -10.239836      -278.6401 
  36   2.0000     -10.235746      -278.5288 
  37   2.0000     -10.235322      -278.5173 
  38   2.0000     -10.233659      -278.4720 
  39   2.0000     -10.233476      -278.4670 
  40   2.0000     -10.231399      -278.4105 
  41   2.0000     -10.230981      -278.3992 
  42   2.0000     -10.230459      -278.3849 
  43   2.0000     -10.229899      -278.3697 
  44   2.0000     -10.228781      -278.3393 
  45   2.0000     -10.227763      -278.3116 
  46   2.0000     -10.227721      -278.3104 
  47   2.0000     -10.226704      -278.2828 
  48   2.0000     -10.224506      -278.2229 
  49   2.0000     -10.223188      -278.1871 
  50   2.0000     -10.223124      -278.1853 
  51   2.0000     -10.221078      -278.1297 
  52   2.0000     -10.220288      -278.1082 
  53   2.0000     -10.218362      -278.0558 
  54   2.0000     -10.218183      -278.0509 
  55   2.0000     -10.218028      -278.0467 
  56   2.0000     -10.217053      -278.0201 
  57   2.0000     -10.215598      -277.9806 
  58   2.0000     -10.215010      -277.9646 
  59   2.0000     -10.212513      -277.8966 
  60   2.0000     -10.211236      -277.8619 
  61   2.0000     -10.210314      -277.8368 
  62   2.0000     -10.207199      -277.7520 
  63   2.0000     -10.206508      -277.7332 
  64   2.0000     -10.205096      -277.6948 
  65   2.0000     -10.200909      -277.5809 
  66   2.0000     -10.198915      -277.5266 
  67   2.0000     -10.197310      -277.4829 
  68   2.0000     -10.195387      -277.4306 
  69   2.0000     -10.193398      -277.3765 
  70   2.0000     -10.186301      -277.1833 
  71   2.0000     -10.184476      -277.1337 
  72   2.0000     -10.180023      -277.0125 
  73   2.0000     -10.175265      -276.8830 
  74   2.0000     -10.172728      -276.8140 
  75   2.0000     -10.172213      -276.8000 
  76   2.0000     -10.170975      -276.7663 
  77   2.0000     -10.166380      -276.6413 
  78   2.0000     -10.163922      -276.5744 
  79   2.0000      -8.015327      -218.1081 
  80   2.0000      -7.997441      -217.6214 
  81   2.0000      -7.987830      -217.3599 
  82   2.0000      -7.981529      -217.1885 
  83   2.0000      -7.977748      -217.0856 
  84   2.0000      -5.980013      -162.7244 
  85   2.0000      -5.972600      -162.5227 
  86   2.0000      -5.972168      -162.5110 
  87   2.0000      -5.960016      -162.1803 
  88   2.0000      -5.956301      -162.0792 
  89   2.0000      -5.954481      -162.0297 
  90   2.0000      -5.953799      -162.0111 
  91   2.0000      -5.947240      -161.8326 
  92   2.0000      -5.944481      -161.7575 
  93   2.0000      -5.940763      -161.6564 
  94   2.0000      -5.940739      -161.6557 
  95   2.0000      -5.939640      -161.6258 
  96   2.0000      -5.937286      -161.5618 
  97   2.0000      -5.936476      -161.5397 
  98   2.0000      -5.933687      -161.4638 
  99   2.0000      -1.267249       -34.4836 
 100   2.0000      -1.261436       -34.3254 
 101   2.0000      -1.253876       -34.1197 
 102   2.0000      -1.247841       -33.9555 
 103   2.0000      -1.108704       -30.1694 
 104   2.0000      -1.069180       -29.0939 
 105   2.0000      -1.045512       -28.4498 
 106   2.0000      -1.033180       -28.1143 
 107   2.0000      -1.030241       -28.0343 
 108   2.0000      -0.949372       -25.8337 
 109   2.0000      -0.945296       -25.7228 
 110   2.0000      -0.932462       -25.3736 
 111   2.0000      -0.931382       -25.3442 
 112   2.0000      -0.928425       -25.2637 
[...]
Level Shift                                    ...    0.000e+00
Constructing the preconditioner                ... o.k.
Building the initial guess                     ... o.k.
Number of trial vectors determined             ...     15


                       ****Iteration    0****
                <<< Triplet sigma vectors requested >>>

   Memory handling for direct AO based CIS:
   Memory per vector needed      ...   221 MB
   Memory needed                 ...  1997 MB
   Memory available              ...  2000 MB
   Number of vectors per batch   ...     9
   Number of batches             ...     1
   Time for densities:    31.332
   Time for K (COSX):  3465.579
   Time for XC-Integration:    89.391
   Time for Sigma-Completion:   898.319
   Size of expansion space: 9
   Lowest Energy          :     0.055940198289
   Maximum Energy change  :     0.063524969945 (vector 2)
   Maximum residual norm  :     0.000700783084

                       ****Iteration    1****
   Time for densities:    10.447
   Time for K (COSX):  3285.964
   Time for XC-Integration:    31.269
   Time for Sigma-Completion:   296.546
   Size of expansion space: 12
   Lowest Energy          :     0.052562954082
   Maximum Energy change  :     0.003818498224 (vector 1)
   Maximum residual norm  :     0.000053423230

                       ****Iteration    2****
   Time for densities:    10.414
   Time for K (COSX):  3328.093
   Time for XC-Integration:    31.650
   Time for Sigma-Completion:   296.996
   Size of expansion space: 15
   Lowest Energy          :     0.052383398205
   Maximum Energy change  :     0.000582201524 (vector 2)
   Maximum residual norm  :     0.000011587662
   Rebuilding the expansion space

                       ****Iteration    3****
   Time for densities:    20.859
   Time for K (COSX):  3401.789
   Time for XC-Integration:    62.416
   Time for Sigma-Completion:   592.540
   Size of expansion space: 6
   Lowest Energy          :     0.052372063692
   Maximum Energy change  :     0.000066455103 (vector 2)
   Maximum residual norm  :     0.000002343175

                       ****Iteration    4****
   Time for densities:    10.547
   Time for K (COSX):  3323.815
   Time for XC-Integration:    31.694
   Time for Sigma-Completion:   297.881
   Size of expansion space: 9
   Lowest Energy          :     0.052370519055
   Maximum Energy change  :     0.000020999694 (vector 2)
   Maximum residual norm  :     0.000000570650

                       ****Iteration    5****
   Time for densities:    10.427
   Time for K (COSX):  3355.755
   Time for XC-Integration:    32.441
   Time for Sigma-Completion:   296.342
   Size of expansion space: 12
   Lowest Energy          :     0.052370407201
   Maximum Energy change  :     0.000003526687 (vector 2)
   Maximum residual norm  :     0.000000049514

      *** CONVERGENCE OF RESIDUAL NORM REACHED ***

Storing the converged CI vectors               ... N3.cis3

                 *** DAVIDSON DONE ***

------------------------------------
TD-DFT/TDA EXCITED STATES (TRIPLETS)
------------------------------------

the weight of the individual excitations are printed if larger than 1.0e-02

STATE  1:  E=   0.052370 au      1.425 eV    11494.0 cm**-1
   290a -> 296a  :     0.039944 (c=  0.19986016)
   293a -> 296a  :     0.020474 (c=  0.14308587)
   294a -> 296a  :     0.888888 (c= -0.94280834)
   294a -> 297a  :     0.019058 (c=  0.13804891)

STATE  2:  E=   0.055130 au      1.500 eV    12099.7 cm**-1
   289a -> 295a  :     0.010090 (c=  0.10045144)
   290a -> 295a  :     0.018372 (c=  0.13554502)
   291a -> 295a  :     0.228832 (c= -0.47836386)
   292a -> 295a  :     0.401287 (c=  0.63347234)
   293a -> 295a  :     0.182492 (c= -0.42719058)
   294a -> 295a  :     0.111299 (c= -0.33361465)

STATE  3:  E=   0.060425 au      1.644 eV    13261.7 cm**-1
   291a -> 295a  :     0.022638 (c= -0.15045770)
   292a -> 295a  :     0.294817 (c=  0.54297038)
   293a -> 295a  :     0.544354 (c=  0.73780332)
   293a -> 298a  :     0.029223 (c=  0.17094703)
   293a -> 299a  :     0.020430 (c= -0.14293362)
   294a -> 295a  :     0.045974 (c=  0.21441462)

------------------------------
TD-DFT/TDA SPIN-ORBIT COUPLING
------------------------------

Calculating the spin-orbit integrals:             

Loading the effective charges         ... done
Entering the SOC calc. section        ... 
------------------------------------------------------------------------------
                         ORCA SPIN-ORBIT COUPLING CALCULATION
------------------------------------------------------------------------------

GBW file                                    ... N3.gbw
Input density                               ... N3.cisp0
Output integrals                            ... N3.cis
Operator type                               ... Mean-field/Effective potential
   One-Electron Terms                       ... 1
   Coulomb Contribution                     ... 2
   Exchange Contribution                    ... 3
   Correlation Contribution                 ... 0
   Maximum number of centers                ... 4
Setting up the integration grid             ... done
Evaluating density on the grid              ... (NumEl=  589.999894) done
Evaluating Coulomb term semi-analytically   ... done
One-Center Exchange (+SOO)                  ... done
Evaluating the spin-orbit operator          ... done
Transforming the SOC integrals              ... done
Constructing the SOC matrix:                ... done
Diagonalizing the SOC matrix:               ... done

      --------------------------------------------------------------------------------
                      CALCULATED SOCME BETWEEN TRIPLETS AND SINGLETS                  
      --------------------------------------------------------------------------------
           Root                          <T|HSO|S>  (Re, Im) cm-1                     
         T      S             Z                     X                     Y           
      --------------------------------------------------------------------------------
         1      0    (   0.00 ,    0.54 )    (   0.00 ,    0.30 )    (  -0.00 ,    1.50 )
         1      1    (   0.00 ,   -0.01 )    (   0.00 ,   -0.06 )    (  -0.00 ,    0.09 )
         1      2    (   0.00 ,    0.05 )    (   0.00 ,    0.22 )    (  -0.00 ,    0.58 )
         1      3    (   0.00 ,    0.10 )    (   0.00 ,    0.00 )    (  -0.00 ,   -0.10 )
         2      0    (   0.00 ,   -9.34 )    (   0.00 ,   -9.81 )    (  -0.00 ,  -25.11 )
         2      1    (   0.00 ,    1.66 )    (   0.00 ,   -2.53 )    (  -0.00 ,   -5.84 )
         2      2    (   0.00 ,    0.33 )    (   0.00 ,   -5.53 )    (  -0.00 ,  -19.05 )
         2      3    (   0.00 ,   -0.15 )    (   0.00 ,    0.32 )    (  -0.00 ,    1.52 )
         3      0    (   0.00 ,   21.14 )    (   0.00 ,   23.04 )    (  -0.00 ,   67.60 )
         3      1    (   0.00 ,   -1.02 )    (   0.00 ,   -1.54 )    (  -0.00 ,   -2.83 )
         3      2    (   0.00 ,   -0.22 )    (   0.00 ,   -1.36 )    (  -0.00 ,   -2.89 )
         3      3    (   0.00 ,    0.50 )    (   0.00 ,   -0.13 )    (  -0.00 ,   -0.69 )

SOC stabilization of the ground state:  -0.4858 cm-1
Eigenvalues of the SOC matrix:

   State:        cm-1         eV
     0:          0.00         0.0000
     1:      11494.46         1.4251
     2:      11494.46         1.4251
     3:      11494.46         1.4251
     4:      12099.79         1.5002
     5:      12099.79         1.5002
     6:      12100.04         1.5002
     7:      13262.46         1.6443
     8:      13262.56         1.6443
     9:      13262.71         1.6444
    10:      13929.08         1.7270
    11:      15044.49         1.8653
    12:      17014.12         2.1095

The threshold for printing is 0.0100
Eigenvectors of the SOC matrix:

             E(cm-1)  Weight      Real         Imag     : Root  Spin  Ms
 STATE  0:      0.00
                      0.99996      0.94644      0.32282 : 0     0     0
 STATE  1:  11494.46
                      0.10125      0.31585      0.03857 : 1     1     0
                      0.44937      0.60320      0.29244 : 1     1    -1
                      0.44937     -0.65585      0.13868 : 1     1     1
 STATE  2:  11494.46
                      0.83641      0.85251      0.33112 : 1     1     0
                      0.08179     -0.28599      0.00249 : 1     1    -1
                      0.08179      0.20933      0.19488 : 1     1     1
 STATE  3:  11494.46
                      0.06234      0.22105      0.11608 : 1     1     0
                      0.46883      0.45499     -0.51168 : 1     1    -1
                      0.46883      0.16298     -0.66503 : 1     1     1
 STATE  4:  12099.79
                      0.49898     -0.70003      0.09458 : 2     1    -1
                      0.49898      0.45672     -0.53888 : 2     1     1
 STATE  5:  12099.79
                      0.99576     -0.93912     -0.33738 : 2     1     0
 STATE  6:  12100.04
                      0.49887      0.51813     -0.48001 : 2     1    -1
                      0.49887      0.06084     -0.70368 : 2     1     1
 STATE  7:  13262.46
                      0.45638     -0.26352      0.62204 : 3     1     0
                      0.27174     -0.36265     -0.37447 : 3     1    -1
                      0.27174     -0.52129      0.00000 : 3     1     1
 STATE  8:  13262.56
                      0.49754      0.54999      0.44164 : 3     1    -1
                      0.49754     -0.70537      0.00000 : 3     1     1
 STATE  9:  13262.71
                      0.53870     -0.19195      0.70842 : 3     1     0
                      0.23054      0.41446      0.24240 : 3     1    -1
                      0.23054      0.48014      0.00000 : 3     1     1
 STATE 10:  13929.08
                      0.99996      0.88131      0.47250 : 1     0     0
 STATE 11:  15044.49
                      0.99995     -0.90447     -0.42648 : 2     0     0
 STATE 12:  17014.12
                      1.00000     -0.98271     -0.18515 : 3     0     0

-----------------------------
TD-DFT/TDA-EXCITATION SPECTRA
-----------------------------

Center of mass = ( 18.3585,  0.3748, -4.3335)
Calculating the Dipole integrals                  ... done
Transforming integrals                            ... done
Calculating the Linear Momentum integrals         ... done
Transforming integrals                            ... done
Calculating angular momentum integrals            ... done
Transforming integrals                            ... done

-----------------------------------------------------------------------------
         ABSORPTION SPECTRUM VIA TRANSITION ELECTRIC DIPOLE MOMENTS
-----------------------------------------------------------------------------
State   Energy    Wavelength  fosc         T2        TX        TY        TZ  
        (cm-1)      (nm)                 (au**2)    (au)      (au)      (au) 
-----------------------------------------------------------------------------
   1   13928.5    717.9   0.032249584   0.76224  -0.71749   0.32636   0.37542
   2   15043.9    664.7   0.058682798   1.28418  -0.83896   0.53136   0.54589
   3   17013.6    587.8   1.405198079  27.19042  -4.54349   1.44687   2.11038
   4   11494.0    870.0   spin forbidden (mult=3)
   5   12099.7    826.5   spin forbidden (mult=3)
   6   13261.7    754.0   spin forbidden (mult=3)

-----------------------------------------------------------------------------
         ABSORPTION SPECTRUM VIA TRANSITION VELOCITY DIPOLE MOMENTS
-----------------------------------------------------------------------------
State   Energy    Wavelength   fosc        P2         PX        PY        PZ  
        (cm-1)      (nm)                 (au**2)     (au)      (au)      (au) 
-----------------------------------------------------------------------------
   1   13928.5    717.9   0.004619108   0.00044   0.01080  -0.01789   0.00172
   2   15043.9    664.7   0.022853145   0.00235   0.03835  -0.02418   0.01715
   3   17013.6    587.8   0.171390674   0.01993   0.11446  -0.05769  -0.05915
   4   11494.0    870.0   spin forbidden (mult=3)
   5   12099.7    826.5   spin forbidden (mult=3)
   6   13261.7    754.0   spin forbidden (mult=3)

-------------------------------------------------------------------
                             CD SPECTRUM
-------------------------------------------------------------------
State  Energy     Wavelength     R         MX        MY        MZ   
       (cm-1)       (nm)     (1e40*cgs)   (au)      (au)      (au)  
-------------------------------------------------------------------
   1   13928.5    717.9     16.08019   0.01142   0.03880   0.07894
   2   15043.9    664.7     50.39221   0.00687   0.26743  -0.05395
   3   17013.6    587.8    103.40398  -0.16812  -0.03923  -0.23113
   4   11494.0    870.0 spin forbidden
   5   12099.7    826.5 spin forbidden
   6   13261.7    754.0 spin forbidden

-------------------------------------------
SOC CORRECTED TD-DFT/TDA-EXCITATION SPECTRA
--------------------------------------------

-----------------------------------------------------------------------------
  SOC CORRECTED ABSORPTION SPECTRUM VIA TRANSITION ELECTRIC DIPOLE MOMENTS*  
-----------------------------------------------------------------------------
State   Energy  Wavelength   fosc         T2         TX        TY        TZ  
        (cm-1)    (nm)                  (au**2)     (au)      (au)      (au) 
-----------------------------------------------------------------------------
   1   11494.5    870.0   0.000000001   0.00000   0.00011   0.00010   0.00006
   2   11494.5    870.0   0.000000000   0.00000   0.00009   0.00001   0.00004
   3   11494.5    870.0   0.000000036   0.00000   0.00052   0.00083   0.00029
   4   12099.8    826.5   0.000000018   0.00000   0.00047   0.00040   0.00033
   5   12099.8    826.5   0.000001569   0.00004   0.00448   0.00367   0.00303
   6   12100.0    826.4   0.000004969   0.00014   0.00675   0.00784   0.00531
   7   13262.5    754.0   0.000022325   0.00055   0.01600   0.01352   0.01074
   8   13262.6    754.0   0.000000061   0.00000   0.00089   0.00062   0.00057
   9   13262.7    754.0   0.000056219   0.00140   0.02488   0.02202   0.01707
  10   13929.1    717.9   0.032234364   0.76186   0.71731   0.32627   0.37532
  11   15044.5    664.7   0.058688862   1.28426   0.83907   0.53126   0.54588
  12   17014.1    587.7   1.405179714  27.18929   4.54339   1.44686   2.11034

-----------------------------------------------------------------------------
  SOC CORRECTED ABSORPTION SPECTRUM VIA TRANSITION VELOCITY DIPOLE MOMENTS*  
-----------------------------------------------------------------------------
State   Energy  Wavelength   fosc         P2         PX        PY        PZ  
        (cm-1)    (nm)                  (au**2)     (au)      (au)      (au) 
-----------------------------------------------------------------------------
   1   11494.5    870.0   0.000000000   0.00000   0.00000   0.00000   0.00000
   2   11494.5    870.0   0.000000000   0.00000   0.00000   0.00000   0.00000
   3   11494.5    870.0   0.000000003   0.00000   0.00001   0.00001   0.00000
   4   12099.8    826.5   0.000000006   0.00000   0.00002   0.00001   0.00001
   5   12099.8    826.5   0.000000009   0.00000   0.00001   0.00002   0.00002
   6   12100.0    826.4   0.000002059   0.00000   0.00031   0.00025   0.00011
   7   13262.5    754.0   0.000000239   0.00000   0.00011   0.00010   0.00001
   8   13262.6    754.0   0.000000006   0.00000   0.00001   0.00002   0.00001
   9   13262.7    754.0   0.000000336   0.00000   0.00012   0.00013   0.00002
  10   13929.1    717.9   0.004617089   0.00044   0.01080   0.01789   0.00172
  11   15044.5    664.7   0.022851051   0.00235   0.03835   0.02418   0.01715
  12   17014.1    587.7   0.171379171   0.01993   0.11446   0.05769   0.05915

-------------------------------------------------------------------
                    SOC CORRECTED CD SPECTRUM*                     
-------------------------------------------------------------------
State   Energy Wavelength       R         MX        MY        MZ   
        (cm-1)   (nm)       (1e40*sgs)   (au)      (au)      (au)  
-------------------------------------------------------------------
   1   11494.5    870.0      0.00000   0.00000   0.00000   0.00000
   2   11494.5    870.0      0.00000   0.00000   0.00001   0.00000
   3   11494.5    870.0      0.00003   0.00005   0.00008   0.00009
   4   12099.8    826.5      0.00003   0.00000   0.00017   0.00003
   5   12099.8    826.5      0.00007   0.00006   0.00005   0.00007
   6   12100.0    826.4      0.00884   0.00000   0.00239   0.00000
   7   13262.5    754.0      0.00391   0.00003   0.00051   0.00009
   8   13262.6    754.0      0.00004   0.00001   0.00010   0.00006
   9   13262.7    754.0      0.00930   0.00000   0.00069   0.00028
  10   13929.1    717.9     16.07226   0.01142   0.03878   0.07894
  11   15044.5    664.7     50.37754   0.00687   0.26742   0.05394
  12   17014.1    587.7    103.39769   0.16812   0.03923   0.23112

*The X,Y and Z components are the absolute values of the complex numbers

Total run time:    82270.829 sec

           *** ORCA-CIS/TD-DFT FINISHED WITHOUT ERROR ***

---------------------------
SOC CIS/TD-DFT TOTAL ENERGY
---------------------------

    E(SCF)        =  -5289.411883413 Eh
    E(SOC CIS)    =      0.052370406 Eh (SOC Root  1)
    ----------------------------- ---------
    E(tot)        =  -5289.359513007 Eh


-------------------------   --------------------
FINAL SINGLE POINT ENERGY     -5289.359513006855
-------------------------   --------------------


                            ***************************************
                            *     ORCA property calculations      *
                            ***************************************

                                    ---------------------
                                    Active property flags
                                    ---------------------
   (+) Dipole Moment


------------------------------------------------------------------------------
                       ORCA ELECTRIC PROPERTIES CALCULATION
------------------------------------------------------------------------------

Dipole Moment Calculation                       ... on
Quadrupole Moment Calculation                   ... off
Polarizability Calculation                      ... off
GBWName                                         ... N3.gbw
Electron density file                           ... N3.scfp
The origin for moment calculation is the CENTER OF MASS  = (18.358450,  0.374845 -4.333501)

-------------
DIPOLE MOMENT
-------------
                                X             Y             Z
Electronic contribution:    -27.87705     -76.43512     -24.97434
Nuclear contribution   :     28.56829      79.34874      24.39601
                        -----------------------------------------
Total Dipole Moment    :      0.69124       2.91362      -0.57832
                        -----------------------------------------
Magnitude (a.u.)       :      3.04983
Magnitude (Debye)      :      7.75205



--------------------
Rotational spectrum 
--------------------
 
Rotational constants in cm-1:     0.001587     0.000264     0.000236 
Rotational constants in MHz :    47.588505     7.915173     7.071037 

 Dipole components along the rotational axes: 
x,y,z [a.u.] :     0.331642    -2.924277    -0.800040 
x,y,z [Debye]:     0.842966    -7.432921    -2.033541 

 

Timings for individual modules:

Sum of individual times         ...   105259.478 sec (=1754.325 min)
GTO integral calculation        ...        8.611 sec (=   0.144 min)   0.0 %
SCF iterations                  ...    22979.871 sec (= 382.998 min)  21.8 %
CIS module                      ...    82270.996 sec (=1371.183 min)  78.2 %
                             ****ORCA TERMINATED NORMALLY****
TOTAL RUN TIME: 1 days 5 hours 14 minutes 21 seconds 329 msec
