
                                 *****************
                                 * O   R   C   A *
                                 *****************

           --- An Ab Initio, DFT and Semiempirical electronic structure package ---

                  #######################################################
                  #                        -***-                        #
                  #          Department of theory and spectroscopy      #
                  #               Directorship: Frank Neese             #
                  #        Max Planck Institute fuer Kohlenforschung    #
                  #                Kaiser Wilhelm Platz 1               #
                  #                 D-45470 Muelheim/Ruhr               #
                  #                      Germany                        #
                  #                                                     #
                  #                  All rights reserved                #
                  #                        -***-                        #
                  #######################################################


                         Program Version 4.2.0 -  RELEASE  -


 With contributions from (in alphabetic order):
   Daniel Aravena         : Magnetic Suceptibility
   Michael Atanasov       : Ab Initio Ligand Field Theory (pilot matlab implementation)
   Alexander A. Auer      : GIAO ZORA, VPT2
   Ute Becker             : Parallelization
   Giovanni Bistoni       : ED, misc. LED, open-shell LED, HFLED
   Martin Brehm           : Molecular dynamics
   Dmytro Bykov           : SCF Hessian
   Vijay G. Chilkuri      : MRCI spin determinant printing, contributions to CSF-ICE
   Dipayan Datta          : RHF DLPNO-CCSD density
   Achintya Kumar Dutta   : EOM-CC, STEOM-CC
   Dmitry Ganyushin       : Spin-Orbit,Spin-Spin,Magnetic field MRCI
   Miquel Garcia          : C-PCM Hessian, Gaussian charge scheme
   Yang Guo               : DLPNO-NEVPT2, CIM, IAO-localization
   Andreas Hansen         : Spin unrestricted coupled pair/coupled cluster methods
   Benjamin Helmich-Paris : CASSCF linear response (MC-RPA)
   Lee Huntington         : MR-EOM, pCC
   Robert Izsak           : Overlap fitted RIJCOSX, COSX-SCS-MP3, EOM
   Christian Kollmar      : KDIIS, OOCD, Brueckner-CCSD(T), CCSD density
   Simone Kossmann        : Meta GGA functionals, TD-DFT gradient, OOMP2, MP2 Hessian
   Martin Krupicka        : AUTO-CI
   Lucas Lang             : DCDCAS
   Dagmar Lenk            : GEPOL surface, SMD
   Dimitrios Liakos       : Extrapolation schemes; Compound Job, initial MDCI parallelization
   Dimitrios Manganas     : Further ROCIS development; embedding schemes
   Dimitrios Pantazis     : SARC Basis sets
   Taras Petrenko         : DFT Hessian,TD-DFT gradient, ASA, ECA, R-Raman, ABS, FL, XAS/XES, NRVS
   Peter Pinski           : DLPNO-MP2, DLPNO-MP2 Gradient
   Christoph Reimann      : Effective Core Potentials
   Marius Retegan         : Local ZFS, SOC
   Christoph Riplinger    : Optimizer, TS searches, QM/MM, DLPNO-CCSD(T), (RO)-DLPNO pert. Triples
   Tobias Risthaus        : Range-separated hybrids, TD-DFT gradient, RPA, STAB
   Michael Roemelt        : Original ROCIS implementation
   Masaaki Saitow         : Open-shell DLPNO-CCSD energy and density
   Barbara Sandhoefer     : DKH picture change effects
   Avijit Sen             : IP-ROCIS
   Kantharuban Sivalingam : CASSCF convergence, NEVPT2, FIC-MRCI
   Bernardo de Souza      : ESD, SOC TD-DFT
   Georgi Stoychev        : AutoAux, RI-MP2 NMR
   Willem Van den Heuvel  : Paramagnetic NMR
   Boris Wezisla          : Elementary symmetry handling
   Frank Wennmohs         : Technical directorship


 We gratefully acknowledge several colleagues who have allowed us to
 interface, adapt or use parts of their codes:
   Stefan Grimme, W. Hujo, H. Kruse,             : VdW corrections, initial TS optimization,
                  C. Bannwarth                     DFT functionals, gCP, sTDA/sTD-DF
   Ed Valeev, F. Pavosevic, A. Kumar             : LibInt (2-el integral package), F12 methods
   Garnet Chan, S. Sharma, J. Yang, R. Olivares  : DMRG
   Ulf Ekstrom                                   : XCFun DFT Library
   Mihaly Kallay                                 : mrcc  (arbitrary order and MRCC methods)
   Andreas Klamt, Michael Diedenhofen            : otool_cosmo (COSMO solvation model)
   Jiri Pittner, Ondrej Demel                    : Mk-CCSD
   Frank Weinhold                                : gennbo (NPA and NBO analysis)
   Christopher J. Cramer and Donald G. Truhlar   : smd solvation model
   Lars Goerigk                                  : TD-DFT with DH, B97 family of functionals
   V. Asgeirsson, H. Jonsson                     : NEB implementation
   FAccTs GmbH                                   : IRC, NEB, NEB-TS, Multilevel, MM, QM/MM, CI optimization
   S Lehtola, MJT Oliveira, MAL Marques          : LibXC Library


 Your calculation uses the libint2 library for the computation of 2-el integrals
 For citations please refer to: http://libint.valeyev.net

 Your ORCA version has been built with support for libXC version: 4.2.3
 For citations please refer to: https://tddft.org/programs/libxc/

 This ORCA versions uses:
   CBLAS   interface :  Fast vector & matrix operations
   LAPACKE interface :  Fast linear algebra routines
   SCALAPACK package :  Parallel linear algebra routines


----- Orbital basis set information -----
Your calculation utilizes the basis: def2-TZVP
   F. Weigend and R. Ahlrichs, Phys. Chem. Chem. Phys. 7, 3297 (2005).

----- AuxJ basis set information -----
Your calculation utilizes the auxiliary basis: def2/J
   F. Weigend, Phys. Chem. Chem. Phys. 8, 1057 (2006).

================================================================================
                                        WARNINGS
                       Please study these warnings very carefully!
================================================================================

INFO   : Checking CIS options ...

WARNING: (CIS/TDDFT): Spin-orbit needs TRIPLETS set to TRUE
  ===> : ajusting flags

WARNING: CIS/ROCIS methods need fully converged wavefunctions
  ===> : Setting SCFConvForced true
         You can overwrite this default with %scf ConvForced false 


INFO   : the flag for use of LIBINT has been found!

================================================================================
                                       INPUT FILE
================================================================================
NAME = N65-2FIC.inp
|  1> # ORCA input file
|  2> # N65-2FIC.out: Geometry 194
|  3> ! B3LYP def2-TZVP def2/J RIJCOSX Grid4 TightSCF
|  4> 
|  5> %maxcore 6000
|  6> %tddft
|  7>   maxdim 5
|  8>   nroots 3
|  9>   dosoc true
| 10>   end
| 11> %pal
| 12>   nprocs 6
| 13>   end
| 14> 
| 15> 
| 16> * xyz 0 1
| 17>    C       -3.28252        -0.34484         0.62218
| 18>    C       -2.17145        -0.89766         1.23635
| 19>    C       -0.97127        -0.12925         1.32676
| 20>    C       -0.98761         1.24739         0.93146
| 21>    C       -2.16624         1.78917         0.35800
| 22>    C       -3.27782         0.99470         0.17272
| 23>    C        0.26613        -0.72645         1.76109
| 24>    C        1.41866         0.05200         1.89042
| 25>    C        1.38156         1.41935         1.61526
| 26>    C        0.19870         2.01235         1.13315
| 27>    C       -2.25850        -2.24193         1.97539
| 28>    C       -0.89798        -2.91235         1.95478
| 29>    C        0.26553        -2.15832         1.94298
| 30>    C        2.51716         2.44694         1.73500
| 31>    C        1.77515         3.70657         1.32164
| 32>    C        0.46764         3.42184         0.94819
| 33>    C       -3.27481        -3.19449         1.33148
| 34>    C       -2.63124        -1.91951         3.45165
| 35>    C       -4.34315        -3.75874         2.03096
| 36>    C       -5.17433        -4.70988         1.42670
| 37>    C       -4.96266        -5.12605         0.10884
| 38>    C       -3.88749        -4.54875        -0.59253
| 39>    C       -3.06469        -3.60031         0.00200
| 40>    C       -3.64954        -1.00002         3.74621
| 41>    C       -4.01287        -0.72203         5.06171
| 42>    C       -3.36688        -1.34369         6.14217
| 43>    C       -2.35357        -2.26217         5.84555
| 44>    C       -1.99101        -2.54751         4.52612
| 45>    C       -3.74270        -1.00865         7.56760
| 46>    C       -3.52674         0.46712         7.92043
| 47>    C       -5.84226        -6.14950        -0.57770
| 48>    C       -6.74228        -6.98002         0.33486
| 49>    C        3.03895         2.62168         3.16418
| 50>    C        3.63676         2.18662         0.64682
| 51>    C        2.35893         2.09814         4.26931
| 52>    C        2.81805         2.32780         5.56936
| 53>    C        3.96559         3.09031         5.81266
| 54>    C        4.64109         3.61987         4.70165
| 55>    C        4.19040         3.38803         3.40515
| 56>    C        4.44768         3.36850         7.21757
| 57>    C        4.29246         4.83939         7.62089
| 58>    C        2.07726         5.07049         1.18474
| 59>    C        0.98816         5.82669         0.67805
| 60>    S       -0.42850         4.82127         0.40898
| 61>    S        3.45826         6.06842         1.46091
| 62>    C        2.59767         7.49460         0.84884
| 63>    C        1.28235         7.18069         0.47763
| 64>    C       -0.61210        -4.29374         2.07202
| 65>    C        0.76813        -4.58741         2.15032
| 66>    S        1.72730        -3.13018         2.07995
| 67>    S       -1.56271        -5.73569         2.11643
| 68>    C       -0.10171        -6.73766         2.18198
| 69>    C        1.06056        -5.95733         2.20392
| 70>    C       -0.29009        -8.14338         2.23969
| 71>    C        0.54043        -9.22336         2.04121
| 72>    C        4.97499         1.62842         1.07166
| 73>    C        6.13200         2.21853         0.54518
| 74>    C        7.40370         1.75737         0.88751
| 75>    C        7.56772         0.68817         1.77602
| 76>    C        6.40929         0.09596         2.30430
| 77>    C        5.13856         0.55609         1.96072
| 78>    C        8.94285         0.20815         2.18072
| 79>    C        9.25586         0.45564         3.66074
| 80>    C        1.86550        -9.42362         1.47575
| 81>    C        2.32335       -10.77515         1.89196
| 82>    C        1.25181       -11.44641         2.51710
| 83>    C        0.07540       -10.54137         2.59109
| 84>    C        3.53629       -11.44794         1.69318
| 85>    C        3.63206       -12.76648         2.12994
| 86>    C        2.55471       -13.42219         2.75396
| 87>    C        1.34525       -12.76455         2.95128
| 88>    F        2.71629       -14.68415         3.14150
| 89>    F        4.76377       -13.44289         1.95319
| 90>    O       -1.02494       -10.80131         3.03253
| 91>    C        2.51422        -8.62680         0.54466
| 92>    C        3.84863        -8.89133         0.10640
| 93>    C        1.86391        -7.55331        -0.13203
| 94>    N        4.94468        -9.09086        -0.22517
| 95>    N        1.33199        -6.69893        -0.71337
| 96>    C        3.28178         8.73306         0.91353
| 97>    C        3.03148         9.98408         0.39405
| 98>    C        2.15471        10.52981        -0.62765
| 99>    C        2.10080        12.00071        -0.41897
|100>    C        3.04690        12.35824         0.56405
|101>    C        3.71896        11.13420         1.07086
|102>    C        1.34543        13.00019        -1.04514
|103>    C        1.55696        14.31793        -0.65010
|104>    C        2.49382        14.65805         0.34282
|105>    C        3.26041        13.67472         0.95832
|106>    O        4.60941        11.07149         1.89334
|107>    C        1.61761         9.87016        -1.72304
|108>    C        0.74236        10.51219        -2.65327
|109>    C        1.97896         8.53528        -2.06913
|110>    N        0.01326        11.02995        -3.39597
|111>    N        2.28411         7.45550        -2.37231
|112>    F        2.62555        15.93751         0.68016
|113>    F        0.86233        15.29692        -1.22071
|114>    H       -4.18270        -0.94934         0.50217
|115>    H       -2.18066         2.82904         0.02963
|116>    H       -4.16816         1.40542        -0.30832
|117>    H        2.34589        -0.41604         2.22248
|118>    H       -4.52753        -3.47234         3.06588
|119>    H       -5.98831        -5.13751         2.01328
|120>    H       -3.67956        -4.87071        -1.61672
|121>    H       -2.22442        -3.18478        -0.55890
|122>    H       -4.16835        -0.48736         2.93737
|123>    H       -4.81088         0.00068         5.25303
|124>    H       -1.82816        -2.76729         6.66012
|125>    H       -1.19482        -3.26854         4.34408
|126>    H       -3.15861        -1.64323         8.25221
|127>    H       -4.80204        -1.27328         7.73588
|128>    H       -2.47164         0.75495         7.78687
|129>    H       -3.81332         0.67329         8.96396
|130>    H       -4.12971         1.12519         7.27710
|131>    H       -5.19266        -6.82145        -1.16489
|132>    H       -6.46531        -5.62298        -1.32462
|133>    H       -6.15257        -7.53220         1.08434
|134>    H       -7.31630        -7.71291        -0.25259
|135>    H       -7.46911        -6.35418         0.87726
|136>    H        3.83470         3.14012         0.13911
|137>    H        3.18740         1.54074        -0.12395
|138>    H        1.45508         1.50645         4.12334
|139>    H        2.26772         1.89901         6.41073
|140>    H        5.54473         4.21662         4.85274
|141>    H        4.76366         3.79324         2.57229
|142>    H        5.50880         3.07525         7.30515
|143>    H        3.89449         2.72966         7.92375
|144>    H        4.86002         5.49859         6.94682
|145>    H        4.66127         5.01305         8.64438
|146>    H        3.23718         5.15144         7.57519
|147>    H        0.57308         7.92531         0.12157
|148>    H        2.06118        -6.37791         2.27915
|149>    H       -1.28708        -8.46304         2.57355
|150>    H        6.03284         3.06742        -0.13717
|151>    H        8.28392         2.24354         0.45895
|152>    H        6.50474        -0.74020         3.00269
|153>    H        4.26972         0.08381         2.41871
|154>    H        9.69680         0.71002         1.55412
|155>    H        9.03276        -0.87067         1.96139
|156>    H        9.20322         1.52967         3.89995
|157>    H       10.26205         0.09134         3.92266
|158>    H        8.53579        -0.06139         4.31298
|159>    H        4.40399       -11.00163         1.21170
|160>    H        0.50189       -13.27236         3.42209
|161>    H        4.15317         8.74663         1.58317
|162>    H        0.60453        12.80639        -1.81804
|163>    H        3.99887        13.93131         1.71976
|164> *
|165> 
|166>                          ****END OF INPUT****
================================================================================

                       ****************************
                       * Single Point Calculation *
                       ****************************

---------------------------------
CARTESIAN COORDINATES (ANGSTROEM)
---------------------------------
  C     -3.282520   -0.344840    0.622180
  C     -2.171450   -0.897660    1.236350
  C     -0.971270   -0.129250    1.326760
  C     -0.987610    1.247390    0.931460
  C     -2.166240    1.789170    0.358000
  C     -3.277820    0.994700    0.172720
  C      0.266130   -0.726450    1.761090
  C      1.418660    0.052000    1.890420
  C      1.381560    1.419350    1.615260
  C      0.198700    2.012350    1.133150
  C     -2.258500   -2.241930    1.975390
  C     -0.897980   -2.912350    1.954780
  C      0.265530   -2.158320    1.942980
  C      2.517160    2.446940    1.735000
  C      1.775150    3.706570    1.321640
  C      0.467640    3.421840    0.948190
  C     -3.274810   -3.194490    1.331480
  C     -2.631240   -1.919510    3.451650
  C     -4.343150   -3.758740    2.030960
  C     -5.174330   -4.709880    1.426700
  C     -4.962660   -5.126050    0.108840
  C     -3.887490   -4.548750   -0.592530
  C     -3.064690   -3.600310    0.002000
  C     -3.649540   -1.000020    3.746210
  C     -4.012870   -0.722030    5.061710
  C     -3.366880   -1.343690    6.142170
  C     -2.353570   -2.262170    5.845550
  C     -1.991010   -2.547510    4.526120
  C     -3.742700   -1.008650    7.567600
  C     -3.526740    0.467120    7.920430
  C     -5.842260   -6.149500   -0.577700
  C     -6.742280   -6.980020    0.334860
  C      3.038950    2.621680    3.164180
  C      3.636760    2.186620    0.646820
  C      2.358930    2.098140    4.269310
  C      2.818050    2.327800    5.569360
  C      3.965590    3.090310    5.812660
  C      4.641090    3.619870    4.701650
  C      4.190400    3.388030    3.405150
  C      4.447680    3.368500    7.217570
  C      4.292460    4.839390    7.620890
  C      2.077260    5.070490    1.184740
  C      0.988160    5.826690    0.678050
  S     -0.428500    4.821270    0.408980
  S      3.458260    6.068420    1.460910
  C      2.597670    7.494600    0.848840
  C      1.282350    7.180690    0.477630
  C     -0.612100   -4.293740    2.072020
  C      0.768130   -4.587410    2.150320
  S      1.727300   -3.130180    2.079950
  S     -1.562710   -5.735690    2.116430
  C     -0.101710   -6.737660    2.181980
  C      1.060560   -5.957330    2.203920
  C     -0.290090   -8.143380    2.239690
  C      0.540430   -9.223360    2.041210
  C      4.974990    1.628420    1.071660
  C      6.132000    2.218530    0.545180
  C      7.403700    1.757370    0.887510
  C      7.567720    0.688170    1.776020
  C      6.409290    0.095960    2.304300
  C      5.138560    0.556090    1.960720
  C      8.942850    0.208150    2.180720
  C      9.255860    0.455640    3.660740
  C      1.865500   -9.423620    1.475750
  C      2.323350  -10.775150    1.891960
  C      1.251810  -11.446410    2.517100
  C      0.075400  -10.541370    2.591090
  C      3.536290  -11.447940    1.693180
  C      3.632060  -12.766480    2.129940
  C      2.554710  -13.422190    2.753960
  C      1.345250  -12.764550    2.951280
  F      2.716290  -14.684150    3.141500
  F      4.763770  -13.442890    1.953190
  O     -1.024940  -10.801310    3.032530
  C      2.514220   -8.626800    0.544660
  C      3.848630   -8.891330    0.106400
  C      1.863910   -7.553310   -0.132030
  N      4.944680   -9.090860   -0.225170
  N      1.331990   -6.698930   -0.713370
  C      3.281780    8.733060    0.913530
  C      3.031480    9.984080    0.394050
  C      2.154710   10.529810   -0.627650
  C      2.100800   12.000710   -0.418970
  C      3.046900   12.358240    0.564050
  C      3.718960   11.134200    1.070860
  C      1.345430   13.000190   -1.045140
  C      1.556960   14.317930   -0.650100
  C      2.493820   14.658050    0.342820
  C      3.260410   13.674720    0.958320
  O      4.609410   11.071490    1.893340
  C      1.617610    9.870160   -1.723040
  C      0.742360   10.512190   -2.653270
  C      1.978960    8.535280   -2.069130
  N      0.013260   11.029950   -3.395970
  N      2.284110    7.455500   -2.372310
  F      2.625550   15.937510    0.680160
  F      0.862330   15.296920   -1.220710
  H     -4.182700   -0.949340    0.502170
  H     -2.180660    2.829040    0.029630
  H     -4.168160    1.405420   -0.308320
  H      2.345890   -0.416040    2.222480
  H     -4.527530   -3.472340    3.065880
  H     -5.988310   -5.137510    2.013280
  H     -3.679560   -4.870710   -1.616720
  H     -2.224420   -3.184780   -0.558900
  H     -4.168350   -0.487360    2.937370
  H     -4.810880    0.000680    5.253030
  H     -1.828160   -2.767290    6.660120
  H     -1.194820   -3.268540    4.344080
  H     -3.158610   -1.643230    8.252210
  H     -4.802040   -1.273280    7.735880
  H     -2.471640    0.754950    7.786870
  H     -3.813320    0.673290    8.963960
  H     -4.129710    1.125190    7.277100
  H     -5.192660   -6.821450   -1.164890
  H     -6.465310   -5.622980   -1.324620
  H     -6.152570   -7.532200    1.084340
  H     -7.316300   -7.712910   -0.252590
  H     -7.469110   -6.354180    0.877260
  H      3.834700    3.140120    0.139110
  H      3.187400    1.540740   -0.123950
  H      1.455080    1.506450    4.123340
  H      2.267720    1.899010    6.410730
  H      5.544730    4.216620    4.852740
  H      4.763660    3.793240    2.572290
  H      5.508800    3.075250    7.305150
  H      3.894490    2.729660    7.923750
  H      4.860020    5.498590    6.946820
  H      4.661270    5.013050    8.644380
  H      3.237180    5.151440    7.575190
  H      0.573080    7.925310    0.121570
  H      2.061180   -6.377910    2.279150
  H     -1.287080   -8.463040    2.573550
  H      6.032840    3.067420   -0.137170
  H      8.283920    2.243540    0.458950
  H      6.504740   -0.740200    3.002690
  H      4.269720    0.083810    2.418710
  H      9.696800    0.710020    1.554120
  H      9.032760   -0.870670    1.961390
  H      9.203220    1.529670    3.899950
  H     10.262050    0.091340    3.922660
  H      8.535790   -0.061390    4.312980
  H      4.403990  -11.001630    1.211700
  H      0.501890  -13.272360    3.422090
  H      4.153170    8.746630    1.583170
  H      0.604530   12.806390   -1.818040
  H      3.998870   13.931310    1.719760

----------------------------
CARTESIAN COORDINATES (A.U.)
----------------------------
  NO LB      ZA    FRAG     MASS         X           Y           Z
   0 C     6.0000    0    12.011   -6.203064   -0.651653    1.175750
   1 C     6.0000    0    12.011   -4.103446   -1.696332    2.336363
   2 C     6.0000    0    12.011   -1.835434   -0.244247    2.507213
   3 C     6.0000    0    12.011   -1.866312    2.357225    1.760204
   4 C     6.0000    0    12.011   -4.093600    3.381041    0.676522
   5 C     6.0000    0    12.011   -6.194182    1.879711    0.326393
   6 C     6.0000    0    12.011    0.502913   -1.372792    3.327978
   7 C     6.0000    0    12.011    2.680879    0.098266    3.572376
   8 C     6.0000    0    12.011    2.610770    2.682183    3.052399
   9 C     6.0000    0    12.011    0.375489    3.802790    2.141343
  10 C     6.0000    0    12.011   -4.267946   -4.236634    3.732946
  11 C     6.0000    0    12.011   -1.696936   -5.503544    3.693999
  12 C     6.0000    0    12.011    0.501779   -4.078634    3.671700
  13 C     6.0000    0    12.011    4.756743    4.624046    3.278675
  14 C     6.0000    0    12.011    3.354547    7.004402    2.497538
  15 C     6.0000    0    12.011    0.883712    6.466340    1.791819
  16 C     6.0000    0    12.011   -6.188494   -6.036711    2.516133
  17 C     6.0000    0    12.011   -4.972323   -3.627348    6.522673
  18 C     6.0000    0    12.011   -8.207364   -7.102989    3.837958
  19 C     6.0000    0    12.011   -9.778067   -8.900383    2.696072
  20 C     6.0000    0    12.011   -9.378068   -9.686831    0.205678
  21 C     6.0000    0    12.011   -7.346291   -8.595892   -1.119719
  22 C     6.0000    0    12.011   -5.791425   -6.803600    0.003779
  23 C     6.0000    0    12.011   -6.896631   -1.889764    7.079311
  24 C     6.0000    0    12.011   -7.583225   -1.364439    9.565246
  25 C     6.0000    0    12.011   -6.362481   -2.539206   11.607019
  26 C     6.0000    0    12.011   -4.447603   -4.274882   11.046489
  27 C     6.0000    0    12.011   -3.762464   -4.814096    8.553127
  28 C     6.0000    0    12.011   -7.072678   -1.906072   14.300691
  29 C     6.0000    0    12.011   -6.664573    0.882729   14.967444
  30 C     6.0000    0    12.011  -11.040271  -11.620871   -1.091695
  31 C     6.0000    0    12.011  -12.741063  -13.190326    0.632794
  32 C     6.0000    0    12.011    5.742783    4.954257    5.979434
  33 C     6.0000    0    12.011    6.872480    4.132113    1.222313
  34 C     6.0000    0    12.011    4.457732    3.964910    8.067827
  35 C     6.0000    0    12.011    5.325343    4.398904   10.524565
  36 C     6.0000    0    12.011    7.493879    5.839840   10.984336
  37 C     6.0000    0    12.011    8.770389    6.840563    8.884831
  38 C     6.0000    0    12.011    7.918708    6.402449    6.434801
  39 C     6.0000    0    12.011    8.404897    6.365542   13.639231
  40 C     6.0000    0    12.011    8.111574    9.145122   14.401395
  41 C     6.0000    0    12.011    3.925453    9.581837    2.238834
  42 C     6.0000    0    12.011    1.867352   11.010848    1.281329
  43 S    16.0000    0    32.060   -0.809748    9.110880    0.772860
  44 S    16.0000    0    32.060    6.535164   11.467652    2.760720
  45 C     6.0000    0    12.011    4.908885   14.162741    1.604075
  46 C     6.0000    0    12.011    2.423290   13.569538    0.902590
  47 C     6.0000    0    12.011   -1.156701   -8.113993    3.915550
  48 C     6.0000    0    12.011    1.451555   -8.668949    4.063516
  49 S    16.0000    0    32.060    3.264124   -5.915183    3.930536
  50 S    16.0000    0    32.060   -2.953094  -10.838883    3.999473
  51 C     6.0000    0    12.011   -0.192204  -12.732332    4.123345
  52 C     6.0000    0    12.011    2.004168  -11.257722    4.164805
  53 C     6.0000    0    12.011   -0.548191  -15.388758    4.232401
  54 C     6.0000    0    12.011    1.021265  -17.429624    3.857328
  55 C     6.0000    0    12.011    9.401369    3.077268    2.025144
  56 C     6.0000    0    12.011   11.587801    4.192414    1.030241
  57 C     6.0000    0    12.011   13.990965    3.320948    1.677151
  58 C     6.0000    0    12.011   14.300918    1.300453    3.356191
  59 C     6.0000    0    12.011   12.111803    0.181338    4.354496
  60 C     6.0000    0    12.011    9.710471    1.050858    3.705224
  61 C     6.0000    0    12.011   16.899537    0.393346    4.120964
  62 C     6.0000    0    12.011   17.491041    0.861035    6.917796
  63 C     6.0000    0    12.011    3.525284  -17.808061    2.788763
  64 C     6.0000    0    12.011    4.390495  -20.362083    3.575286
  65 C     6.0000    0    12.011    2.365578  -21.630580    4.756630
  66 C     6.0000    0    12.011    0.142485  -19.920302    4.896450
  67 C     6.0000    0    12.011    6.682620  -21.633471    3.199646
  68 C     6.0000    0    12.011    6.863599  -24.125151    4.025003
  69 C     6.0000    0    12.011    4.827702  -25.364263    5.204230
  70 C     6.0000    0    12.011    2.542154  -24.121504    5.577111
  71 F     9.0000    0    18.998    5.133044  -27.749022    5.936575
  72 F     9.0000    0    18.998    9.002221  -25.403381    3.690994
  73 O     8.0000    0    15.999   -1.936856  -20.411518    5.730651
  74 C     6.0000    0    12.011    4.751187  -16.302289    1.029258
  75 C     6.0000    0    12.011    7.272857  -16.802179    0.201067
  76 C     6.0000    0    12.011    3.522279  -14.273687   -0.249501
  77 N     7.0000    0    14.007    9.344091  -17.179236   -0.425510
  78 N     7.0000    0    14.007    2.517096  -12.659143   -1.348074
  79 C     6.0000    0    12.011    6.201665   16.503092    1.726322
  80 C     6.0000    0    12.011    5.728667   18.867177    0.744647
  81 C     6.0000    0    12.011    4.071812   19.898457   -1.186087
  82 C     6.0000    0    12.011    3.969937   22.678055   -0.791739
  83 C     6.0000    0    12.011    5.757807   23.353689    1.065900
  84 C     6.0000    0    12.011    7.027816   21.040589    2.023632
  85 C     6.0000    0    12.011    2.542494   24.566799   -1.975028
  86 C     6.0000    0    12.011    2.942228   27.056967   -1.228511
  87 C     6.0000    0    12.011    4.712637   27.699700    0.647836
  88 C     6.0000    0    12.011    6.161282   25.841476    1.810962
  89 O     8.0000    0    15.999    8.710523   20.922084    3.577894
  90 C     6.0000    0    12.011    3.056840   18.651899   -3.256074
  91 C     6.0000    0    12.011    1.402857   19.865160   -5.013954
  92 C     6.0000    0    12.011    3.739692   16.129342   -3.910089
  93 N     7.0000    0    14.007    0.025058   20.843585   -6.417453
  94 N     7.0000    0    14.007    4.316342   14.088853   -4.483016
  95 F     9.0000    0    18.998    4.961570   30.117529    1.285316
  96 F     9.0000    0    18.998    1.629568   28.906989   -2.306808
  97 H     1.0000    0     1.008   -7.904158   -1.793993    0.948964
  98 H     1.0000    0     1.008   -4.120850    5.346111    0.055993
  99 H     1.0000    0     1.008   -7.876681    2.655859   -0.582640
 100 H     1.0000    0     1.008    4.433090   -0.786202    4.199879
 101 H     1.0000    0     1.008   -8.555792   -6.561772    5.793674
 102 H     1.0000    0     1.008  -11.316266   -9.708487    3.804548
 103 H     1.0000    0     1.008   -6.953361   -9.204308   -3.055158
 104 H     1.0000    0     1.008   -4.203545   -6.018362   -1.056168
 105 H     1.0000    0     1.008   -7.877040   -0.920977    5.550825
 106 H     1.0000    0     1.008   -9.091246    0.001285    9.926788
 107 H     1.0000    0     1.008   -3.454722   -5.229420   12.585803
 108 H     1.0000    0     1.008   -2.257883   -6.176645    8.209122
 109 H     1.0000    0     1.008   -5.968908   -3.105255   15.594417
 110 H     1.0000    0     1.008   -9.074540   -2.406150   14.618695
 111 H     1.0000    0     1.008   -4.670723    1.426649   14.715052
 112 H     1.0000    0     1.008   -7.206130    1.272334   16.939429
 113 H     1.0000    0     1.008   -7.804021    2.126301   13.751726
 114 H     1.0000    0     1.008   -9.812705  -12.890672   -2.201323
 115 H     1.0000    0     1.008  -12.217665  -10.625892   -2.503169
 116 H     1.0000    0     1.008  -11.626672  -14.233795    2.049106
 117 H     1.0000    0     1.008  -13.825803  -14.575288   -0.477326
 118 H     1.0000    0     1.008  -14.114572  -12.007660    1.657781
 119 H     1.0000    0     1.008    7.246533    5.933967    0.262880
 120 H     1.0000    0     1.008    6.023313    2.911577   -0.234232
 121 H     1.0000    0     1.008    2.749703    2.846778    7.791983
 122 H     1.0000    0     1.008    4.285370    3.588609   12.114524
 123 H     1.0000    0     1.008   10.478021    7.968257    9.170350
 124 H     1.0000    0     1.008    9.002013    7.168185    4.860924
 125 H     1.0000    0     1.008   10.410123    5.811380   13.804733
 126 H     1.0000    0     1.008    7.359520    5.158310   14.973717
 127 H     1.0000    0     1.008    9.184107   10.390829   13.127587
 128 H     1.0000    0     1.008    8.808524    9.473292   16.335511
 129 H     1.0000    0     1.008    6.117384    9.734811   14.315035
 130 H     1.0000    0     1.008    1.082964   14.976665    0.229734
 131 H     1.0000    0     1.008    3.895066  -12.052503    4.306969
 132 H     1.0000    0     1.008   -2.432229  -15.992828    4.863305
 133 H     1.0000    0     1.008   11.400415    5.796584   -0.259214
 134 H     1.0000    0     1.008   15.654340    4.239676    0.867290
 135 H     1.0000    0     1.008   12.292177   -1.398775    5.674262
 136 H     1.0000    0     1.008    8.068601    0.158378    4.570699
 137 H     1.0000    0     1.008   18.324296    1.341743    2.936861
 138 H     1.0000    0     1.008   17.069443   -1.645328    3.706490
 139 H     1.0000    0     1.008   17.391565    2.890657    7.369837
 140 H     1.0000    0     1.008   19.392464    0.172608    7.412753
 141 H     1.0000    0     1.008   16.130305   -0.116010    8.150351
 142 H     1.0000    0     1.008    8.322335  -20.790068    2.289781
 143 H     1.0000    0     1.008    0.948435  -25.081126    6.466813
 144 H     1.0000    0     1.008    7.848354   16.528735    2.991758
 145 H     1.0000    0     1.008    1.142396   24.200570   -3.435598
 146 H     1.0000    0     1.008    7.556769   26.326361    3.249875

--------------------------------
INTERNAL COORDINATES (ANGSTROEM)
--------------------------------
 C      0   0   0     0.000000000000     0.00000000     0.00000000
 C      1   0   0     1.384662878176     0.00000000     0.00000000
 C      2   1   0     1.427956556972   119.18684907     0.00000000
 C      3   2   1     1.432364051210   119.34863633     7.60480664
 C      4   3   2     1.418291442864   119.22235899   354.96342705
 C      5   4   3     1.378811573675   120.27733075   359.39687691
 C      3   2   1     1.440988948223   121.18527457   189.93241177
 C      7   3   2     1.396794921347   120.36352456   182.36341523
 C      8   7   3     1.395254621243   120.39546357     0.72961917
 C      9   8   7     1.408274416334   120.16611358   356.47249199
 C      2   1   3     1.536495902045   121.14332901   172.12844200
 C     11   2   1     1.516872578333   109.22815478   152.96243632
 C     12  11   2     1.386526595850   120.82488667    30.84032637
 C      9   8   7     1.536185612385   128.35387110   178.04611901
 C     14   9   8     1.519247533024    99.92504239   181.40523605
 C     15  14   9     1.389287038556   111.27659205   356.63462887
 C     11   2   1     1.534560737736   112.25780148    32.82790408
 C     11   2   1     1.556352579463   106.77178181   270.23739128
 C     17  11   2     1.396066147609   123.19275456   236.22199662
 C     19  17  11     1.400234851587   120.83562810   185.49059850
 C     20  19  17     1.398126116414   121.27140499     0.07283647
 C     21  20  19     1.407545983547   117.59675011   359.65126257
 C     22  21  20     1.389245908578   121.27657562     0.04883419
 C     18  11   2     1.403268450333   120.57360090    45.48299579
 C     24  18  11     1.392776859012   121.22156095   178.66062886
 C     25  24  18     1.403979361422   121.22935402     0.49578319
 C     26  25  24     1.399423485190   117.42961355   359.39906227
 C     27  26  25     1.397771152263   121.45838451     0.31075648
 C     26  25  24     1.511735148397   120.87169390   178.36247314
 C     29  26  25     1.532652871136   113.29324721   299.42114270
 C     21  20  19     1.514094856375   122.72816432   180.13677827
 C     31  21  20     1.527273788291   116.03966249   344.36986295
 C     14   9   8     1.531454976191   113.63654964   297.35132276
 C     14   9   8     1.582847552609   111.05624812    68.57340373
 C     33  14   9     1.399226089272   121.92373947   347.80373367
 C     35  33  14     1.397735630404   120.89726591   183.26154334
 C     36  35  33     1.399094150406   121.37979214     0.26234865
 C     37  36  35     1.403950591616   117.55445211     0.07856096
 C     38  37  36     1.392042927391   121.22739510   359.61619758
 C     37  36  35     1.511149414287   121.57845229   178.54522931
 C     40  37  36     1.533061532653   112.88677938   248.94688964
 C     15  14   9     1.403670128093   136.63982785   178.83734453
 C     42  15  14     1.419405511508   112.78929984   176.76430286
 S     16  15  14     1.747060001431   113.67488148   181.93752760
 S     42  15  14     1.726063484870   135.92071476   357.71370528
 C     45  42  15     1.774608189263    91.22935894   177.35505289
 C     43  42  15     1.400011404418   113.89850015   182.61358918
 C     12  11   2     1.415524964139   127.68608950   204.33043521
 C     48  12  11     1.413296788293   113.86629933   186.04723095
 S     49  48  12     1.745989203489   111.15207566     0.08082611
 S     48  12  11     1.727672255580   134.86984367     7.32673084
 C     51  48  12     1.772783597453    91.10117485   176.85294419
 C     52  51  48     1.400095648661   111.69779655     1.55688947
 C     52  51  48     1.419459822221   116.86284485   179.89410481
 C     54  52  51     1.376776881415   133.70261719   165.00798856
 C     34  14   9     1.510938714343   119.59962149   251.90249044
 C     56  34  14     1.401457506527   118.03563364   225.19717678
 C     57  56  34     1.395377821416   121.40472257   180.13514631
 C     58  57  56     1.399836140589   120.99302287   359.76541388
 C     59  58  57     1.404191050890   117.66235734     0.22577657
 C     60  59  58     1.394461030721   121.32694458   359.85012888
 C     59  58  57     1.511682442612   121.26856456   181.70462196
 C     62  59  58     1.532868474658   113.13940747   113.18771401
 C     55  54  52     1.454530709232   135.52762480   346.95210221
 C     64  55  54     1.486435577985   107.27353443   165.20402375
 C     65  64  55     1.410527553364   108.83267807     8.13430025
 C     66  65  64     1.486106459780   109.48791931   357.37558718
 C     65  64  55     1.401207806180   131.56606588   183.84330416
 C     68  65  64     1.392292685501   118.01851592   184.54119095
 C     69  68  65     1.407138794505   121.85383656     0.02811333
 C     70  69  68     1.390762037014   120.55683262     0.21053257
 F     70  69  68     1.329976837994   118.57840584   179.77289706
 F     69  68  65     1.330240044015   119.89355068   179.61537992
 O     67  66  65     1.213748817837   127.25207384   177.86705273
 C     64  55  54     1.386610377467   127.45458516   335.41187983
 C     75  64  55     1.429229861359   122.43567598   177.00048521
 C     75  64  55     1.425900849393   122.54249265   351.45337049
 N     76  75  64     1.162358158357   178.45829757   275.30695710
 N     77  75  64     1.162265144621   178.21231898   255.65981834
 C     46  45  42     1.416324277770   116.91981476   176.32106994
 C     80  46  45     1.377519727917   133.56118379   169.86906967
 C     81  80  46     1.452727694993   135.72915324   345.00334235
 C     82  81  80     1.486607022888   107.14865774   163.97478195
 C     83  82  81     1.410411724037   108.92474137     7.84601953
 C     84  83  82     1.485528505718   109.41342517   357.93810154
 C     83  82  81     1.400583084362   131.51968704   185.14797949
 C     86  83  82     1.391847782662   117.82444959   182.19544008
 C     87  86  83     1.406868295328   122.03268983     0.03121772
 C     88  87  86     1.390481343636   120.56871579     0.77963748
 O     85  84  83     1.213798622919   127.27440370   177.85863994
 C     82  81  80     1.386900783978   127.62758746   334.96242139
 C     91  82  81     1.429542911668   122.50951775   178.86398591
 C     91  82  81     1.425572420118   122.61229816   353.65831218
 N     92  91  82     1.162439468360   178.88783323   275.84057849
 N     93  91  82     1.162307826395   178.76687529   245.99169502
 F     88  87  86     1.329725144569   118.53103087   180.96718651
 F     87  86  83     1.329107982483   119.74095975   179.89487375
 H      1   2   3     1.090938441206   119.31903206   176.60869813
 H      5   4   3     1.090579850447   119.79932532   181.60000685
 H      6   5   4     1.092151873871   119.98114026   182.61916073
 H      8   7   3     1.090449796231   119.38046025   179.86433352
 H     19  17  11     1.089532170613   119.94589225     4.43032706
 H     20  19  17     1.090645200650   118.50664161   179.05424221
 H     22  21  20     1.093553054314   119.41781017   178.48748161
 H     23  22  21     1.092395378881   119.70419861   178.68468289
 H     24  18  11     1.089130955074   119.88174174   358.45866066
 H     25  24  18     1.093495791761   119.17933507   179.97790973
 H     27  26  25     1.093035300162   119.56489939   180.05893802
 H     28  27  26     1.089468374300   118.84151213   179.89075296
 H     29  26  25     1.101155645947   109.06489469   176.93999103
 H     29  26  25     1.104784336828   109.20280119    61.50719860
 H     30  29  26     1.101780555510   111.01269512   300.58502175
 H     30  29  26     1.101630167615   111.19946978   179.85562536
 H     30  29  26     1.100228355706   111.35170243    60.09360159
 H     31  21  20     1.103761323204   108.10888207   220.97097952
 H     31  21  20     1.106030785874   108.16079029   107.55123689
 H     32  31  21     1.101989522137   111.31552849   301.72471918
 H     32  31  21     1.100783455090   110.51666723   181.75917291
 H     32  31  21     1.101887160511   111.96116416    62.24240157
 H     34  14   9     1.098231276963   107.60895290   129.79178803
 H     34  14   9     1.101440773215   106.79542672    17.47098612
 H     35  33  14     1.090114269010   120.01889002     2.93631693
 H     36  35  33     1.092990141721   119.08710730   180.41299412
 H     38  37  36     1.093391055478   119.61405436   180.31389160
 H     39  38  37     1.089255686834   118.67149158   181.85906385
 H     40  37  36     1.104373792382   109.35207471   126.99020260
 H     40  37  36     1.101283757303   109.21501289    11.25800508
 H     41  40  37     1.100472334273   111.18376431   300.43878730
 H     41  40  37     1.101685250786   111.20785151   180.58644692
 H     41  40  37     1.101398915425   110.97279207    59.91055563
 H     47  43  42     1.088256220244   124.86387390   181.70830924
 H     53  52  51     1.088019978539   123.30476637   177.76900570
 H     54  52  51     1.098924053472   114.88654667   340.36434464
 H     57  56  34     1.093640004846   119.10220860     1.01145904
 H     58  57  56     1.093074650195   119.38761212   180.13278438
 H     60  59  58     1.093628291606   119.38684825   180.11936810
 H     61  60  59     1.089810159661   118.68281095   181.76841387
 H     62  59  58     1.101336306221   109.00938014   350.93470986
 H     62  59  58     1.104555136424   109.33120803   235.42657280
 H     63  62  59     1.101604663480   110.93549878   300.45697565
 H     63  62  59     1.101696370376   111.26326888   179.78628539
 H     63  62  59     1.100562512264   111.26968051    59.88929600
 H     68  65  64     1.088080372261   123.78917289     4.11142086
 H     71  70  69     1.091232854069   120.88155856   179.14423915
 H     80  46  45     1.099055233644   114.93487712   343.58805776
 H     86  83  82     1.088055908490   123.89847560     2.31669932
 H     89  88  87     1.091307689563   121.04004156   179.16523636

---------------------------
INTERNAL COORDINATES (A.U.)
---------------------------
 C      0   0   0     0.000000000000     0.00000000     0.00000000
 C      1   0   0     2.616633627561     0.00000000     0.00000000
 C      2   1   0     2.698446823815   119.18684907     0.00000000
 C      3   2   1     2.706775780862   119.34863633     7.60480664
 C      4   3   2     2.680182405096   119.22235899   354.96342705
 C      5   4   3     2.605576264527   120.27733075   359.39687691
 C      3   2   1     2.723074474148   121.18527457   189.93241177
 C      7   3   2     2.639559866597   120.36352456   182.36341523
 C      8   7   3     2.636649121237   120.39546357     0.72961917
 C      9   8   7     2.661252968278   120.16611358   356.47249199
 C      2   1   3     2.903556460757   121.14332901   172.12844200
 C     11   2   1     2.866473753105   109.22815478   152.96243632
 C     12  11   2     2.620155543555   120.82488667    30.84032637
 C      9   8   7     2.902970098279   128.35387110   178.04611901
 C     14   9   8     2.870961767051    99.92504239   181.40523605
 C     15  14   9     2.625372024278   111.27659205   356.63462887
 C     11   2   1     2.899899530189   112.25780148    32.82790408
 C     11   2   1     2.941080143006   106.77178181   270.23739128
 C     17  11   2     2.638182683820   123.19275456   236.22199662
 C     19  17  11     2.646060392672   120.83562810   185.49059850
 C     20  19  17     2.642075460706   121.27140499     0.07283647
 C     21  20  19     2.659876429805   117.59675011   359.65126257
 C     22  21  20     2.625294299883   121.27657562     0.04883419
 C     18  11   2     2.651793063501   120.57360090    45.48299579
 C     24  18  11     2.631966829196   121.22156095   178.66062886
 C     25  24  18     2.653136490766   121.22935402     0.49578319
 C     26  25  24     2.644527132386   117.42961355   359.39906227
 C     27  26  25     2.641404675674   121.45838451     0.31075648
 C     26  25  24     2.856765417494   120.87169390   178.36247314
 C     29  26  25     2.896294184814   113.29324721   299.42114270
 C     21  20  19     2.861224619327   122.72816432   180.13677827
 C     31  21  20     2.886129191386   116.03966249   344.36986295
 C     14   9   8     2.894030491432   113.63654964   297.35132276
 C     14   9   8     2.991148386178   111.05624812    68.57340373
 C     33  14   9     2.644154108162   121.92373947   347.80373367
 C     35  33  14     2.641337549087   120.89726591   183.26154334
 C     36  35  33     2.643904779838   121.37979214     0.26234865
 C     37  36  35     2.653082123712   117.55445211     0.07856096
 C     38  37  36     2.630579899431   121.22739510   359.61619758
 C     37  36  35     2.855658540438   121.57845229   178.54522931
 C     40  37  36     2.897066443164   112.88677938   248.94688964
 C     15  14   9     2.652552124462   136.63982785   178.83734453
 C     42  15  14     2.682287689729   112.78929984   176.76430286
 S     16  15  14     3.301464942233   113.67488148   181.93752760
 S     42  15  14     3.261787276165   135.92071476   357.71370528
 C     45  42  15     3.353523472721    91.22935894   177.35505289
 C     43  42  15     2.645638138716   113.89850015   182.61358918
 C     12  11   2     2.674954517951   127.68608950   204.33043521
 C     48  12  11     2.670743875825   113.86629933   186.04723095
 S     49  48  12     3.299441427377   111.15207566     0.08082611
 S     48  12  11     3.264827412220   134.86984367     7.32673084
 C     51  48  12     3.350075493895    91.10117485   176.85294419
 C     52  51  48     2.645797337264   111.69779655     1.55688947
 C     52  51  48     2.682390322102   116.86284485   179.89410481
 C     54  52  51     2.601731253389   133.70261719   165.00798856
 C     34  14   9     2.855260375247   119.59962149   251.90249044
 C     56  34  14     2.648370875664   118.03563364   225.19717678
 C     57  56  34     2.636881935824   121.40472257   180.13514631
 C     58  57  56     2.645306938079   120.99302287   359.76541388
 C     59  58  57     2.653536525885   117.66235734     0.22577657
 C     60  59  58     2.635149452489   121.32694458   359.85012888
 C     59  58  57     2.856665817993   121.26856456   181.70462196
 C     62  59  58     2.896701616425   113.13940747   113.18771401
 C     55  54  52     2.748664693827   135.52762480   346.95210221
 C     64  55  54     2.808956158109   107.27353443   165.20402375
 C     65  64  55     2.665510780209   108.83267807     8.13430025
 C     66  65  64     2.808334214836   109.48791931   357.37558718
 C     65  64  55     2.647899010393   131.56606588   183.84330416
 C     68  65  64     2.631051873859   118.01851592   184.54119095
 C     69  68  65     2.659106954030   121.85383656     0.02811333
 C     70  69  68     2.628159367411   120.55683262     0.21053257
 F     70  69  68     2.513291988267   118.57840584   179.77289706
 F     69  68  65     2.513789375563   119.89355068   179.61537992
 O     67  66  65     2.293652861082   127.25207384   177.86705273
 C     64  55  54     2.620313867866   127.45458516   335.41187983
 C     75  64  55     2.700853020391   122.43567598   177.00048521
 C     75  64  55     2.694562099479   122.54249265   351.45337049
 N     76  75  64     2.196538588825   178.45829757   275.30695710
 N     77  75  64     2.196362818335   178.21231898   255.65981834
 C     46  45  42     2.676465001809   116.91981476   176.32106994
 C     80  46  45     2.603135029836   133.56118379   169.86906967
 C     81  80  46     2.745257490700   135.72915324   345.00334235
 C     82  81  80     2.809280142022   107.14865774   163.97478195
 C     83  82  81     2.665291894501   108.92474137     7.84601953
 C     84  83  82     2.807242039940   109.41342517   357.93810154
 C     83  82  81     2.646718457246   131.51968704   185.14797949
 C     86  83  82     2.630211129336   117.82444959   182.19544008
 C     87  86  83     2.658595784667   122.03268983     0.03121772
 C     88  87  86     2.627628933799   120.56871579     0.77963748
 O     85  84  83     2.293746979048   127.27440370   177.85863994
 C     82  81  80     2.620862656640   127.62758746   334.96242139
 C     91  82  81     2.701444599741   122.50951775   178.86398591
 C     91  82  81     2.693941458094   122.61229816   353.65831218
 N     92  91  82     2.196692242461   178.88783323   275.84057849
 N     93  91  82     2.196443475201   178.76687529   245.99169502
 F     88  87  86     2.512816356625   118.53103087   180.96718651
 F     87  86  83     2.511650089301   119.74095975   179.89487375
 H      1   2   3     2.061574882845   119.31903206   176.60869813
 H      5   4   3     2.060897244517   119.79932532   181.60000685
 H      6   5   4     2.063867938265   119.98114026   182.61916073
 H      8   7   3     2.060651477667   119.38046025   179.86433352
 H     19  17  11     2.058917416555   119.94589225     4.43032706
 H     20  19  17     2.061020738503   118.50664161   179.05424221
 H     22  21  20     2.066515785567   119.41781017   178.48748161
 H     23  22  21     2.064328096046   119.70419861   178.68468289
 H     24  18  11     2.058159229066   119.88174174   358.45866066
 H     25  24  18     2.066407575025   119.17933507   179.97790973
 H     27  26  25     2.065537372014   119.56489939   180.05893802
 H     28  27  26     2.058796858996   118.84151213   179.89075296
 H     29  26  25     2.080882601660   109.06489469   176.93999103
 H     29  26  25     2.087739833650   109.20280119    61.50719860
 H     30  29  26     2.082063509594   111.01269512   300.58502175
 H     30  29  26     2.081779317659   111.19946978   179.85562536
 H     30  29  26     2.079130277059   111.35170243    60.09360159
 H     31  21  20     2.085806618069   108.10888207   220.97097952
 H     31  21  20     2.090095280987   108.16079029   107.55123689
 H     32  31  21     2.082458399290   111.31552849   301.72471918
 H     32  31  21     2.080179262872   110.51666723   181.75917291
 H     32  31  21     2.082264963851   111.96116416    62.24240157
 H     34  14   9     2.075356345167   107.60895290   129.79178803
 H     34  14   9     2.081421414110   106.79542672    17.47098612
 H     35  33  14     2.060017423109   120.01889002     2.93631693
 H     36  35  33     2.065452034929   119.08710730   180.41299412
 H     38  37  36     2.066209652133   119.61405436   180.31389160
 H     39  38  37     2.058394937932   118.67149158   181.85906385
 H     40  37  36     2.086964017082   109.35207471   126.99020260
 H     40  37  36     2.081124697039   109.21501289    11.25800508
 H     41  40  37     2.079591329733   111.18376431   300.43878730
 H     41  40  37     2.081883409766   111.20785151   180.58644692
 H     41  40  37     2.081342314352   110.97279207    59.91055563
 H     47  43  42     2.056506219798   124.86387390   181.70830924
 H     53  52  51     2.056059787674   123.30476637   177.76900570
 H     54  52  51     2.076665503041   114.88654667   340.36434464
 H     57  56  34     2.066680098260   119.10220860     1.01145904
 H     58  57  56     2.065611732801   119.38761212   180.13278438
 H     60  59  58     2.066657963443   119.38684825   180.11936810
 H     61  60  59     2.059442739724   118.68281095   181.76841387
 H     62  59  58     2.081224000102   109.00938014   350.93470986
 H     62  59  58     2.087306707657   109.33120803   235.42657280
 H     63  62  59     2.081731121827   110.93549878   300.45697565
 H     63  62  59     2.081904422746   111.26326888   179.78628539
 H     63  62  59     2.079761741439   111.26968051    59.88929600
 H     68  65  64     2.056173915269   123.78917289     4.11142086
 H     71  70  69     2.062131242528   120.88155856   179.14423915
 H     80  46  45     2.076913397640   114.93487712   343.58805776
 H     86  83  82     2.056127685441   123.89847560     2.31669932
 H     89  88  87     2.062272661117   121.04004156   179.16523636

---------------------
BASIS SET INFORMATION
---------------------
There are 6 groups of distinct atoms

 Group   1 Type C   : 11s6p2d1f contracted to 5s3p2d1f pattern {62111/411/11/1}
 Group   2 Type S   : 14s9p3d1f contracted to 5s5p2d1f pattern {73211/51111/21/1}
 Group   3 Type F   : 11s6p2d1f contracted to 5s3p2d1f pattern {62111/411/11/1}
 Group   4 Type O   : 11s6p2d1f contracted to 5s3p2d1f pattern {62111/411/11/1}
 Group   5 Type N   : 11s6p2d1f contracted to 5s3p2d1f pattern {62111/411/11/1}
 Group   6 Type H   : 5s1p contracted to 3s1p pattern {311/1}

Atom   0C    basis set group =>   1
Atom   1C    basis set group =>   1
Atom   2C    basis set group =>   1
Atom   3C    basis set group =>   1
Atom   4C    basis set group =>   1
Atom   5C    basis set group =>   1
Atom   6C    basis set group =>   1
Atom   7C    basis set group =>   1
Atom   8C    basis set group =>   1
Atom   9C    basis set group =>   1
Atom  10C    basis set group =>   1
Atom  11C    basis set group =>   1
Atom  12C    basis set group =>   1
Atom  13C    basis set group =>   1
Atom  14C    basis set group =>   1
Atom  15C    basis set group =>   1
Atom  16C    basis set group =>   1
Atom  17C    basis set group =>   1
Atom  18C    basis set group =>   1
Atom  19C    basis set group =>   1
Atom  20C    basis set group =>   1
Atom  21C    basis set group =>   1
Atom  22C    basis set group =>   1
Atom  23C    basis set group =>   1
Atom  24C    basis set group =>   1
Atom  25C    basis set group =>   1
Atom  26C    basis set group =>   1
Atom  27C    basis set group =>   1
Atom  28C    basis set group =>   1
Atom  29C    basis set group =>   1
Atom  30C    basis set group =>   1
Atom  31C    basis set group =>   1
Atom  32C    basis set group =>   1
Atom  33C    basis set group =>   1
Atom  34C    basis set group =>   1
Atom  35C    basis set group =>   1
Atom  36C    basis set group =>   1
Atom  37C    basis set group =>   1
Atom  38C    basis set group =>   1
Atom  39C    basis set group =>   1
Atom  40C    basis set group =>   1
Atom  41C    basis set group =>   1
Atom  42C    basis set group =>   1
Atom  43S    basis set group =>   2
Atom  44S    basis set group =>   2
Atom  45C    basis set group =>   1
Atom  46C    basis set group =>   1
Atom  47C    basis set group =>   1
Atom  48C    basis set group =>   1
Atom  49S    basis set group =>   2
Atom  50S    basis set group =>   2
Atom  51C    basis set group =>   1
Atom  52C    basis set group =>   1
Atom  53C    basis set group =>   1
Atom  54C    basis set group =>   1
Atom  55C    basis set group =>   1
Atom  56C    basis set group =>   1
Atom  57C    basis set group =>   1
Atom  58C    basis set group =>   1
Atom  59C    basis set group =>   1
Atom  60C    basis set group =>   1
Atom  61C    basis set group =>   1
Atom  62C    basis set group =>   1
Atom  63C    basis set group =>   1
Atom  64C    basis set group =>   1
Atom  65C    basis set group =>   1
Atom  66C    basis set group =>   1
Atom  67C    basis set group =>   1
Atom  68C    basis set group =>   1
Atom  69C    basis set group =>   1
Atom  70C    basis set group =>   1
Atom  71F    basis set group =>   3
Atom  72F    basis set group =>   3
Atom  73O    basis set group =>   4
Atom  74C    basis set group =>   1
Atom  75C    basis set group =>   1
Atom  76C    basis set group =>   1
Atom  77N    basis set group =>   5
Atom  78N    basis set group =>   5
Atom  79C    basis set group =>   1
Atom  80C    basis set group =>   1
Atom  81C    basis set group =>   1
Atom  82C    basis set group =>   1
Atom  83C    basis set group =>   1
Atom  84C    basis set group =>   1
Atom  85C    basis set group =>   1
Atom  86C    basis set group =>   1
Atom  87C    basis set group =>   1
Atom  88C    basis set group =>   1
Atom  89O    basis set group =>   4
Atom  90C    basis set group =>   1
Atom  91C    basis set group =>   1
Atom  92C    basis set group =>   1
Atom  93N    basis set group =>   5
Atom  94N    basis set group =>   5
Atom  95F    basis set group =>   3
Atom  96F    basis set group =>   3
Atom  97H    basis set group =>   6
Atom  98H    basis set group =>   6
Atom  99H    basis set group =>   6
Atom 100H    basis set group =>   6
Atom 101H    basis set group =>   6
Atom 102H    basis set group =>   6
Atom 103H    basis set group =>   6
Atom 104H    basis set group =>   6
Atom 105H    basis set group =>   6
Atom 106H    basis set group =>   6
Atom 107H    basis set group =>   6
Atom 108H    basis set group =>   6
Atom 109H    basis set group =>   6
Atom 110H    basis set group =>   6
Atom 111H    basis set group =>   6
Atom 112H    basis set group =>   6
Atom 113H    basis set group =>   6
Atom 114H    basis set group =>   6
Atom 115H    basis set group =>   6
Atom 116H    basis set group =>   6
Atom 117H    basis set group =>   6
Atom 118H    basis set group =>   6
Atom 119H    basis set group =>   6
Atom 120H    basis set group =>   6
Atom 121H    basis set group =>   6
Atom 122H    basis set group =>   6
Atom 123H    basis set group =>   6
Atom 124H    basis set group =>   6
Atom 125H    basis set group =>   6
Atom 126H    basis set group =>   6
Atom 127H    basis set group =>   6
Atom 128H    basis set group =>   6
Atom 129H    basis set group =>   6
Atom 130H    basis set group =>   6
Atom 131H    basis set group =>   6
Atom 132H    basis set group =>   6
Atom 133H    basis set group =>   6
Atom 134H    basis set group =>   6
Atom 135H    basis set group =>   6
Atom 136H    basis set group =>   6
Atom 137H    basis set group =>   6
Atom 138H    basis set group =>   6
Atom 139H    basis set group =>   6
Atom 140H    basis set group =>   6
Atom 141H    basis set group =>   6
Atom 142H    basis set group =>   6
Atom 143H    basis set group =>   6
Atom 144H    basis set group =>   6
Atom 145H    basis set group =>   6
Atom 146H    basis set group =>   6
---------------------------------
AUXILIARY/J BASIS SET INFORMATION
---------------------------------
There are 6 groups of distinct atoms

 Group   1 Type C   : 12s5p4d2f1g contracted to 6s4p3d1f1g pattern {711111/2111/211/2/1}
 Group   2 Type S   : 14s5p5d2f1g contracted to 8s4p3d1f1g pattern {71111111/2111/311/2/1}
 Group   3 Type F   : 12s5p4d2f1g contracted to 6s4p3d1f1g pattern {711111/2111/211/2/1}
 Group   4 Type O   : 12s5p4d2f1g contracted to 6s4p3d1f1g pattern {711111/2111/211/2/1}
 Group   5 Type N   : 12s5p4d2f1g contracted to 6s4p3d1f1g pattern {711111/2111/211/2/1}
 Group   6 Type H   : 5s2p1d contracted to 3s1p1d pattern {311/2/1}

Atom   0C    basis set group =>   1
Atom   1C    basis set group =>   1
Atom   2C    basis set group =>   1
Atom   3C    basis set group =>   1
Atom   4C    basis set group =>   1
Atom   5C    basis set group =>   1
Atom   6C    basis set group =>   1
Atom   7C    basis set group =>   1
Atom   8C    basis set group =>   1
Atom   9C    basis set group =>   1
Atom  10C    basis set group =>   1
Atom  11C    basis set group =>   1
Atom  12C    basis set group =>   1
Atom  13C    basis set group =>   1
Atom  14C    basis set group =>   1
Atom  15C    basis set group =>   1
Atom  16C    basis set group =>   1
Atom  17C    basis set group =>   1
Atom  18C    basis set group =>   1
Atom  19C    basis set group =>   1
Atom  20C    basis set group =>   1
Atom  21C    basis set group =>   1
Atom  22C    basis set group =>   1
Atom  23C    basis set group =>   1
Atom  24C    basis set group =>   1
Atom  25C    basis set group =>   1
Atom  26C    basis set group =>   1
Atom  27C    basis set group =>   1
Atom  28C    basis set group =>   1
Atom  29C    basis set group =>   1
Atom  30C    basis set group =>   1
Atom  31C    basis set group =>   1
Atom  32C    basis set group =>   1
Atom  33C    basis set group =>   1
Atom  34C    basis set group =>   1
Atom  35C    basis set group =>   1
Atom  36C    basis set group =>   1
Atom  37C    basis set group =>   1
Atom  38C    basis set group =>   1
Atom  39C    basis set group =>   1
Atom  40C    basis set group =>   1
Atom  41C    basis set group =>   1
Atom  42C    basis set group =>   1
Atom  43S    basis set group =>   2
Atom  44S    basis set group =>   2
Atom  45C    basis set group =>   1
Atom  46C    basis set group =>   1
Atom  47C    basis set group =>   1
Atom  48C    basis set group =>   1
Atom  49S    basis set group =>   2
Atom  50S    basis set group =>   2
Atom  51C    basis set group =>   1
Atom  52C    basis set group =>   1
Atom  53C    basis set group =>   1
Atom  54C    basis set group =>   1
Atom  55C    basis set group =>   1
Atom  56C    basis set group =>   1
Atom  57C    basis set group =>   1
Atom  58C    basis set group =>   1
Atom  59C    basis set group =>   1
Atom  60C    basis set group =>   1
Atom  61C    basis set group =>   1
Atom  62C    basis set group =>   1
Atom  63C    basis set group =>   1
Atom  64C    basis set group =>   1
Atom  65C    basis set group =>   1
Atom  66C    basis set group =>   1
Atom  67C    basis set group =>   1
Atom  68C    basis set group =>   1
Atom  69C    basis set group =>   1
Atom  70C    basis set group =>   1
Atom  71F    basis set group =>   3
Atom  72F    basis set group =>   3
Atom  73O    basis set group =>   4
Atom  74C    basis set group =>   1
Atom  75C    basis set group =>   1
Atom  76C    basis set group =>   1
Atom  77N    basis set group =>   5
Atom  78N    basis set group =>   5
Atom  79C    basis set group =>   1
Atom  80C    basis set group =>   1
Atom  81C    basis set group =>   1
Atom  82C    basis set group =>   1
Atom  83C    basis set group =>   1
Atom  84C    basis set group =>   1
Atom  85C    basis set group =>   1
Atom  86C    basis set group =>   1
Atom  87C    basis set group =>   1
Atom  88C    basis set group =>   1
Atom  89O    basis set group =>   4
Atom  90C    basis set group =>   1
Atom  91C    basis set group =>   1
Atom  92C    basis set group =>   1
Atom  93N    basis set group =>   5
Atom  94N    basis set group =>   5
Atom  95F    basis set group =>   3
Atom  96F    basis set group =>   3
Atom  97H    basis set group =>   6
Atom  98H    basis set group =>   6
Atom  99H    basis set group =>   6
Atom 100H    basis set group =>   6
Atom 101H    basis set group =>   6
Atom 102H    basis set group =>   6
Atom 103H    basis set group =>   6
Atom 104H    basis set group =>   6
Atom 105H    basis set group =>   6
Atom 106H    basis set group =>   6
Atom 107H    basis set group =>   6
Atom 108H    basis set group =>   6
Atom 109H    basis set group =>   6
Atom 110H    basis set group =>   6
Atom 111H    basis set group =>   6
Atom 112H    basis set group =>   6
Atom 113H    basis set group =>   6
Atom 114H    basis set group =>   6
Atom 115H    basis set group =>   6
Atom 116H    basis set group =>   6
Atom 117H    basis set group =>   6
Atom 118H    basis set group =>   6
Atom 119H    basis set group =>   6
Atom 120H    basis set group =>   6
Atom 121H    basis set group =>   6
Atom 122H    basis set group =>   6
Atom 123H    basis set group =>   6
Atom 124H    basis set group =>   6
Atom 125H    basis set group =>   6
Atom 126H    basis set group =>   6
Atom 127H    basis set group =>   6
Atom 128H    basis set group =>   6
Atom 129H    basis set group =>   6
Atom 130H    basis set group =>   6
Atom 131H    basis set group =>   6
Atom 132H    basis set group =>   6
Atom 133H    basis set group =>   6
Atom 134H    basis set group =>   6
Atom 135H    basis set group =>   6
Atom 136H    basis set group =>   6
Atom 137H    basis set group =>   6
Atom 138H    basis set group =>   6
Atom 139H    basis set group =>   6
Atom 140H    basis set group =>   6
Atom 141H    basis set group =>   6
Atom 142H    basis set group =>   6
Atom 143H    basis set group =>   6
Atom 144H    basis set group =>   6
Atom 145H    basis set group =>   6
Atom 146H    basis set group =>   6


           ************************************************************
           *        Program running with 6 parallel MPI-processes     *
           *              working on a common directory               *
           ************************************************************
------------------------------------------------------------------------------
                           ORCA GTO INTEGRAL CALCULATION
                           -- RI-GTO INTEGRALS CHOSEN --
------------------------------------------------------------------------------

                         BASIS SET STATISTICS AND STARTUP INFO

Gaussian basis set:
 # of primitive gaussian shells          ... 2268
 # of primitive gaussian functions       ... 4930
 # of contracted shells                  ... 1275
 # of contracted basis functions         ... 3331
 Highest angular momentum                ...    3
 Maximum contraction depth               ...    7
Auxiliary gaussian basis set:
 # of primitive gaussian shells          ... 2740
 # of primitive gaussian functions       ... 7618
 # of contracted shells                  ... 1713
 # of contracted aux-basis functions     ... 5311
 Highest angular momentum                ...    4
 Maximum contraction depth               ...    7
Ratio of auxiliary to basis functions    ...  1.59
Integral package used                  ... LIBINT
 One Electron integrals                  ... done
 Ordering auxiliary basis shells         ... done
 Integral threshhold             Thresh  ...  2.500e-11
 Primitive cut-off               TCut    ...  2.500e-12
 Pre-screening matrix                    ... done
 Shell pair data                         ... 
 Ordering of the shell pairs             ... done (   0.054 sec) 237145 of 813450 pairs
 Determination of significant pairs      ... done (   0.001 sec)
 Creation of shell pair data             ... done (   0.024 sec)
 Storage of shell pair data              ... done (   0.323 sec)
 Shell pair data done in (   0.403 sec)
 Computing two index integrals           ... done
 Cholesky decomposition of the V-matrix  ... done


Timings:
 Total evaluation time                   ...  13.342 sec (  0.222 min)
 One electron matrix time                ...   4.989 sec (  0.083 min) = 37.4%
 Schwartz matrix evaluation time         ...   5.892 sec (  0.098 min) = 44.2%
 Two index repulsion integral time       ...   0.662 sec (  0.011 min) =  5.0%
 Cholesky decomposition of V             ...   1.378 sec (  0.023 min) = 10.3%
 Three index repulsion integral time     ...   0.000 sec (  0.000 min) =  0.0%



           ************************************************************
           *        Program running with 6 parallel MPI-processes     *
           *              working on a common directory               *
           ************************************************************
-------------------------------------------------------------------------------
                                 ORCA SCF
-------------------------------------------------------------------------------

------------
SCF SETTINGS
------------
Hamiltonian:
 Density Functional     Method          .... DFT(GTOs)
 Exchange Functional    Exchange        .... B88
   X-Alpha parameter    XAlpha          ....  0.666667
   Becke's b parameter  XBeta           ....  0.004200
 Correlation Functional Correlation     .... LYP
 LDA part of GGA corr.  LDAOpt          .... VWN-5
 Gradients option       PostSCFGGA      .... off
 Hybrid DFT is turned on
   Fraction HF Exchange ScalHFX         ....  0.200000
   Scaling of DF-GGA-X  ScalDFX         ....  0.720000
   Scaling of DF-GGA-C  ScalDFC         ....  0.810000
   Scaling of DF-LDA-C  ScalLDAC        ....  1.000000
   Perturbative correction              ....  0.000000
   Density functional embedding theory  .... OFF
   NL short-range parameter             ....  4.800000
 RI-approximation to the Coulomb term is turned on
   Number of auxiliary basis functions  .... 5311
   RIJ-COSX (HFX calculated with COS-X)).... on


General Settings:
 Integral files         IntName         .... N65-2FIC
 Hartree-Fock type      HFTyp           .... RHF
 Total Charge           Charge          ....    0
 Multiplicity           Mult            ....    1
 Number of Electrons    NEL             ....  692
 Basis Dimension        Dim             .... 3331
 Nuclear Repulsion      ENuc            ....  17324.2208862799 Eh

Convergence Acceleration:
 DIIS                   CNVDIIS         .... on
   Start iteration      DIISMaxIt       ....    12
   Startup error        DIISStart       ....  0.200000
   # of expansion vecs  DIISMaxEq       ....     5
   Bias factor          DIISBfac        ....   1.050
   Max. coefficient     DIISMaxC        ....  10.000
 Newton-Raphson         CNVNR           .... off
 SOSCF                  CNVSOSCF        .... on
   Start iteration      SOSCFMaxIt      ....   150
   Startup grad/error   SOSCFStart      ....  0.003300
 Level Shifting         CNVShift        .... on
   Level shift para.    LevelShift      ....    0.2500
   Turn off err/grad.   ShiftErr        ....    0.0010
 Zerner damping         CNVZerner       .... off
 Static damping         CNVDamp         .... on
   Fraction old density DampFac         ....    0.7000
   Max. Damping (<1)    DampMax         ....    0.9800
   Min. Damping (>=0)   DampMin         ....    0.0000
   Turn off err/grad.   DampErr         ....    0.1000
 Fernandez-Rico         CNVRico         .... off

SCF Procedure:
 Maximum # iterations   MaxIter         ....   125
 SCF integral mode      SCFMode         .... Direct
   Integral package                     .... LIBINT
 Reset frequency        DirectResetFreq ....    20
 Integral Threshold     Thresh          ....  2.500e-11 Eh
 Primitive CutOff       TCut            ....  2.500e-12 Eh

Convergence Tolerance:
 Convergence Check Mode ConvCheckMode   .... Total+1el-Energy
 Convergence forced     ConvForced      .... 1
 Energy Change          TolE            ....  1.000e-08 Eh
 1-El. energy change                    ....  1.000e-05 Eh
 Orbital Gradient       TolG            ....  1.000e-05
 Orbital Rotation angle TolX            ....  1.000e-05
 DIIS Error             TolErr          ....  5.000e-07


Diagonalization of the overlap matrix:
Smallest eigenvalue                        ... 1.944e-06
Time for diagonalization                   ...    2.481 sec
Threshold for overlap eigenvalues          ... 1.000e-08
Number of eigenvalues below threshold      ... 0
Time for construction of square roots      ...    1.626 sec
Total time needed                          ...    4.130 sec

-------------------
DFT GRID GENERATION
-------------------

General Integration Accuracy     IntAcc      ...  4.670
Radial Grid Type                 RadialGrid  ... Gauss-Chebyshev
Angular Grid (max. acc.)         AngularGrid ... Lebedev-302
Angular grid pruning method      GridPruning ... 3 (G Style)
Weight generation scheme         WeightScheme... Becke
Basis function cutoff            BFCut       ...    1.0000e-11
Integration weight cutoff        WCut        ...    1.0000e-14
Grids for H and He will be reduced by one unit

# of grid points (after initial pruning)     ... 775040 (   0.1 sec)
# of grid points (after weights+screening)   ... 649651 (  10.1 sec)
nearest neighbour list constructed           ...    0.0 sec
Grid point re-assignment to atoms done       ...    0.1 sec
Grid point division into batches done        ...    2.1 sec
Reduced shell lists constructed in    5.7 sec

Total number of grid points                  ...   649651
Total number of batches                      ...    10225
Average number of points per batch           ...       63
Average number of grid points per atom       ...     4419
Average number of shells per batch           ...   278.47 (21.84%)
Average number of basis functions per batch  ...   687.37 (20.64%)
Average number of large shells per batch     ...   158.11 (56.78%)
Average number of large basis fcns per batch ...   402.95 (58.62%)
Maximum spatial batch extension              ...  18.04, 15.20, 18.92 au
Average spatial batch extension              ...   0.22,  0.23,  0.23 au

Time for grid setup =   16.418 sec

------------------------------
INITIAL GUESS: MODEL POTENTIAL
------------------------------
Loading Hartree-Fock densities                     ... done
Calculating cut-offs                               ... done
Setting up the integral package                    ... done
Initializing the effective Hamiltonian             ... done
Starting the Coulomb interaction                   ... done (   9.9 sec)
Reading the grid                                   ... done
Mapping shells                                     ... done
Starting the XC term evaluation                    ... done (   8.3 sec)
  promolecular density results
     # of electrons  =    691.977246188
     EX              =   -624.572955325
     EC              =    -24.218619662
     EX+EC           =   -648.791574987
Transforming the Hamiltonian                       ... done (   1.3 sec)
Diagonalizing the Hamiltonian                      ... done (   2.4 sec)
Back transforming the eigenvectors                 ... done (   0.6 sec)
Now organizing SCF variables                       ... done
                      ------------------
                      INITIAL GUESS DONE (  39.6 sec)
                      ------------------
--------------------
COSX GRID GENERATION
--------------------

General Integration Accuracy     IntAcc      ...  3.340
Radial Grid Type                 RadialGrid  ... Gauss-Chebyshev
Angular Grid (max. acc.)         AngularGrid ... Lebedev-50
Angular grid pruning method      GridPruning ... 3 (G Style)
Weight generation scheme         WeightScheme... Becke
Basis function cutoff            BFCut       ...    1.0000e-11
Integration weight cutoff        WCut        ...    1.0000e-14
Grids for H and He will be reduced by one unit

# of grid points (after initial pruning)     ...  72708 (   0.0 sec)
# of grid points (after weights+screening)   ...  63919 (   0.9 sec)
nearest neighbour list constructed           ...    0.0 sec
Grid point re-assignment to atoms done       ...    0.0 sec
Grid point division into batches done        ...    0.0 sec
Reduced shell lists constructed in    0.5 sec

Total number of grid points                  ...    63919
Total number of batches                      ...     1078
Average number of points per batch           ...       59
Average number of grid points per atom       ...      435
Average number of shells per batch           ...   327.40 (25.68%)
Average number of basis functions per batch  ...   817.02 (24.53%)
Average number of large shells per batch     ...   185.33 (56.61%)
Average number of large basis fcns per batch ...   478.31 (58.54%)
Maximum spatial batch extension              ...   9.51,  7.22, 14.56 au
Average spatial batch extension              ...   0.45,  0.44,  0.52 au

Overlap Fitting                  UseSFitting ... on
Constructing numerical overlap ... done (      0.7 sec)
Inverting numerical overlap    ... done (      0.6 sec)
Obtaining analytic overlap     ... done (      0.0 sec)
Final contraction and storage  ... done (      1.2 sec)


General Integration Accuracy     IntAcc      ...  3.670
Radial Grid Type                 RadialGrid  ... Gauss-Chebyshev
Angular Grid (max. acc.)         AngularGrid ... Lebedev-50
Angular grid pruning method      GridPruning ... 3 (G Style)
Weight generation scheme         WeightScheme... Becke
Basis function cutoff            BFCut       ...    1.0000e-11
Integration weight cutoff        WCut        ...    1.0000e-14
Grids for H and He will be reduced by one unit

# of grid points (after initial pruning)     ...  90986 (   0.0 sec)
# of grid points (after weights+screening)   ...  79656 (   1.2 sec)
nearest neighbour list constructed           ...    0.0 sec
Grid point re-assignment to atoms done       ...    0.0 sec
Grid point division into batches done        ...    0.0 sec
Reduced shell lists constructed in    0.6 sec

Total number of grid points                  ...    79656
Total number of batches                      ...     1310
Average number of points per batch           ...       60
Average number of grid points per atom       ...      542
Average number of shells per batch           ...   320.42 (25.13%)
Average number of basis functions per batch  ...   797.78 (23.95%)
Average number of large shells per batch     ...   181.32 (56.59%)
Average number of large basis fcns per batch ...   466.72 (58.50%)
Maximum spatial batch extension              ...  12.41,  9.19, 11.44 au
Average spatial batch extension              ...   0.42,  0.43,  0.47 au

Overlap Fitting                  UseSFitting ... on
Constructing numerical overlap ... done (      0.8 sec)
Inverting numerical overlap    ... done (      0.6 sec)
Obtaining analytic overlap     ... done (      0.0 sec)
Final contraction and storage  ... done (      1.2 sec)


General Integration Accuracy     IntAcc      ...  4.010
Radial Grid Type                 RadialGrid  ... Gauss-Chebyshev
Angular Grid (max. acc.)         AngularGrid ... Lebedev-110
Angular grid pruning method      GridPruning ... 3 (G Style)
Weight generation scheme         WeightScheme... Becke
Basis function cutoff            BFCut       ...    1.0000e-11
Integration weight cutoff        WCut        ...    1.0000e-14
Grids for H and He will be reduced by one unit

# of grid points (after initial pruning)     ... 176272 (   0.0 sec)
# of grid points (after weights+screening)   ... 152779 (   2.4 sec)
nearest neighbour list constructed           ...    0.0 sec
Grid point re-assignment to atoms done       ...    0.0 sec
Grid point division into batches done        ...    0.1 sec
Reduced shell lists constructed in    1.1 sec

Total number of grid points                  ...   152779
Total number of batches                      ...     2465
Average number of points per batch           ...       61
Average number of grid points per atom       ...     1039
Average number of shells per batch           ...   307.03 (24.08%)
Average number of basis functions per batch  ...   764.31 (22.95%)
Average number of large shells per batch     ...   175.28 (57.09%)
Average number of large basis fcns per batch ...   450.46 (58.94%)
Maximum spatial batch extension              ...  11.42, 10.84, 15.93 au
Average spatial batch extension              ...   0.36,  0.36,  0.38 au

Overlap Fitting                  UseSFitting ... on
Constructing numerical overlap ... done (      1.3 sec)
Inverting numerical overlap    ... done (      0.6 sec)
Obtaining analytic overlap     ... done (      0.0 sec)
Final contraction and storage  ... done (      1.2 sec)

Time for X-Grid setup             =   15.962 sec
--------------
SCF ITERATIONS
--------------
ITER       Energy         Delta-E        Max-DP      RMS-DP      [F,P]     Damp
               ***  Starting incremental Fock matrix formation  ***
  0  -5551.1420421782   0.000000000000 0.26881494  0.00077598  0.2850574 0.7000
  1  -5552.2070168672  -1.064974688983 0.23061138  0.00064584  0.1020718 0.7000
                               ***Turning on DIIS***
  2  -5552.6049743029  -0.397957435634 0.30081268  0.00100692  0.0422876 0.0000
  3  -5553.2518962116  -0.646921908781 0.22338243  0.00058010  0.0558539 0.0000
  4  -5553.3920547818  -0.140158570193 0.05382956  0.00017747  0.0341849 0.0000
  5  -5553.4064398573  -0.014385075439 0.01503007  0.00007368  0.0130319 0.0000
                      *** Initiating the SOSCF procedure ***
                           *** Shutting down DIIS ***
                      *** Re-Reading the Fockian *** 
                      *** Removing any level shift *** 
ITER      Energy       Delta-E        Grad      Rot      Max-DP    RMS-DP
  6  -5553.40796151  -0.0015216495  0.000718  0.000718  0.005054  0.000027
               *** Restarting incremental Fock matrix formation ***
[...]
   Time for XC-Integration:    11.086
   Time for Sigma-Completion:   124.623
   Size of expansion space: 12
   Lowest Energy          :     0.043987727601
   Maximum Energy change  :     0.005414777007 (vector 2)
   Maximum residual norm  :     0.000066062592

                       ****Iteration    2****
   Time for densities:    17.163
   Time for K (COSX):   897.969
   Time for XC-Integration:    11.597
   Time for Sigma-Completion:   131.520
   Size of expansion space: 15
   Lowest Energy          :     0.043856652425
   Maximum Energy change  :     0.000968267239 (vector 2)
   Maximum residual norm  :     0.000024812424
   Rebuilding the expansion space

                       ****Iteration    3****
   Time for densities:    32.971
   Time for K (COSX):   930.449
   Time for XC-Integration:    23.286
   Time for Sigma-Completion:   216.532
   Size of expansion space: 6
   Lowest Energy          :     0.043851724853
   Maximum Energy change  :     0.000192072685 (vector 2)
   Maximum residual norm  :     0.000003682714

                       ****Iteration    4****
   Time for densities:    17.153
   Time for K (COSX):   850.582
   Time for XC-Integration:    10.982
   Time for Sigma-Completion:   121.858
   Size of expansion space: 9
   Lowest Energy          :     0.043851306248
   Maximum Energy change  :     0.000056173106 (vector 2)
   Maximum residual norm  :     0.000001507334

                       ****Iteration    5****
   Time for densities:    15.097
   Time for K (COSX):   873.055
   Time for XC-Integration:     6.401
   Time for Sigma-Completion:   127.274
   Size of expansion space: 12
   Lowest Energy          :     0.043851287308
   Maximum Energy change  :     0.000002805678 (vector 2)
   Maximum residual norm  :     0.000001380690

                       ****Iteration    6****
   Time for densities:    17.161
   Time for K (COSX):   895.938
   Time for XC-Integration:    11.925
   Time for Sigma-Completion:   132.156
   Size of expansion space: 15
   Lowest Energy          :     0.043851286850
   Maximum Energy change  :     0.000020030843 (vector 2)
   Maximum residual norm  :     0.000000479467
   Rebuilding the expansion space

                       ****Iteration    7****
   Time for densities:    32.725
   Time for K (COSX):   950.387
   Time for XC-Integration:    23.029
   Time for Sigma-Completion:   272.407
   Size of expansion space: 6
   Lowest Energy          :     0.043851285761
   Maximum Energy change  :     0.000002590333 (vector 2)
   Maximum residual norm  :     0.000000120580

      *** CONVERGENCE OF RESIDUAL NORM REACHED ***

Storing the converged CI vectors               ... N65-2FIC.cis3

                 *** DAVIDSON DONE ***

------------------------------------
TD-DFT/TDA EXCITED STATES (TRIPLETS)
------------------------------------

the weight of the individual excitations are printed if larger than 1.0e-02

STATE  1:  E=   0.043851 au      1.193 eV     9624.2 cm**-1
   344a -> 347a  :     0.043870 (c= -0.20945140)
   345a -> 346a  :     0.893810 (c=  0.94541527)
   345a -> 348a  :     0.014093 (c=  0.11871436)
   345a -> 350a  :     0.010311 (c= -0.10154462)

STATE  2:  E=   0.054056 au      1.471 eV    11863.8 cm**-1
   344a -> 346a  :     0.200897 (c=  0.44821487)
   345a -> 347a  :     0.725948 (c= -0.85202586)
   345a -> 349a  :     0.016598 (c= -0.12883383)

STATE  3:  E=   0.071584 au      1.948 eV    15710.8 cm**-1
   335a -> 346a  :     0.013067 (c= -0.11430899)
   337a -> 346a  :     0.030623 (c= -0.17499436)
   340a -> 346a  :     0.034938 (c= -0.18691699)
   341a -> 346a  :     0.011047 (c= -0.10510330)
   344a -> 346a  :     0.021866 (c=  0.14787085)
   344a -> 347a  :     0.153365 (c=  0.39161817)
   345a -> 348a  :     0.507819 (c=  0.71261393)
   345a -> 349a  :     0.013077 (c= -0.11435460)
   345a -> 350a  :     0.100900 (c= -0.31764817)

------------------------------
TD-DFT/TDA SPIN-ORBIT COUPLING
------------------------------

Calculating the spin-orbit integrals:             

Loading the effective charges         ... done
Entering the SOC calc. section        ... 
------------------------------------------------------------------------------
                         ORCA SPIN-ORBIT COUPLING CALCULATION
------------------------------------------------------------------------------

GBW file                                    ... N65-2FIC.gbw
Input density                               ... N65-2FIC.cisp0
Output integrals                            ... N65-2FIC.cis
Operator type                               ... Mean-field/Effective potential
   One-Electron Terms                       ... 1
   Coulomb Contribution                     ... 2
   Exchange Contribution                    ... 3
   Correlation Contribution                 ... 0
   Maximum number of centers                ... 4
Setting up the integration grid             ... done
Evaluating density on the grid              ... (NumEl=  692.000990) done
Evaluating Coulomb term semi-analytically   ... done
One-Center Exchange (+SOO)                  ... done
Evaluating the spin-orbit operator          ... done
Transforming the SOC integrals              ... done
Constructing the SOC matrix:                ... done
Diagonalizing the SOC matrix:               ... done

      --------------------------------------------------------------------------------
                      CALCULATED SOCME BETWEEN TRIPLETS AND SINGLETS                  
      --------------------------------------------------------------------------------
           Root                          <T|HSO|S>  (Re, Im) cm-1                     
         T      S             Z                     X                     Y           
      --------------------------------------------------------------------------------
         1      0    (   0.00 ,    0.07 )    (   0.00 ,   -0.59 )    (  -0.00 ,    1.93 )
         1      1    (   0.00 ,   -0.14 )    (   0.00 ,    0.17 )    (  -0.00 ,   -0.19 )
         1      2    (   0.00 ,   -0.20 )    (   0.00 ,   -1.45 )    (  -0.00 ,    0.61 )
         1      3    (   0.00 ,    0.64 )    (   0.00 ,   -0.03 )    (  -0.00 ,    0.15 )
         2      0    (   0.00 ,   -0.04 )    (   0.00 ,    0.26 )    (  -0.00 ,   -0.46 )
         2      1    (   0.00 ,   -0.00 )    (   0.00 ,    0.06 )    (  -0.00 ,    0.18 )
         2      2    (   0.00 ,   -0.23 )    (   0.00 ,    0.18 )    (  -0.00 ,   -0.21 )
         2      3    (   0.00 ,    0.22 )    (   0.00 ,    1.85 )    (  -0.00 ,   -0.15 )
         3      0    (   0.00 ,    0.26 )    (   0.00 ,    1.53 )    (  -0.00 ,   -1.82 )
         3      1    (   0.00 ,   -0.38 )    (   0.00 ,    0.03 )    (  -0.00 ,   -0.10 )
         3      2    (   0.00 ,   -0.09 )    (   0.00 ,   -0.35 )    (  -0.00 ,   -0.17 )
         3      3    (   0.00 ,   -0.32 )    (   0.00 ,    0.12 )    (  -0.00 ,   -0.30 )

SOC stabilization of the ground state:  -0.0008 cm-1
Eigenvalues of the SOC matrix:

   State:        cm-1         eV
     0:          0.00         0.0000
     1:       9624.24         1.1933
     2:       9624.25         1.1933
     3:       9624.25         1.1933
     4:      11863.85         1.4709
     5:      11863.85         1.4709
     6:      11863.85         1.4709
     7:      13983.37         1.7337
     8:      15710.79         1.9479
     9:      15710.79         1.9479
    10:      15710.79         1.9479
    11:      15856.77         1.9660
    12:      18647.86         2.3120

The threshold for printing is 0.0100
Eigenvectors of the SOC matrix:

             E(cm-1)  Weight      Real         Imag     : Root  Spin  Ms
 STATE  0:      0.00
                      1.00000     -0.76555      0.64337 : 0     0     0
 STATE  1:   9624.24
                      0.96682      0.98298      0.02384 : 1     1     0
                      0.01659     -0.08560      0.09625 : 1     1    -1
                      0.01659      0.08083      0.10028 : 1     1     1
 STATE  2:   9624.25
                      0.02560     -0.03501     -0.15612 : 1     1     0
                      0.48720     -0.38442     -0.58260 : 1     1    -1
                      0.48720     -0.09880      0.69097 : 1     1     1
 STATE  3:   9624.25
                      0.49621      0.49213      0.50400 : 1     1    -1
                      0.49621      0.01399      0.70428 : 1     1     1
 STATE  4:  11863.85
                      0.49940      0.52126     -0.47717 : 2     1    -1
                      0.49940     -0.19365     -0.67963 : 2     1     1
 STATE  5:  11863.85
                      0.92495     -0.31222      0.90965 : 2     1     0
                      0.03753      0.13379     -0.14009 : 2     1    -1
                      0.03753      0.01956      0.19273 : 2     1     1
 STATE  6:  11863.85
                      0.07386     -0.03893      0.26897 : 2     1     0
                      0.46307     -0.44205      0.51737 : 2     1    -1
                      0.46307     -0.27723     -0.62146 : 2     1     1
 STATE  7:  13983.37
                      1.00000     -0.96847      0.24911 : 1     0     0
 STATE  8:  15710.79
                      0.03390     -0.18215      0.02687 : 3     1     0
                      0.48305     -0.66541      0.20068 : 3     1    -1
                      0.48305      0.69501      0.00000 : 3     1     1
 STATE  9:  15710.79
                      0.20837      0.10971      0.44309 : 3     1     0
                      0.39582      0.55646     -0.29355 : 3     1    -1
                      0.39582      0.62914      0.00000 : 3     1     1
 STATE 10:  15710.79
                      0.75773      0.16544     -0.85461 : 3     1     0
                      0.12113      0.32290      0.12988 : 3     1    -1
                      0.12113      0.34804      0.00000 : 3     1     1
 STATE 11:  15856.77
                      0.99999     -0.43729     -0.89932 : 2     0     0
 STATE 12:  18647.86
                      1.00000      0.92998     -0.36762 : 3     0     0

-----------------------------
TD-DFT/TDA-EXCITATION SPECTRA
-----------------------------

Center of mass = (  2.1449,  0.4397,  3.2303)
Calculating the Dipole integrals                  ... done
Transforming integrals                            ... done
Calculating the Linear Momentum integrals         ... done
Transforming integrals                            ... done
Calculating angular momentum integrals            ... done
Transforming integrals                            ... done

-----------------------------------------------------------------------------
         ABSORPTION SPECTRUM VIA TRANSITION ELECTRIC DIPOLE MOMENTS
-----------------------------------------------------------------------------
State   Energy    Wavelength  fosc         T2        TX        TY        TZ  
        (cm-1)      (nm)                 (au**2)    (au)      (au)      (au) 
-----------------------------------------------------------------------------
   1   13983.4    715.1   2.215237112  52.15357  -0.32939  -7.18211   0.68001
   2   15856.8    630.6   0.100188920   2.08008  -0.69037  -1.04475   0.71552
   3   18647.9    536.3   0.550977764   9.72704  -0.61355  -3.04797   0.24592
   4    9624.2   1039.0   spin forbidden (mult=3)
   5   11863.8    842.9   spin forbidden (mult=3)
   6   15710.8    636.5   spin forbidden (mult=3)

-----------------------------------------------------------------------------
         ABSORPTION SPECTRUM VIA TRANSITION VELOCITY DIPOLE MOMENTS
-----------------------------------------------------------------------------
State   Energy    Wavelength   fosc        P2         PX        PY        PZ  
        (cm-1)      (nm)                 (au**2)     (au)      (au)      (au) 
-----------------------------------------------------------------------------
   1   13983.4    715.1   0.330860727   0.03162  -0.00572   0.17669  -0.01920
   2   15856.8    630.6   0.027612124   0.00299  -0.01634   0.05089  -0.01167
   3   18647.9    536.3   0.092928646   0.01184  -0.03100   0.10339  -0.01386
   4    9624.2   1039.0   spin forbidden (mult=3)
   5   11863.8    842.9   spin forbidden (mult=3)
   6   15710.8    636.5   spin forbidden (mult=3)

-------------------------------------------------------------------
                             CD SPECTRUM
-------------------------------------------------------------------
State  Energy     Wavelength     R         MX        MY        MZ   
       (cm-1)       (nm)     (1e40*cgs)   (au)      (au)      (au)  
-------------------------------------------------------------------
   1   13983.4    715.1     82.27085  -0.06332  -0.00389   0.18486
   2   15856.8    630.6     23.83678  -0.06890   0.03579   0.05645
   3   18647.9    536.3    -107.57415   0.33473   0.02136   0.17204
   4    9624.2   1039.0 spin forbidden
   5   11863.8    842.9 spin forbidden
   6   15710.8    636.5 spin forbidden

-------------------------------------------
SOC CORRECTED TD-DFT/TDA-EXCITATION SPECTRA
--------------------------------------------

-----------------------------------------------------------------------------
  SOC CORRECTED ABSORPTION SPECTRUM VIA TRANSITION ELECTRIC DIPOLE MOMENTS*  
-----------------------------------------------------------------------------
State   Energy  Wavelength   fosc         T2         TX        TY        TZ  
        (cm-1)    (nm)                  (au**2)     (au)      (au)      (au) 
-----------------------------------------------------------------------------
   1    9624.2   1039.0   0.000000000   0.00000   0.00004   0.00002   0.00001
   2    9624.2   1039.0   0.000000001   0.00000   0.00010   0.00002   0.00009
   3    9624.2   1039.0   0.000000001   0.00000   0.00011   0.00014   0.00009
   4   11863.8    842.9   0.000000000   0.00000   0.00011   0.00002   0.00002
   5   11863.8    842.9   0.000000011   0.00000   0.00006   0.00053   0.00009
   6   11863.8    842.9   0.000000138   0.00000   0.00010   0.00195   0.00020
   7   13983.4    715.1   2.215237124  52.15357   0.32939   7.18211   0.68001
   8   15710.8    636.5   0.000000647   0.00001   0.00187   0.00254   0.00191
   9   15710.8    636.5   0.000000013   0.00000   0.00039   0.00015   0.00029
  10   15710.8    636.5   0.000000065   0.00000   0.00012   0.00114   0.00019
  11   15856.8    630.6   0.100188125   2.08007   0.69037   1.04475   0.71552
  12   18647.9    536.3   0.550977626   9.72704   0.61355   3.04797   0.24592

-----------------------------------------------------------------------------
  SOC CORRECTED ABSORPTION SPECTRUM VIA TRANSITION VELOCITY DIPOLE MOMENTS*  
-----------------------------------------------------------------------------
State   Energy  Wavelength   fosc         P2         PX        PY        PZ  
        (cm-1)    (nm)                  (au**2)     (au)      (au)      (au) 
-----------------------------------------------------------------------------
   1    9624.2   1039.0   0.000000000   0.00000   0.00000   0.00000   0.00000
   2    9624.2   1039.0   0.000000001   0.00000   0.00000   0.00001   0.00000
   3    9624.2   1039.0   0.000000001   0.00000   0.00000   0.00000   0.00000
   4   11863.8    842.9   0.000000005   0.00000   0.00000   0.00002   0.00000
   5   11863.8    842.9   0.000000001   0.00000   0.00000   0.00001   0.00000
   6   11863.8    842.9   0.000000010   0.00000   0.00001   0.00003   0.00000
   7   13983.4    715.1   0.330860685   0.03162   0.00572   0.17669   0.01920
   8   15710.8    636.5   0.000000176   0.00000   0.00004   0.00013   0.00003
   9   15710.8    636.5   0.000000007   0.00000   0.00002   0.00002   0.00001
  10   15710.8    636.5   0.000000011   0.00000   0.00000   0.00003   0.00000
  11   15856.8    630.6   0.027611919   0.00299   0.01634   0.05089   0.01167
  12   18647.9    536.3   0.092928629   0.01184   0.03100   0.10339   0.01386

-------------------------------------------------------------------
                    SOC CORRECTED CD SPECTRUM*                     
-------------------------------------------------------------------
State   Energy Wavelength       R         MX        MY        MZ   
        (cm-1)   (nm)       (1e40*sgs)   (au)      (au)      (au)  
-------------------------------------------------------------------
   1    9624.2   1039.0      0.00000   0.00003   0.00000   0.00001
   2    9624.2   1039.0      0.00000   0.00002   0.00001   0.00000
   3    9624.2   1039.0      0.00000   0.00000   0.00000   0.00000
   4   11863.8    842.9      0.00000   0.00004   0.00000   0.00003
   5   11863.8    842.9      0.00000   0.00001   0.00000   0.00001
   6   11863.8    842.9      0.00001   0.00008   0.00001   0.00004
   7   13983.4    715.1     82.27085   0.06332   0.00389   0.18486
   8   15710.8    636.5      0.00017   0.00018   0.00009   0.00014
   9   15710.8    636.5      0.00001   0.00000   0.00003   0.00005
  10   15710.8    636.5      0.00000   0.00005   0.00001   0.00004
  11   15856.8    630.6     23.83658   0.06890   0.03579   0.05645
  12   18647.9    536.3    107.57415   0.33473   0.02136   0.17204

*The X,Y and Z components are the absolute values of the complex numbers

Total run time:    28078.314 sec

           *** ORCA-CIS/TD-DFT FINISHED WITHOUT ERROR ***

---------------------------
SOC CIS/TD-DFT TOTAL ENERGY
---------------------------

    E(SCF)        =  -5553.409353619 Eh
    E(SOC CIS)    =      0.043851283 Eh (SOC Root  1)
    ----------------------------- ---------
    E(tot)        =  -5553.365502335 Eh


-------------------------   --------------------
FINAL SINGLE POINT ENERGY     -5553.365502335464
-------------------------   --------------------


                            ***************************************
                            *     ORCA property calculations      *
                            ***************************************

                                    ---------------------
                                    Active property flags
                                    ---------------------
   (+) Dipole Moment


------------------------------------------------------------------------------
                       ORCA ELECTRIC PROPERTIES CALCULATION
------------------------------------------------------------------------------

Dipole Moment Calculation                       ... on
Quadrupole Moment Calculation                   ... off
Polarizability Calculation                      ... off
GBWName                                         ... N65-2FIC.gbw
Electron density file                           ... N65-2FIC.scfp
The origin for moment calculation is the CENTER OF MASS  = ( 2.144921,  0.439724  3.230333)

-------------
DIPOLE MOMENT
-------------
                                X             Y             Z
Electronic contribution:     17.73887      18.88907     -61.92651
Nuclear contribution   :    -19.27638     -19.34877      65.09887
                        -----------------------------------------
Total Dipole Moment    :     -1.53751      -0.45970       3.17235
                        -----------------------------------------
Magnitude (a.u.)       :      3.55515
Magnitude (Debye)      :      9.03647



--------------------
Rotational spectrum 
--------------------
 
Rotational constants in cm-1:     0.000891     0.000203     0.000186 
Rotational constants in MHz :    26.701513     6.095511     5.577842 

 Dipole components along the rotational axes: 
x,y,z [a.u.] :    -0.880039    -1.241255     3.213083 
x,y,z [Debye]:    -2.236881    -3.155020     8.167009 

 

Timings for individual modules:

Sum of individual times         ...    35897.042 sec (= 598.284 min)
GTO integral calculation        ...       16.800 sec (=   0.280 min)   0.0 %
SCF iterations                  ...     7799.257 sec (= 129.988 min)  21.7 %
CIS module                      ...    28080.986 sec (= 468.016 min)  78.2 %
                             ****ORCA TERMINATED NORMALLY****
TOTAL RUN TIME: 0 days 9 hours 58 minutes 21 seconds 298 msec
