
                                 *****************
                                 * O   R   C   A *
                                 *****************

           --- An Ab Initio, DFT and Semiempirical electronic structure package ---

                  #######################################################
                  #                        -***-                        #
                  #          Department of theory and spectroscopy      #
                  #               Directorship: Frank Neese             #
                  #        Max Planck Institute fuer Kohlenforschung    #
                  #                Kaiser Wilhelm Platz 1               #
                  #                 D-45470 Muelheim/Ruhr               #
                  #                      Germany                        #
                  #                                                     #
                  #                  All rights reserved                #
                  #                        -***-                        #
                  #######################################################


                         Program Version 4.2.0 -  RELEASE  -


 With contributions from (in alphabetic order):
   Daniel Aravena         : Magnetic Suceptibility
   Michael Atanasov       : Ab Initio Ligand Field Theory (pilot matlab implementation)
   Alexander A. Auer      : GIAO ZORA, VPT2
   Ute Becker             : Parallelization
   Giovanni Bistoni       : ED, misc. LED, open-shell LED, HFLED
   Martin Brehm           : Molecular dynamics
   Dmytro Bykov           : SCF Hessian
   Vijay G. Chilkuri      : MRCI spin determinant printing, contributions to CSF-ICE
   Dipayan Datta          : RHF DLPNO-CCSD density
   Achintya Kumar Dutta   : EOM-CC, STEOM-CC
   Dmitry Ganyushin       : Spin-Orbit,Spin-Spin,Magnetic field MRCI
   Miquel Garcia          : C-PCM Hessian, Gaussian charge scheme
   Yang Guo               : DLPNO-NEVPT2, CIM, IAO-localization
   Andreas Hansen         : Spin unrestricted coupled pair/coupled cluster methods
   Benjamin Helmich-Paris : CASSCF linear response (MC-RPA)
   Lee Huntington         : MR-EOM, pCC
   Robert Izsak           : Overlap fitted RIJCOSX, COSX-SCS-MP3, EOM
   Christian Kollmar      : KDIIS, OOCD, Brueckner-CCSD(T), CCSD density
   Simone Kossmann        : Meta GGA functionals, TD-DFT gradient, OOMP2, MP2 Hessian
   Martin Krupicka        : AUTO-CI
   Lucas Lang             : DCDCAS
   Dagmar Lenk            : GEPOL surface, SMD
   Dimitrios Liakos       : Extrapolation schemes; Compound Job, initial MDCI parallelization
   Dimitrios Manganas     : Further ROCIS development; embedding schemes
   Dimitrios Pantazis     : SARC Basis sets
   Taras Petrenko         : DFT Hessian,TD-DFT gradient, ASA, ECA, R-Raman, ABS, FL, XAS/XES, NRVS
   Peter Pinski           : DLPNO-MP2, DLPNO-MP2 Gradient
   Christoph Reimann      : Effective Core Potentials
   Marius Retegan         : Local ZFS, SOC
   Christoph Riplinger    : Optimizer, TS searches, QM/MM, DLPNO-CCSD(T), (RO)-DLPNO pert. Triples
   Tobias Risthaus        : Range-separated hybrids, TD-DFT gradient, RPA, STAB
   Michael Roemelt        : Original ROCIS implementation
   Masaaki Saitow         : Open-shell DLPNO-CCSD energy and density
   Barbara Sandhoefer     : DKH picture change effects
   Avijit Sen             : IP-ROCIS
   Kantharuban Sivalingam : CASSCF convergence, NEVPT2, FIC-MRCI
   Bernardo de Souza      : ESD, SOC TD-DFT
   Georgi Stoychev        : AutoAux, RI-MP2 NMR
   Willem Van den Heuvel  : Paramagnetic NMR
   Boris Wezisla          : Elementary symmetry handling
   Frank Wennmohs         : Technical directorship


 We gratefully acknowledge several colleagues who have allowed us to
 interface, adapt or use parts of their codes:
   Stefan Grimme, W. Hujo, H. Kruse,             : VdW corrections, initial TS optimization,
                  C. Bannwarth                     DFT functionals, gCP, sTDA/sTD-DF
   Ed Valeev, F. Pavosevic, A. Kumar             : LibInt (2-el integral package), F12 methods
   Garnet Chan, S. Sharma, J. Yang, R. Olivares  : DMRG
   Ulf Ekstrom                                   : XCFun DFT Library
   Mihaly Kallay                                 : mrcc  (arbitrary order and MRCC methods)
   Andreas Klamt, Michael Diedenhofen            : otool_cosmo (COSMO solvation model)
   Jiri Pittner, Ondrej Demel                    : Mk-CCSD
   Frank Weinhold                                : gennbo (NPA and NBO analysis)
   Christopher J. Cramer and Donald G. Truhlar   : smd solvation model
   Lars Goerigk                                  : TD-DFT with DH, B97 family of functionals
   V. Asgeirsson, H. Jonsson                     : NEB implementation
   FAccTs GmbH                                   : IRC, NEB, NEB-TS, Multilevel, MM, QM/MM, CI optimization
   S Lehtola, MJT Oliveira, MAL Marques          : LibXC Library


 Your calculation uses the libint2 library for the computation of 2-el integrals
 For citations please refer to: http://libint.valeyev.net

 Your ORCA version has been built with support for libXC version: 4.2.3
 For citations please refer to: https://tddft.org/programs/libxc/

 This ORCA versions uses:
   CBLAS   interface :  Fast vector & matrix operations
   LAPACKE interface :  Fast linear algebra routines
   SCALAPACK package :  Parallel linear algebra routines


----- Orbital basis set information -----
Your calculation utilizes the basis: def2-TZVP
   F. Weigend and R. Ahlrichs, Phys. Chem. Chem. Phys. 7, 3297 (2005).

----- AuxJ basis set information -----
Your calculation utilizes the auxiliary basis: def2/J
   F. Weigend, Phys. Chem. Chem. Phys. 8, 1057 (2006).

================================================================================
                                        WARNINGS
                       Please study these warnings very carefully!
================================================================================

INFO   : Checking CIS options ...

WARNING: (CIS/TDDFT): Spin-orbit needs TRIPLETS set to TRUE
  ===> : ajusting flags

WARNING: CIS/ROCIS methods need fully converged wavefunctions
  ===> : Setting SCFConvForced true
         You can overwrite this default with %scf ConvForced false 


INFO   : the flag for use of LIBINT has been found!

================================================================================
                                       INPUT FILE
================================================================================
NAME = N65-2FIC.inp
|  1> # ORCA input file
|  2> # N65-2FIC.out
|  3> ! B3LYP def2-TZVP def2/J RIJCOSX Grid4 TightSCF
|  4> 
|  5> %maxcore 2000
|  6> %tddft
|  7>   maxdim 5
|  8>   nroots 3
|  9>   dosoc true
| 10>   end
| 11> 
| 12> 
| 13> 
| 14> * xyz 0 1
| 15>    C       -3.33190        -0.15683         1.30956
| 16>    C       -2.18817        -0.79523         1.73278
| 17>    C       -0.96176        -0.09313         1.72395
| 18>    C       -0.95558         1.28991         1.40417
| 19>    C       -2.15338         1.91630         1.02142
| 20>    C       -3.31234         1.19193         0.94271
| 21>    C        0.27999        -0.76057         1.96089
| 22>    C        1.47247        -0.05444         2.01914
| 23>    C        1.46621         1.31626         1.83260
| 24>    C        0.28042         1.97613         1.48559
| 25>    C       -2.25507        -2.19344         2.32063
| 26>    C       -0.94439        -2.89245         2.10523
| 27>    C        0.23612        -2.18481         2.02428
| 28>    C        2.63552         2.27493         1.91284
| 29>    C        1.98387         3.54035         1.41804
| 30>    C        0.62121         3.33489         1.22498
| 31>    C       -3.33682        -3.03766         1.66920
| 32>    C       -2.49470        -2.01401         3.82597
| 33>    C       -4.30240        -3.71718         2.39307
| 34>    C       -5.22115        -4.53266         1.75176
| 35>    C       -5.19179        -4.69944         0.37592
| 36>    C       -4.21797        -4.01235        -0.34583
| 37>    C       -3.30515        -3.19571         0.28635
| 38>    C       -3.51729        -1.18476         4.27255
| 39>    C       -3.75477        -1.01299         5.62240
| 40>    C       -2.97955        -1.66291         6.57385
| 41>    C       -1.96240        -2.49347         6.12746
| 42>    C       -1.72314        -2.66914         4.77624
| 43>    C       -3.20321        -1.43432         8.04026
| 44>    C       -2.35592        -0.25827         8.53055
| 45>    C       -6.15952        -5.57763        -0.37200
| 46>    C       -6.98564        -6.52196         0.49232
| 47>    C        3.08579         2.47531         3.35877
| 48>    C        3.82389         1.82379         0.99794
| 49>    C        2.68775         1.63604         4.38939
| 50>    C        3.17843         1.80996         5.67146
| 51>    C        4.07660         2.82414         5.96645
| 52>    C        4.44676         3.68376         4.94116
| 53>    C        3.95679         3.51544         3.66222
| 54>    C        4.59187         3.02120         7.36246
| 55>    C        3.67218         3.96042         8.14554
| 56>    C        2.35275         4.83833         1.07901
| 57>    C        1.25892         5.61598         0.64019
| 58>    S       -0.23438         4.72973         0.66293
| 59>    S        3.80889         5.75367         1.00409
| 60>    C        2.95139         7.15175         0.36595
| 61>    C        1.59086         6.90060         0.24498
| 62>    C       -0.71869        -4.27219         2.04059
| 63>    C        0.63765        -4.61336         1.90137
| 64>    S        1.64854        -3.20899         1.87396
| 65>    S       -1.71333        -5.67144         2.08861
| 66>    C       -0.30746        -6.70759         1.85763
| 67>    C        0.87013        -5.97598         1.78922
| 68>    C       -0.50720        -8.10060         1.82780
| 69>    C        0.31510        -9.09602         1.38046
| 70>    C        5.12937         1.73068         1.73247
| 71>    C        6.09432         2.71889         1.59730
| 72>    C        7.24965         2.68574         2.35583
| 73>    C        7.47178         1.66332         3.26743
| 74>    C        6.52489         0.65259         3.37115
| 75>    C        5.37261         0.68280         2.61174
| 76>    C        8.66943         1.68246         4.17194
| 77>    C        8.31475         2.38441         5.48489
| 78>    C        1.49118        -9.10530         0.54268
| 79>    C        2.14598       -10.40212         0.72941
| 80>    C        1.29087       -11.23810         1.46869
| 81>    C        0.07329       -10.48485         1.84774
| 82>    C        3.36947       -10.87733         0.28656
| 83>    C        3.70675       -12.18765         0.59269
| 84>    C        2.84662       -13.01578         1.31468
| 85>    C        1.62258       -12.54562         1.76337
| 86>    F        3.20980       -14.27625         1.57962
| 87>    F        4.88843       -12.66397         0.18626
| 88>    O       -0.89421       -10.89489         2.44501
| 89>    C        1.80568        -8.20577        -0.44336
| 90>    C        2.93155        -8.32129        -1.28432
| 91>    C        0.99212        -7.10923        -0.79268
| 92>    N        3.84550        -8.35620        -1.97735
| 93>    N        0.34077        -6.23146        -1.14263
| 94>    C        3.68100         8.33108         0.14253
| 95>    C        3.33368         9.46702        -0.53672
| 96>    C        2.30087         9.76959        -1.49685
| 97>    C        2.18398        11.22823        -1.56321
| 98>    C        3.25007        11.79978        -0.84705
| 99>    C        4.06401        10.72368        -0.23532
|100>    C        1.26124        12.04008        -2.20171
|101>    C        1.43068        13.41385        -2.10788
|102>    C        2.49778        13.97374        -1.40498
|103>    C        3.42430        13.16677        -0.76355
|104>    O        5.08038        10.84049         0.40883
|105>    C        1.71683         8.89577        -2.37884
|106>    C        0.76550         9.27192        -3.34833
|107>    C        2.06634         7.53395        -2.46774
|108>    N       -0.03163         9.51983        -4.13600
|109>    N        2.35032         6.42905        -2.59395
|110>    F        2.62529        15.30485        -1.34609
|111>    F        0.54370        14.21801        -2.70438
|112>    H       -4.26171        -0.70427         1.25551
|113>    H       -2.14467         2.96751         0.77741
|114>    H       -4.22671         1.66291         0.61494
|115>    H        2.39353        -0.58975         2.19934
|116>    H       -4.34196        -3.62052         3.46785
|117>    H       -5.95780        -5.04567         2.34893
|118>    H       -4.17250        -4.12914        -1.41911
|119>    H       -2.55202        -2.67867        -0.29190
|120>    H       -4.14104        -0.66678         3.56072
|121>    H       -4.55832        -0.36448         5.94107
|122>    H       -1.34734        -3.01772         6.84503
|123>    H       -0.92668        -3.33319         4.47663
|124>    H       -2.93250        -2.33122         8.60089
|125>    H       -4.25749        -1.21987         8.22540
|126>    H       -1.29944        -0.45861         8.36623
|127>    H       -2.51697        -0.09026         9.59273
|128>    H       -2.61900         0.64880         7.99082
|129>    H       -5.59169        -6.16469        -1.09926
|130>    H       -6.83538        -4.93302        -0.94380
|131>    H       -6.33913        -7.14904         1.10219
|132>    H       -7.58805        -7.16790        -0.14250
|133>    H       -7.65870        -5.97047         1.14455
|134>    H        3.91725         2.53332         0.17442
|135>    H        3.57315         0.85102         0.57184
|136>    H        1.99320         0.83081         4.20634
|137>    H        2.86048         1.13439         6.45305
|138>    H        5.13513         4.49159         5.14229
|139>    H        4.27908         4.19315         2.88920
|140>    H        5.59625         3.44771         7.32818
|141>    H        4.64511         2.05932         7.87651
|142>    H        3.61606         4.92954         7.65507
|143>    H        4.04594         4.10361         9.15659
|144>    H        2.66756         3.54697         8.20100
|145>    H        0.87483         7.63760        -0.06996
|146>    H        1.84601        -6.41903         1.70784
|147>    H       -1.42668        -8.45214         2.28691
|148>    H        5.93416         3.53121         0.90186
|149>    H        7.98359         3.47128         2.24594
|150>    H        6.68941        -0.16272         4.06125
|151>    H        4.64660        -0.11042         2.71572
|152>    H        9.49487         2.21043         3.69082
|153>    H        8.99313         0.66178         4.38530
|154>    H        8.00475         3.40878         5.29048
|155>    H        9.17160         2.40023         6.15454
|156>    H        7.49349         1.86809         5.97759
|157>    H        4.06742       -10.27538        -0.27230
|158>    H        0.95657       -13.18379         2.32186
|159>    H        4.64028         8.39202         0.64886
|160>    H        0.42023        11.65378        -2.75429
|161>    H        4.24973        13.59774        -0.21982
|162> *
|163> 
|164>                          ****END OF INPUT****
================================================================================

                       ****************************
                       * Single Point Calculation *
                       ****************************

---------------------------------
CARTESIAN COORDINATES (ANGSTROEM)
---------------------------------
  C     -3.331900   -0.156830    1.309560
  C     -2.188170   -0.795230    1.732780
  C     -0.961760   -0.093130    1.723950
  C     -0.955580    1.289910    1.404170
  C     -2.153380    1.916300    1.021420
  C     -3.312340    1.191930    0.942710
  C      0.279990   -0.760570    1.960890
  C      1.472470   -0.054440    2.019140
  C      1.466210    1.316260    1.832600
  C      0.280420    1.976130    1.485590
  C     -2.255070   -2.193440    2.320630
  C     -0.944390   -2.892450    2.105230
  C      0.236120   -2.184810    2.024280
  C      2.635520    2.274930    1.912840
  C      1.983870    3.540350    1.418040
  C      0.621210    3.334890    1.224980
  C     -3.336820   -3.037660    1.669200
  C     -2.494700   -2.014010    3.825970
  C     -4.302400   -3.717180    2.393070
  C     -5.221150   -4.532660    1.751760
  C     -5.191790   -4.699440    0.375920
  C     -4.217970   -4.012350   -0.345830
  C     -3.305150   -3.195710    0.286350
  C     -3.517290   -1.184760    4.272550
  C     -3.754770   -1.012990    5.622400
  C     -2.979550   -1.662910    6.573850
  C     -1.962400   -2.493470    6.127460
  C     -1.723140   -2.669140    4.776240
  C     -3.203210   -1.434320    8.040260
  C     -2.355920   -0.258270    8.530550
  C     -6.159520   -5.577630   -0.372000
  C     -6.985640   -6.521960    0.492320
  C      3.085790    2.475310    3.358770
  C      3.823890    1.823790    0.997940
  C      2.687750    1.636040    4.389390
  C      3.178430    1.809960    5.671460
  C      4.076600    2.824140    5.966450
  C      4.446760    3.683760    4.941160
  C      3.956790    3.515440    3.662220
  C      4.591870    3.021200    7.362460
  C      3.672180    3.960420    8.145540
  C      2.352750    4.838330    1.079010
  C      1.258920    5.615980    0.640190
  S     -0.234380    4.729730    0.662930
  S      3.808890    5.753670    1.004090
  C      2.951390    7.151750    0.365950
  C      1.590860    6.900600    0.244980
  C     -0.718690   -4.272190    2.040590
  C      0.637650   -4.613360    1.901370
  S      1.648540   -3.208990    1.873960
  S     -1.713330   -5.671440    2.088610
  C     -0.307460   -6.707590    1.857630
  C      0.870130   -5.975980    1.789220
  C     -0.507200   -8.100600    1.827800
  C      0.315100   -9.096020    1.380460
  C      5.129370    1.730680    1.732470
  C      6.094320    2.718890    1.597300
  C      7.249650    2.685740    2.355830
  C      7.471780    1.663320    3.267430
  C      6.524890    0.652590    3.371150
  C      5.372610    0.682800    2.611740
  C      8.669430    1.682460    4.171940
  C      8.314750    2.384410    5.484890
  C      1.491180   -9.105300    0.542680
  C      2.145980  -10.402120    0.729410
  C      1.290870  -11.238100    1.468690
  C      0.073290  -10.484850    1.847740
  C      3.369470  -10.877330    0.286560
  C      3.706750  -12.187650    0.592690
  C      2.846620  -13.015780    1.314680
  C      1.622580  -12.545620    1.763370
  F      3.209800  -14.276250    1.579620
  F      4.888430  -12.663970    0.186260
  O     -0.894210  -10.894890    2.445010
  C      1.805680   -8.205770   -0.443360
  C      2.931550   -8.321290   -1.284320
  C      0.992120   -7.109230   -0.792680
  N      3.845500   -8.356200   -1.977350
  N      0.340770   -6.231460   -1.142630
  C      3.681000    8.331080    0.142530
  C      3.333680    9.467020   -0.536720
  C      2.300870    9.769590   -1.496850
  C      2.183980   11.228230   -1.563210
  C      3.250070   11.799780   -0.847050
  C      4.064010   10.723680   -0.235320
  C      1.261240   12.040080   -2.201710
  C      1.430680   13.413850   -2.107880
  C      2.497780   13.973740   -1.404980
  C      3.424300   13.166770   -0.763550
  O      5.080380   10.840490    0.408830
  C      1.716830    8.895770   -2.378840
  C      0.765500    9.271920   -3.348330
  C      2.066340    7.533950   -2.467740
  N     -0.031630    9.519830   -4.136000
  N      2.350320    6.429050   -2.593950
  F      2.625290   15.304850   -1.346090
  F      0.543700   14.218010   -2.704380
  H     -4.261710   -0.704270    1.255510
  H     -2.144670    2.967510    0.777410
  H     -4.226710    1.662910    0.614940
  H      2.393530   -0.589750    2.199340
  H     -4.341960   -3.620520    3.467850
  H     -5.957800   -5.045670    2.348930
  H     -4.172500   -4.129140   -1.419110
  H     -2.552020   -2.678670   -0.291900
  H     -4.141040   -0.666780    3.560720
  H     -4.558320   -0.364480    5.941070
  H     -1.347340   -3.017720    6.845030
  H     -0.926680   -3.333190    4.476630
  H     -2.932500   -2.331220    8.600890
  H     -4.257490   -1.219870    8.225400
  H     -1.299440   -0.458610    8.366230
  H     -2.516970   -0.090260    9.592730
  H     -2.619000    0.648800    7.990820
  H     -5.591690   -6.164690   -1.099260
  H     -6.835380   -4.933020   -0.943800
  H     -6.339130   -7.149040    1.102190
  H     -7.588050   -7.167900   -0.142500
  H     -7.658700   -5.970470    1.144550
  H      3.917250    2.533320    0.174420
  H      3.573150    0.851020    0.571840
  H      1.993200    0.830810    4.206340
  H      2.860480    1.134390    6.453050
  H      5.135130    4.491590    5.142290
  H      4.279080    4.193150    2.889200
  H      5.596250    3.447710    7.328180
  H      4.645110    2.059320    7.876510
  H      3.616060    4.929540    7.655070
  H      4.045940    4.103610    9.156590
  H      2.667560    3.546970    8.201000
  H      0.874830    7.637600   -0.069960
  H      1.846010   -6.419030    1.707840
  H     -1.426680   -8.452140    2.286910
  H      5.934160    3.531210    0.901860
  H      7.983590    3.471280    2.245940
  H      6.689410   -0.162720    4.061250
  H      4.646600   -0.110420    2.715720
  H      9.494870    2.210430    3.690820
  H      8.993130    0.661780    4.385300
  H      8.004750    3.408780    5.290480
  H      9.171600    2.400230    6.154540
  H      7.493490    1.868090    5.977590
  H      4.067420  -10.275380   -0.272300
  H      0.956570  -13.183790    2.321860
  H      4.640280    8.392020    0.648860
  H      0.420230   11.653780   -2.754290
  H      4.249730   13.597740   -0.219820

----------------------------
CARTESIAN COORDINATES (A.U.)
----------------------------
  NO LB      ZA    FRAG     MASS         X           Y           Z
   0 C     6.0000    0    12.011   -6.296379   -0.296366    2.474710
   1 C     6.0000    0    12.011   -4.135042   -1.502767    3.274480
   2 C     6.0000    0    12.011   -1.817463   -0.175990    3.257793
   3 C     6.0000    0    12.011   -1.805784    2.437577    2.653497
   4 C     6.0000    0    12.011   -4.069298    3.621282    1.930204
   5 C     6.0000    0    12.011   -6.259415    2.252421    1.781464
   6 C     6.0000    0    12.011    0.529104   -1.437269    3.705545
   7 C     6.0000    0    12.011    2.782565   -0.102877    3.815622
   8 C     6.0000    0    12.011    2.770735    2.487371    3.463112
   9 C     6.0000    0    12.011    0.529917    3.734345    2.807358
  10 C     6.0000    0    12.011   -4.261465   -4.145001    4.385355
  11 C     6.0000    0    12.011   -1.784638   -5.465938    3.978308
  12 C     6.0000    0    12.011    0.446202   -4.128693    3.825335
  13 C     6.0000    0    12.011    4.980411    4.298995    3.614744
  14 C     6.0000    0    12.011    3.748971    6.690292    2.679707
  15 C     6.0000    0    12.011    1.173917    6.302029    2.314877
  16 C     6.0000    0    12.011   -6.305676   -5.740345    3.154331
  17 C     6.0000    0    12.011   -4.714300   -3.805927    7.230035
  18 C     6.0000    0    12.011   -8.130358   -7.024452    4.522247
  19 C     6.0000    0    12.011   -9.866544   -8.565486    3.310347
  20 C     6.0000    0    12.011   -9.811061   -8.880655    0.710386
  21 C     6.0000    0    12.011   -7.970808   -7.582243   -0.653524
  22 C     6.0000    0    12.011   -6.245828   -6.039017    0.541123
  23 C     6.0000    0    12.011   -6.646715   -2.238872    8.073949
  24 C     6.0000    0    12.011   -7.095487   -1.914274   10.624796
  25 C     6.0000    0    12.011   -5.630534   -3.142444   12.422776
  26 C     6.0000    0    12.011   -3.708399   -4.711975   11.579221
  27 C     6.0000    0    12.011   -3.256263   -5.043944    9.025786
  28 C     6.0000    0    12.011   -6.053190   -2.710472   15.193889
  29 C     6.0000    0    12.011   -4.452044   -0.488060   16.120403
  30 C     6.0000    0    12.011  -11.639806  -10.540193   -0.702978
  31 C     6.0000    0    12.011  -13.200946  -12.324718    0.930350
  32 C     6.0000    0    12.011    5.831298    4.677658    6.347155
  33 C     6.0000    0    12.011    7.226105    3.446464    1.885833
  34 C     6.0000    0    12.011    5.079111    3.091668    8.294745
  35 C     6.0000    0    12.011    6.006362    3.420329   10.717506
  36 C     6.0000    0    12.011    7.703658    5.336851   11.274956
  37 C     6.0000    0    12.011    8.403159    6.961298    9.337439
  38 C     6.0000    0    12.011    7.477249    6.643219    6.920593
  39 C     6.0000    0    12.011    8.677377    5.709241   13.913033
  40 C     6.0000    0    12.011    6.939415    7.484109   15.392840
  41 C     6.0000    0    12.011    4.446053    9.143119    2.039033
  42 C     6.0000    0    12.011    2.379014   10.612664    1.209784
  43 S    16.0000    0    32.060   -0.442914    8.937894    1.252756
  44 S    16.0000    0    32.060    7.197759   10.872861    1.897455
  45 C     6.0000    0    12.011    5.577319   13.514849    0.691545
  46 C     6.0000    0    12.011    3.006290   13.040244    0.462945
  47 C     6.0000    0    12.011   -1.358127   -8.073269    3.856156
  48 C     6.0000    0    12.011    1.204984   -8.717987    3.593069
  49 S    16.0000    0    32.060    3.115289   -6.064112    3.541271
  50 S    16.0000    0    32.060   -3.237724  -10.717468    3.946901
  51 C     6.0000    0    12.011   -0.581015  -12.675508    3.510412
  52 C     6.0000    0    12.011    1.644307  -11.292966    3.381136
  53 C     6.0000    0    12.011   -0.958469  -15.307916    3.454041
  54 C     6.0000    0    12.011    0.595453  -17.188987    2.608691
  55 C     6.0000    0    12.011    9.693105    3.270511    3.273894
  56 C     6.0000    0    12.011   11.516596    5.137957    3.018460
  57 C     6.0000    0    12.011   13.699853    5.075313    4.451874
  58 C     6.0000    0    12.011   14.119618    3.143219    6.174548
  59 C     6.0000    0    12.011   12.330255    1.233216    6.370550
  60 C     6.0000    0    12.011   10.152762    1.290305    4.935473
  61 C     6.0000    0    12.011   16.382848    3.179389    7.883824
  62 C     6.0000    0    12.011   15.712600    4.505882   10.364940
  63 C     6.0000    0    12.011    2.817922  -17.206523    1.025517
  64 C     6.0000    0    12.011    4.055314  -19.657158    1.378385
  65 C     6.0000    0    12.011    2.439391  -21.236931    2.775422
  66 C     6.0000    0    12.011    0.138498  -19.813495    3.491723
  67 C     6.0000    0    12.011    6.367376  -20.555175    0.541520
  68 C     6.0000    0    12.011    7.004742  -23.031321    1.120022
  69 C     6.0000    0    12.011    5.379332  -24.596260    2.484385
  70 C     6.0000    0    12.011    3.066232  -23.707786    3.332286
  71 F     9.0000    0    18.998    6.065643  -26.978203    2.985049
  72 F     9.0000    0    18.998    9.237794  -23.931435    0.351980
  73 O     8.0000    0    15.999   -1.689812  -20.588358    4.620399
  74 C     6.0000    0    12.011    3.412241  -15.506658   -0.837829
  75 C     6.0000    0    12.011    5.539827  -15.724959   -2.427013
  76 C     6.0000    0    12.011    1.874835  -13.434498   -1.497948
  77 N     7.0000    0    14.007    7.266942  -15.790930   -3.736650
  78 N     7.0000    0    14.007    0.643962  -11.775753   -2.159258
  79 C     6.0000    0    12.011    6.956082   15.743460    0.269343
  80 C     6.0000    0    12.011    6.299742   17.890075   -1.014254
  81 C     6.0000    0    12.011    4.348014   18.461850   -2.828637
  82 C     6.0000    0    12.011    4.127124   21.218280   -2.954039
  83 C     6.0000    0    12.011    6.141742   22.298353   -1.600693
  84 C     6.0000    0    12.011    7.679866   20.264818   -0.444690
  85 C     6.0000    0    12.011    2.383398   22.752454   -4.160629
  86 C     6.0000    0    12.011    2.703593   25.348503   -3.983316
  87 C     6.0000    0    12.011    4.720120   26.406542   -2.655027
  88 C     6.0000    0    12.011    6.470989   24.881589   -1.442900
  89 O     8.0000    0    15.999    9.600527   20.485557    0.772577
  90 C     6.0000    0    12.011    3.244339   16.810569   -4.495356
  91 C     6.0000    0    12.011    1.446585   17.521390   -6.327427
  92 C     6.0000    0    12.011    3.904817   14.237102   -4.663353
  93 N     7.0000    0    14.007   -0.059772   17.989872   -7.815907
  94 N     7.0000    0    14.007    4.441461   12.149144   -4.901855
  95 F     9.0000    0    18.998    4.961079   28.921975   -2.543741
  96 F     9.0000    0    18.998    1.027444   26.868145   -5.110538
  97 H     1.0000    0     1.008   -8.053465   -1.330877    2.372570
  98 H     1.0000    0     1.008   -4.052839    5.607781    1.469092
  99 H     1.0000    0     1.008   -7.987324    3.142444    1.162068
 100 H     1.0000    0     1.008    4.523116   -1.114466    4.156150
 101 H     1.0000    0     1.008   -8.205115   -6.841791    6.553287
 102 H     1.0000    0     1.008  -11.258610   -9.534934    4.438834
 103 H     1.0000    0     1.008   -7.884882   -7.802944   -2.681729
 104 H     1.0000    0     1.008   -4.822619   -5.061953   -0.551611
 105 H     1.0000    0     1.008   -7.825432   -1.260032    6.728786
 106 H     1.0000    0     1.008   -8.613976   -0.688767   11.226995
 107 H     1.0000    0     1.008   -2.546104   -5.702664   12.935232
 108 H     1.0000    0     1.008   -1.751171   -6.298816    8.459605
 109 H     1.0000    0     1.008   -5.541622   -4.405367   16.253327
 110 H     1.0000    0     1.008   -8.045490   -2.305220   15.543753
 111 H     1.0000    0     1.008   -2.455586   -0.866647   15.809883
 112 H     1.0000    0     1.008   -4.756384   -0.170567   18.127633
 113 H     1.0000    0     1.008   -4.949193    1.226054   15.100461
 114 H     1.0000    0     1.008  -10.566763  -11.649576   -2.077300
 115 H     1.0000    0     1.008  -12.916996   -9.322057   -1.783524
 116 H     1.0000    0     1.008  -11.979220  -13.509728    2.082837
 117 H     1.0000    0     1.008  -14.339336  -13.545368   -0.269286
 118 H     1.0000    0     1.008  -14.472846  -11.282553    2.162886
 119 H     1.0000    0     1.008    7.402530    4.787281    0.329606
 120 H     1.0000    0     1.008    6.752275    1.608195    1.080621
 121 H     1.0000    0     1.008    3.766602    1.570003    7.948831
 122 H     1.0000    0     1.008    5.405524    2.143686   12.194497
 123 H     1.0000    0     1.008    9.703989    8.487875    9.717520
 124 H     1.0000    0     1.008    8.086289    7.923905    5.459797
 125 H     1.0000    0     1.008   10.575380    6.515228   13.848253
 126 H     1.0000    0     1.008    8.777986    3.891551   14.884447
 127 H     1.0000    0     1.008    6.833363    9.315481   14.465986
 128 H     1.0000    0     1.008    7.645719    7.754699   17.303447
 129 H     1.0000    0     1.008    5.040958    6.702802   15.497644
 130 H     1.0000    0     1.008    1.653189   14.432972   -0.132205
 131 H     1.0000    0     1.008    3.488453  -12.130209    3.227350
 132 H     1.0000    0     1.008   -2.696034  -15.972230    4.321634
 133 H     1.0000    0     1.008   11.213937    6.673020    1.704268
 134 H     1.0000    0     1.008   15.086799    6.559769    4.244212
 135 H     1.0000    0     1.008   12.641153   -0.307496    7.674650
 136 H     1.0000    0     1.008    8.780801   -0.208664    5.131967
 137 H     1.0000    0     1.008   17.942704    4.177107    6.974639
 138 H     1.0000    0     1.008   16.994553    1.250583    8.287016
 139 H     1.0000    0     1.008   15.126785    6.441661    9.997558
 140 H     1.0000    0     1.008   17.331812    4.535777   11.630395
 141 H     1.0000    0     1.008   14.160644    3.530178   11.296008
 142 H     1.0000    0     1.008    7.686310  -19.417654   -0.514572
 143 H     1.0000    0     1.008    1.807655  -24.913753    4.387680
 144 H     1.0000    0     1.008    8.768858   15.858620    1.226168
 145 H     1.0000    0     1.008    0.794120   22.022453   -5.204854
 146 H     1.0000    0     1.008    8.030826   25.696005   -0.415400

--------------------------------
INTERNAL COORDINATES (ANGSTROEM)
--------------------------------
 C      0   0   0     0.000000000000     0.00000000     0.00000000
 C      1   0   0     1.376513000774     0.00000000     0.00000000
 C      2   1   0     1.413189253780   119.25750615     0.00000000
 C      3   2   1     1.419541152063   119.29000357     6.08874867
 C      4   3   2     1.404844060599   119.47716050   356.04390368
 C      5   4   3     1.368976056255   120.10296249   359.20553426
 C      3   2   1     1.429531314697   121.38837255   189.43129322
 C      7   3   2     1.387090908989   121.06746391   183.35889918
 C      8   7   3     1.383349142191   119.66082115   359.36569843
 C      9   8   7     1.400693500056   120.26716427   355.12799772
 C      2   1   3     1.518233986117   120.63382656   174.51397820
 C     11   2   1     1.500964424129   109.56325989   153.69221546
 C     12  11   2     1.378735337982   121.13651501    28.87096447
 C      9   8   7     1.514190378585   128.07513318   177.20180395
 C     14   9   8     1.506904953506   100.38822187   172.18248663
 C     15  14   9     1.391520122312   110.18423326     5.29162927
 C     11   2   1     1.518963961324   112.15889678    34.33777017
 C     11   2   1     1.534817962300   106.19887086   271.70205117
 C     17  11   2     1.384947632115   123.02860357   231.87580058
 C     19  17  11     1.385780541428   120.60233066   183.59721700
 C     20  19  17     1.386222667395   121.06902055     0.58182293
 C     21  20  19     1.393320179643   118.00837305   359.40866934
 C     22  21  20     1.378329711789   121.16178983     0.32400395
 C     18  11   2     1.390244427070   119.97533005    50.24993696
 C     24  18  11     1.381302539562   120.96688749   179.71660767
 C     25  24  18     1.388747333859   121.02061073     0.00000000
 C     26  25  24     1.386970824567   117.97713409   359.78171720
 C     27  26  25     1.383438030741   121.14607220     0.12650597
 C     26  25  24     1.500878233502   120.99198570   177.58434547
 C     29  26  25     1.530156276561   110.34069550   270.71660499
 C     21  20  19     1.505690325200   123.33737364   179.67208517
 C     31  21  20     1.523575553000   115.35380014   346.88597209
 C     14   9   8     1.527615390797   111.15088226   287.56111324
 C     14   9   8     1.566139382846   111.87790315    52.97523720
 C     33  14   9     1.387439209083   122.62874266    14.70618337
 C     35  33  14     1.383733541438   120.69607847   176.38957441
 C     36  35  33     1.386466559784   121.25109789     0.11888040
 C     37  36  35     1.388230727977   117.93990876     1.51178870
 C     38  37  36     1.379887584878   120.95177860   358.66227631
 C     37  36  35     1.501059537993   121.08297007   179.14431681
 C     40  37  36     1.530090909358   110.50106771   270.87813508
 C     15  14   9     1.391318035425   138.48402651   186.73611657
 C     42  15  14     1.412007997074   112.59011446   179.08196275
 S     16  15  14     1.730177180580   114.22303545   179.69429521
 S     42  15  14     1.721570219770   136.95995567     1.38730106
 C     45  42  15     1.759874028446    91.49202480   176.88340919
 C     43  42  15     1.384421775363   114.45737541   182.29904648
 C     12  11   2     1.399571822809   127.34086777   204.84630252
 C     48  12  11     1.405502533936   113.54672996   183.31219258
 S     49  48  12     1.730579381912   111.61003028     0.86305911
 S     48  12  11     1.717415270836   135.11380338     3.42349131
 C     51  48  12     1.761655198897    90.76523108   177.80886773
 C     49  48  12     1.386851771928   114.09655805   182.13527651
 C     52  51  48     1.407573357449   118.13930212   179.05278184
 C     54  52  51     1.366437463626   129.97726890   163.72059132
 C     34  14   9     1.500827046465   113.07846508   233.12321445
 C     56  34  14     1.387789045749   120.86168003   256.95145987
 C     57  56  34     1.382481136327   120.70077706   174.78178729
 C     58  57  56     1.387695554976   120.78843538     0.10457196
 C     59  58  57     1.388860555779   118.43147097     1.89930331
 C     60  59  58     1.380349734886   120.80480390   358.27265029
 C     59  58  57     1.500956429148   120.94412987   185.03171895
 C     62  59  58     1.530480123164   109.74926737    91.04919917
 C     55  54  52     1.443996403458   133.21592067   344.01173150
 C     64  55  54     1.464709269889   107.20737784   164.15283554
 C     65  64  55     1.405919838006   108.75901044     9.62453552
 C     66  65  64     1.481069046804   109.40115809   357.14876142
 C     65  64  55     1.385232271751   131.13448313   188.00667162
 C     68  65  64     1.387231731795   117.91938111   181.99573699
 C     69  68  65     1.395310887903   121.66244210     0.46480668
 C     66  65  64     1.380752105521   121.95023012   177.80730079
 F     70  69  68     1.338236726779   119.61478718   179.55979379
 F     69  68  65     1.337323337753   118.95976670   180.62362699
 O     67  66  65     1.208685444812   127.73310329   177.28668113
 C     64  55  54     1.371254663620   126.85405796   332.05401649
 C     75  64  55     1.410014839957   123.93565042   184.23519116
 C     75  64  55     1.409363085794   123.79482635   359.73988756
 N     76  75  64     1.147525115847   177.01506273   203.94903251
 N     77  75  64     1.147694209230   176.59761968   223.85673322
 C     46  45  42     1.404658854455   118.13622111   177.07149329
 C     80  46  45     1.368346238530   130.09820601   167.84654324
 C     81  80  46     1.442253347335   133.34475114   343.01927692
 C     82  81  80     1.464819979144   107.22995366   163.52498241
 C     83  82  81     1.405739106734   108.73978806     9.49345092
 C     84  83  82     1.481453045662   109.37221115   357.37196657
 C     83  82  81     1.385002447687   131.12839743   188.16485942
 C     86  83  82     1.387356477406   117.89703781   181.52001279
 C     87  86  83     1.395079794169   121.66126268     0.49693225
 C     84  83  82     1.380575967848   121.94491990   178.22114503
 O     85  84  83     1.208958963530   127.71440164   177.19648742
 C     82  81  80     1.372067955351   126.80889944   331.72934586
 C     91  82  81     1.409407127660   124.02285110   183.90285965
 C     91  82  81     1.408763345101   123.40823558   359.82867681
 N     92  91  82     1.147736744162   176.87520611   206.21042203
 N     93  91  82     1.147770715126   177.30491452   223.54296404
 F     88  87  86     1.338499407658   119.61378391   179.68829112
 F     87  86  83     1.337616939187   118.95712575   180.71380887
 H      1   2   3     1.080351143009   119.70158493   176.24323511
 H      5   4   3     1.079193776993   119.27734633   180.10184010
 H      6   5   4     1.079503510972   120.24411085   182.18753061
 H      8   7   3     1.080453774902   119.18662564   180.03623778
 H     19  17  11     1.079842672615   120.12191443     3.20479936
 H     20  19  17     1.078167190885   118.46732617   179.98576236
 H     22  21  20     1.080572710834   119.38154527   179.76828090
 H     23  22  21     1.081160589829   119.95790795   179.44529306
 H     24  18  11     1.078920428855   119.97816171   359.91940268
 H     25  24  18     1.080651836393   119.38250107   180.17197706
 H     27  26  25     1.080760644639   119.61330265   180.42819567
 H     28  27  26     1.079387366148   118.47943699   180.60163588
 H     29  26  25     1.091796460427   109.85463685   150.21587164
 H     29  26  25     1.091683076950   109.84817777    31.20432966
 H     30  29  26     1.087790038748   110.35506796   300.13049372
 H     30  29  26     1.087377954071   110.47106660   179.95433704
 H     30  29  26     1.087793888657   110.36453044    59.76053131
 H     31  21  20     1.093607543911   108.04165531   224.62131068
 H     31  21  20     1.095109141456   108.22242507   109.31566877
 H     32  31  21     1.087725113896   110.67815305   304.22115636
 H     32  31  21     1.087719046491   109.71153572   184.76248834
 H     32  31  21     1.087453427325   111.19366883    65.40135924
 H     34  14   9     1.091024335613   108.57462585   111.27172180
 H     34  14   9     1.091198071158   108.09246228   354.66153899
 H     35  33  14     1.079028432387   120.66805808   356.72640199
 H     36  35  33     1.080911631679   119.14988120   180.71784337
 H     38  37  36     1.080229532414   119.70103751   179.22543592
 H     39  38  37     1.077367907727   118.82041586   180.96359034
 H     40  37  36     1.091725736117   109.74852437   150.36719905
 H     40  37  36     1.091922632104   109.81109227    31.41884969
 H     41  40  37     1.087613832985   110.31469765   300.19012487
 H     41  40  37     1.087392300966   110.49258813   180.03829801
 H     41  40  37     1.087785851397   110.35890154    59.82853404
 H     47  43  42     1.074734927552   124.07146171   183.10096117
 H     53  49  48     1.074829187034   124.28604269   182.06333092
 H     54  52  51     1.086188673344   115.56047702   339.29098367
 H     57  56  34     1.081273231704   119.64392800   355.68838612
 H     58  57  56     1.080655739493   119.62669135   180.80620910
 H     60  59  58     1.080756788783   119.53137403   178.79016439
 H     61  60  59     1.080324177689   119.47023983   180.51299045
 H     62  59  58     1.091595148807   110.11679645   330.61044234
 H     62  59  58     1.091829584688   110.02347952   211.30248966
 H     63  62  59     1.087763368109   110.15982035   299.83465036
 H     63  62  59     1.087599796524   110.62781309   179.60781648
 H     63  62  59     1.088029236740   110.22754039    59.19442563
 H     68  65  64     1.077869428363   123.09948526     2.57633311
 H     71  66  65     1.078304849799   121.50633573   180.67019896
 H     80  46  45     1.086416987579   115.56927945   342.39120399
 H     86  83  82     1.077900814778   123.09840614     2.15261244
 H     89  84  83     1.078291305121   121.52363330   180.56882184

---------------------------
INTERNAL COORDINATES (A.U.)
---------------------------
 C      0   0   0     0.000000000000     0.00000000     0.00000000
 C      1   0   0     2.601232591245     0.00000000     0.00000000
 C      2   1   0     2.670540665045   119.25750615     0.00000000
 C      3   2   1     2.682544013230   119.29000357     6.08874867
 C      4   3   2     2.654770535398   119.47716050   356.04390368
 C      5   4   3     2.586989830218   120.10296249   359.20553426
 C      3   2   1     2.701422684642   121.38837255   189.43129322
 C      7   3   2     2.621221940841   121.06746391   183.35889918
 C      8   7   3     2.614151026335   119.66082115   359.36569843
 C      9   8   7     2.646927112670   120.26716427   355.12799772
 C      2   1   3     2.869046440972   120.63382656   174.51397820
 C     11   2   1     2.836411698362   109.56325989   153.69221546
 C     12  11   2     2.605432199945   121.13651501    28.87096447
 C      9   8   7     2.861405130145   128.07513318   177.20180395
 C     14   9   8     2.847637671975   100.38822187   172.18248663
 C     15  14   9     2.629591941011   110.18423326     5.29162927
 C     11   2   1     2.870425894198   112.15889678    34.33777017
 C     11   2   1     2.900385614171   106.19887086   271.70205117
 C     17  11   2     2.617171734519   123.02860357   231.87580058
 C     19  17  11     2.618745705016   120.60233066   183.59721700
 C     20  19  17     2.619581202011   121.06902055     0.58182293
 C     21  20  19     2.632993556391   118.00837305   359.40866934
 C     22  21  20     2.604665677528   121.16178983     0.32400395
 C     18  11   2     2.627181226373   119.97533005    50.24993696
 C     24  18  11     2.610283507862   120.96688749   179.71660767
 C     25  24  18     2.624352130206   121.02061073     0.00000000
 C     26  25  24     2.620995014171   117.97713409   359.78171720
 C     27  26  25     2.614319001351   121.14607220     0.12650597
 C     26  25  24     2.836248821682   120.99198570   177.58434547
 C     29  26  25     2.891576304802   110.34069550   270.71660499
 C     21  20  19     2.845342357122   123.33737364   179.67208517
 C     31  21  20     2.879140539508   115.35380014   346.88597209
 C     14   9   8     2.886774726569   111.15088226   287.56111324
 C     14   9   8     2.959574521127   111.87790315    52.97523720
 C     33  14   9     2.621880132631   122.62874266    14.70618337
 C     35  33  14     2.614877435638   120.69607847   176.38957441
 C     36  35  33     2.620042091832   121.25109789     0.11888040
 C     37  36  35     2.623375886571   117.93990876     1.51178870
 C     38  37  36     2.607609631017   120.95177860   358.66227631
 C     37  36  35     2.836591437517   121.08297007   179.14431681
 C     40  37  36     2.891452778689   110.50106771   270.87813508
 C     15  14   9     2.629210052139   138.48402651   186.73611657
 C     42  15  14     2.668308413376   112.59011446   179.08196275
 S     16  15  14     3.269561034456   114.22303545   179.69429521
 S     42  15  14     3.253296235681   136.95995567     1.38730106
 C     45  42  15     3.325679943964    91.49202480   176.88340919
 C     43  42  15     2.616178009274   114.45737541   182.29904648
 C     12  11   2     2.644807449861   127.34086777   204.84630252
 C     48  12  11     2.656014869671   113.54672996   183.31219258
 S     49  48  12     3.270321084825   111.61003028     0.86305911
 S     48  12  11     3.245444520094   135.11380338     3.42349131
 C     51  48  12     3.329045868313    90.76523108   177.80886773
 C     49  48  12     2.620770037287   114.09655805   182.13527651
 C     52  51  48     2.659928158982   118.13930212   179.05278184
 C     54  52  51     2.582192585383   129.97726890   163.72059132
 C     34  14   9     2.836152092200   113.07846508   233.12321445
 C     56  34  14     2.622541228121   120.86168003   256.95145987
 C     57  56  34     2.612510732970   120.70077706   174.78178729
 C     58  57  56     2.622364556164   120.78843538     0.10457196
 C     59  58  57     2.624566088629   118.43147097     1.89930331
 C     60  59  58     2.608482967965   120.80480390   358.27265029
 C     59  58  57     2.836396590038   120.94412987   185.03171895
 C     62  59  58     2.892188286190   109.74926737    91.04919917
 C     55  54  52     2.728757740903   133.21592067   344.01173150
 C     64  55  54     2.767899385907   107.20737784   164.15283554
 C     65  64  55     2.656803460079   108.75901044     9.62453552
 C     66  65  64     2.798814883887   109.40115809   357.14876142
 C     65  64  55     2.617709625479   131.13448313   188.00667162
 C     68  65  64     2.621488057379   117.91938111   181.99573699
 C     69  68  65     2.636755449815   121.66244210     0.46480668
 C     66  65  64     2.609243338269   121.95023012   177.80730079
 F     70  69  68     2.528900915967   119.61478718   179.55979379
 F     69  68  65     2.527174860855   118.95976670   180.62362699
 O     67  66  65     2.284084472751   127.73310329   177.28668113
 C     64  55  54     2.591295774104   126.85405796   332.05401649
 C     75  64  55     2.664541892284   123.93565042   184.23519116
 C     75  64  55     2.663310255410   123.79482635   359.73988756
 N     76  75  64     2.168508200747   177.01506273   203.94903251
 N     77  75  64     2.168827740932   176.59761968   223.85673322
 C     46  45  42     2.654420546508   118.13622111   177.07149329
 C     80  46  45     2.585799647204   130.09820601   167.84654324
 C     81  80  46     2.725463842195   133.34475114   343.01927692
 C     82  81  80     2.768108596079   107.22995366   163.52498241
 C     83  82  81     2.656461927469   108.73978806     9.49345092
 C     84  83  82     2.799540536564   109.37221115   357.37196657
 C     83  82  81     2.617275320940   131.12839743   188.16485942
 C     86  83  82     2.621723792419   117.89703781   181.52001279
 C     87  86  83     2.636318745948   121.66126268     0.49693225
 C     84  83  82     2.608910486306   121.94491990   178.22114503
 O     85  84  83     2.284601348221   127.71440164   177.19648742
 C     82  81  80     2.592832672742   126.80889944   331.72934586
 C     91  82  81     2.663393482475   124.02285110   183.90285965
 C     91  82  81     2.662176909748   123.40823558   359.82867681
 N     92  91  82     2.168908120305   176.87520611   206.21042203
 N     93  91  82     2.168972316122   177.30491452   223.54296404
 F     88  87  86     2.529397310889   119.61378391   179.68829112
 F     87  86  83     2.527729687157   118.95712575   180.71380887
 H      1   2   3     2.041567788755   119.70158493   176.24323511
 H      5   4   3     2.039380683948   119.27734633   180.10184010
 H      6   5   4     2.039965996343   120.24411085   182.18753061
 H      8   7   3     2.041761734926   119.18662564   180.03623778
 H     19  17  11     2.040606918964   120.12191443     3.20479936
 H     20  19  17     2.037440717351   118.46732617   179.98576236
 H     22  21  20     2.041986491266   119.38154527   179.76828090
 H     23  22  21     2.043097421566   119.95790795   179.44529306
 H     24  18  11     2.038864130828   119.97816171   359.91940268
 H     25  24  18     2.042136016902   119.38250107   180.17197706
 H     27  26  25     2.042341634687   119.61330265   180.42819567
 H     28  27  26     2.039746514434   118.47943699   180.60163588
 H     29  26  25     2.063196304191   109.85463685   150.21587164
 H     29  26  25     2.062982040473   109.84817777    31.20432966
 H     30  29  26     2.055625264442   110.35506796   300.13049372
 H     30  29  26     2.054846537258   110.47106660   179.95433704
 H     30  29  26     2.055632539715   110.36453044    59.76053131
 H     31  21  20     2.066618755983   108.04165531   224.62131068
 H     31  21  20     2.069456364105   108.22242507   109.31566877
 H     32  31  21     2.055502574252   110.67815305   304.22115636
 H     32  31  21     2.055491108519   109.71153572   184.76248834
 H     32  31  21     2.054989161038   111.19366883    65.40135924
 H     34  14   9     2.061737199752   108.57462585   111.27172180
 H     34  14   9     2.062065512353   108.09246228   354.66153899
 H     35  33  14     2.039068227926   120.66805808   356.72640199
 H     36  35  33     2.042626958844   119.14988120   180.71784337
 H     38  37  36     2.041337978037   119.70103751   179.22543592
 H     39  38  37     2.035930291080   118.82041586   180.96359034
 H     40  37  36     2.063062654615   109.74852437   150.36719905
 H     40  37  36     2.063434734106   109.81109227    31.41884969
 H     41  40  37     2.055292283806   110.31469765   300.19012487
 H     41  40  37     2.054873648960   110.49258813   180.03829801
 H     41  40  37     2.055617351495   110.35890154    59.82853404
 H     47  43  42     2.030954679633   124.07146171   183.10096117
 H     53  49  48     2.031132804239   124.28604269   182.06333092
 H     54  52  51     2.052599122387   115.56047702   339.29098367
 H     57  56  34     2.043310283861   119.64392800   355.68838612
 H     58  57  56     2.042143392693   119.62669135   180.80620910
 H     60  59  58     2.042334348176   119.53137403   178.79016439
 H     61  60  59     2.041516831686   119.47023983   180.51299045
 H     62  59  58     2.062815880363   110.11679645   330.61044234
 H     62  59  58     2.063258899973   110.02347952   211.30248966
 H     63  62  59     2.055574864238   110.15982035   299.83465036
 H     63  62  59     2.055265758740   110.62781309   179.60781648
 H     63  62  59     2.056077283137   110.22754039    59.19442563
 H     68  65  64     2.036878027733   123.09948526     2.57633311
 H     71  66  65     2.037700854999   121.50633573   180.67019896
 H     80  46  45     2.053030573764   115.56927945   342.39120399
 H     86  83  82     2.036937339462   123.09840614     2.15261244
 H     89  84  83     2.037675259268   121.52363330   180.56882184

---------------------
BASIS SET INFORMATION
---------------------
There are 6 groups of distinct atoms

 Group   1 Type C   : 11s6p2d1f contracted to 5s3p2d1f pattern {62111/411/11/1}
 Group   2 Type S   : 14s9p3d1f contracted to 5s5p2d1f pattern {73211/51111/21/1}
 Group   3 Type F   : 11s6p2d1f contracted to 5s3p2d1f pattern {62111/411/11/1}
 Group   4 Type O   : 11s6p2d1f contracted to 5s3p2d1f pattern {62111/411/11/1}
 Group   5 Type N   : 11s6p2d1f contracted to 5s3p2d1f pattern {62111/411/11/1}
 Group   6 Type H   : 5s1p contracted to 3s1p pattern {311/1}

Atom   0C    basis set group =>   1
Atom   1C    basis set group =>   1
Atom   2C    basis set group =>   1
Atom   3C    basis set group =>   1
Atom   4C    basis set group =>   1
Atom   5C    basis set group =>   1
Atom   6C    basis set group =>   1
Atom   7C    basis set group =>   1
Atom   8C    basis set group =>   1
Atom   9C    basis set group =>   1
Atom  10C    basis set group =>   1
Atom  11C    basis set group =>   1
Atom  12C    basis set group =>   1
Atom  13C    basis set group =>   1
Atom  14C    basis set group =>   1
Atom  15C    basis set group =>   1
Atom  16C    basis set group =>   1
Atom  17C    basis set group =>   1
Atom  18C    basis set group =>   1
Atom  19C    basis set group =>   1
Atom  20C    basis set group =>   1
Atom  21C    basis set group =>   1
Atom  22C    basis set group =>   1
Atom  23C    basis set group =>   1
Atom  24C    basis set group =>   1
Atom  25C    basis set group =>   1
Atom  26C    basis set group =>   1
Atom  27C    basis set group =>   1
Atom  28C    basis set group =>   1
Atom  29C    basis set group =>   1
Atom  30C    basis set group =>   1
Atom  31C    basis set group =>   1
Atom  32C    basis set group =>   1
Atom  33C    basis set group =>   1
Atom  34C    basis set group =>   1
Atom  35C    basis set group =>   1
Atom  36C    basis set group =>   1
Atom  37C    basis set group =>   1
Atom  38C    basis set group =>   1
Atom  39C    basis set group =>   1
Atom  40C    basis set group =>   1
Atom  41C    basis set group =>   1
Atom  42C    basis set group =>   1
Atom  43S    basis set group =>   2
Atom  44S    basis set group =>   2
Atom  45C    basis set group =>   1
Atom  46C    basis set group =>   1
Atom  47C    basis set group =>   1
Atom  48C    basis set group =>   1
Atom  49S    basis set group =>   2
Atom  50S    basis set group =>   2
Atom  51C    basis set group =>   1
Atom  52C    basis set group =>   1
Atom  53C    basis set group =>   1
Atom  54C    basis set group =>   1
Atom  55C    basis set group =>   1
Atom  56C    basis set group =>   1
Atom  57C    basis set group =>   1
Atom  58C    basis set group =>   1
Atom  59C    basis set group =>   1
Atom  60C    basis set group =>   1
Atom  61C    basis set group =>   1
Atom  62C    basis set group =>   1
Atom  63C    basis set group =>   1
Atom  64C    basis set group =>   1
Atom  65C    basis set group =>   1
Atom  66C    basis set group =>   1
Atom  67C    basis set group =>   1
Atom  68C    basis set group =>   1
Atom  69C    basis set group =>   1
Atom  70C    basis set group =>   1
Atom  71F    basis set group =>   3
Atom  72F    basis set group =>   3
Atom  73O    basis set group =>   4
Atom  74C    basis set group =>   1
Atom  75C    basis set group =>   1
Atom  76C    basis set group =>   1
Atom  77N    basis set group =>   5
Atom  78N    basis set group =>   5
Atom  79C    basis set group =>   1
Atom  80C    basis set group =>   1
Atom  81C    basis set group =>   1
Atom  82C    basis set group =>   1
Atom  83C    basis set group =>   1
Atom  84C    basis set group =>   1
Atom  85C    basis set group =>   1
Atom  86C    basis set group =>   1
Atom  87C    basis set group =>   1
Atom  88C    basis set group =>   1
Atom  89O    basis set group =>   4
Atom  90C    basis set group =>   1
Atom  91C    basis set group =>   1
Atom  92C    basis set group =>   1
Atom  93N    basis set group =>   5
Atom  94N    basis set group =>   5
Atom  95F    basis set group =>   3
Atom  96F    basis set group =>   3
Atom  97H    basis set group =>   6
Atom  98H    basis set group =>   6
Atom  99H    basis set group =>   6
Atom 100H    basis set group =>   6
Atom 101H    basis set group =>   6
Atom 102H    basis set group =>   6
Atom 103H    basis set group =>   6
Atom 104H    basis set group =>   6
Atom 105H    basis set group =>   6
Atom 106H    basis set group =>   6
Atom 107H    basis set group =>   6
Atom 108H    basis set group =>   6
Atom 109H    basis set group =>   6
Atom 110H    basis set group =>   6
Atom 111H    basis set group =>   6
Atom 112H    basis set group =>   6
Atom 113H    basis set group =>   6
Atom 114H    basis set group =>   6
Atom 115H    basis set group =>   6
Atom 116H    basis set group =>   6
Atom 117H    basis set group =>   6
Atom 118H    basis set group =>   6
Atom 119H    basis set group =>   6
Atom 120H    basis set group =>   6
Atom 121H    basis set group =>   6
Atom 122H    basis set group =>   6
Atom 123H    basis set group =>   6
Atom 124H    basis set group =>   6
Atom 125H    basis set group =>   6
Atom 126H    basis set group =>   6
Atom 127H    basis set group =>   6
Atom 128H    basis set group =>   6
Atom 129H    basis set group =>   6
Atom 130H    basis set group =>   6
Atom 131H    basis set group =>   6
Atom 132H    basis set group =>   6
Atom 133H    basis set group =>   6
Atom 134H    basis set group =>   6
Atom 135H    basis set group =>   6
Atom 136H    basis set group =>   6
Atom 137H    basis set group =>   6
Atom 138H    basis set group =>   6
Atom 139H    basis set group =>   6
Atom 140H    basis set group =>   6
Atom 141H    basis set group =>   6
Atom 142H    basis set group =>   6
Atom 143H    basis set group =>   6
Atom 144H    basis set group =>   6
Atom 145H    basis set group =>   6
Atom 146H    basis set group =>   6
---------------------------------
AUXILIARY/J BASIS SET INFORMATION
---------------------------------
There are 6 groups of distinct atoms

 Group   1 Type C   : 12s5p4d2f1g contracted to 6s4p3d1f1g pattern {711111/2111/211/2/1}
 Group   2 Type S   : 14s5p5d2f1g contracted to 8s4p3d1f1g pattern {71111111/2111/311/2/1}
 Group   3 Type F   : 12s5p4d2f1g contracted to 6s4p3d1f1g pattern {711111/2111/211/2/1}
 Group   4 Type O   : 12s5p4d2f1g contracted to 6s4p3d1f1g pattern {711111/2111/211/2/1}
 Group   5 Type N   : 12s5p4d2f1g contracted to 6s4p3d1f1g pattern {711111/2111/211/2/1}
 Group   6 Type H   : 5s2p1d contracted to 3s1p1d pattern {311/2/1}

Atom   0C    basis set group =>   1
Atom   1C    basis set group =>   1
Atom   2C    basis set group =>   1
Atom   3C    basis set group =>   1
Atom   4C    basis set group =>   1
Atom   5C    basis set group =>   1
Atom   6C    basis set group =>   1
Atom   7C    basis set group =>   1
Atom   8C    basis set group =>   1
Atom   9C    basis set group =>   1
Atom  10C    basis set group =>   1
Atom  11C    basis set group =>   1
Atom  12C    basis set group =>   1
Atom  13C    basis set group =>   1
Atom  14C    basis set group =>   1
Atom  15C    basis set group =>   1
Atom  16C    basis set group =>   1
Atom  17C    basis set group =>   1
Atom  18C    basis set group =>   1
Atom  19C    basis set group =>   1
Atom  20C    basis set group =>   1
Atom  21C    basis set group =>   1
Atom  22C    basis set group =>   1
Atom  23C    basis set group =>   1
Atom  24C    basis set group =>   1
Atom  25C    basis set group =>   1
Atom  26C    basis set group =>   1
Atom  27C    basis set group =>   1
Atom  28C    basis set group =>   1
Atom  29C    basis set group =>   1
Atom  30C    basis set group =>   1
Atom  31C    basis set group =>   1
Atom  32C    basis set group =>   1
Atom  33C    basis set group =>   1
Atom  34C    basis set group =>   1
Atom  35C    basis set group =>   1
Atom  36C    basis set group =>   1
Atom  37C    basis set group =>   1
Atom  38C    basis set group =>   1
Atom  39C    basis set group =>   1
Atom  40C    basis set group =>   1
Atom  41C    basis set group =>   1
Atom  42C    basis set group =>   1
Atom  43S    basis set group =>   2
Atom  44S    basis set group =>   2
Atom  45C    basis set group =>   1
Atom  46C    basis set group =>   1
Atom  47C    basis set group =>   1
Atom  48C    basis set group =>   1
Atom  49S    basis set group =>   2
Atom  50S    basis set group =>   2
Atom  51C    basis set group =>   1
Atom  52C    basis set group =>   1
Atom  53C    basis set group =>   1
Atom  54C    basis set group =>   1
Atom  55C    basis set group =>   1
Atom  56C    basis set group =>   1
Atom  57C    basis set group =>   1
Atom  58C    basis set group =>   1
Atom  59C    basis set group =>   1
Atom  60C    basis set group =>   1
Atom  61C    basis set group =>   1
Atom  62C    basis set group =>   1
Atom  63C    basis set group =>   1
Atom  64C    basis set group =>   1
Atom  65C    basis set group =>   1
Atom  66C    basis set group =>   1
Atom  67C    basis set group =>   1
Atom  68C    basis set group =>   1
Atom  69C    basis set group =>   1
Atom  70C    basis set group =>   1
Atom  71F    basis set group =>   3
Atom  72F    basis set group =>   3
Atom  73O    basis set group =>   4
Atom  74C    basis set group =>   1
Atom  75C    basis set group =>   1
Atom  76C    basis set group =>   1
Atom  77N    basis set group =>   5
Atom  78N    basis set group =>   5
Atom  79C    basis set group =>   1
Atom  80C    basis set group =>   1
Atom  81C    basis set group =>   1
Atom  82C    basis set group =>   1
Atom  83C    basis set group =>   1
Atom  84C    basis set group =>   1
Atom  85C    basis set group =>   1
Atom  86C    basis set group =>   1
Atom  87C    basis set group =>   1
Atom  88C    basis set group =>   1
Atom  89O    basis set group =>   4
Atom  90C    basis set group =>   1
Atom  91C    basis set group =>   1
Atom  92C    basis set group =>   1
Atom  93N    basis set group =>   5
Atom  94N    basis set group =>   5
Atom  95F    basis set group =>   3
Atom  96F    basis set group =>   3
Atom  97H    basis set group =>   6
Atom  98H    basis set group =>   6
Atom  99H    basis set group =>   6
Atom 100H    basis set group =>   6
Atom 101H    basis set group =>   6
Atom 102H    basis set group =>   6
Atom 103H    basis set group =>   6
Atom 104H    basis set group =>   6
Atom 105H    basis set group =>   6
Atom 106H    basis set group =>   6
Atom 107H    basis set group =>   6
Atom 108H    basis set group =>   6
Atom 109H    basis set group =>   6
Atom 110H    basis set group =>   6
Atom 111H    basis set group =>   6
Atom 112H    basis set group =>   6
Atom 113H    basis set group =>   6
Atom 114H    basis set group =>   6
Atom 115H    basis set group =>   6
Atom 116H    basis set group =>   6
Atom 117H    basis set group =>   6
Atom 118H    basis set group =>   6
Atom 119H    basis set group =>   6
Atom 120H    basis set group =>   6
Atom 121H    basis set group =>   6
Atom 122H    basis set group =>   6
Atom 123H    basis set group =>   6
Atom 124H    basis set group =>   6
Atom 125H    basis set group =>   6
Atom 126H    basis set group =>   6
Atom 127H    basis set group =>   6
Atom 128H    basis set group =>   6
Atom 129H    basis set group =>   6
Atom 130H    basis set group =>   6
Atom 131H    basis set group =>   6
Atom 132H    basis set group =>   6
Atom 133H    basis set group =>   6
Atom 134H    basis set group =>   6
Atom 135H    basis set group =>   6
Atom 136H    basis set group =>   6
Atom 137H    basis set group =>   6
Atom 138H    basis set group =>   6
Atom 139H    basis set group =>   6
Atom 140H    basis set group =>   6
Atom 141H    basis set group =>   6
Atom 142H    basis set group =>   6
Atom 143H    basis set group =>   6
Atom 144H    basis set group =>   6
Atom 145H    basis set group =>   6
Atom 146H    basis set group =>   6
------------------------------------------------------------------------------
                           ORCA GTO INTEGRAL CALCULATION
                           -- RI-GTO INTEGRALS CHOSEN --
------------------------------------------------------------------------------

                         BASIS SET STATISTICS AND STARTUP INFO

Gaussian basis set:
 # of primitive gaussian shells          ... 2268
 # of primitive gaussian functions       ... 4930
 # of contracted shells                  ... 1275
 # of contracted basis functions         ... 3331
 Highest angular momentum                ...    3
 Maximum contraction depth               ...    7
Auxiliary gaussian basis set:
 # of primitive gaussian shells          ... 2740
 # of primitive gaussian functions       ... 7618
 # of contracted shells                  ... 1713
 # of contracted aux-basis functions     ... 5311
 Highest angular momentum                ...    4
 Maximum contraction depth               ...    7
Ratio of auxiliary to basis functions    ...  1.59
Integral package used                  ... LIBINT
 One Electron integrals                  ... done
 Ordering auxiliary basis shells         ... done
 Integral threshhold             Thresh  ...  2.500e-11
 Primitive cut-off               TCut    ...  2.500e-12
 Pre-screening matrix                    ... done
 Shell pair data                         ... 
 Ordering of the shell pairs             ... done (   0.059 sec) 243880 of 813450 pairs
 Determination of significant pairs      ... done (   0.002 sec)
 Creation of shell pair data             ... done (   0.029 sec)
 Storage of shell pair data              ... done (   0.039 sec)
 Shell pair data done in (   0.129 sec)
 Computing two index integrals           ... done
 Cholesky decomposition of the V-matrix  ... done


Timings:
 Total evaluation time                   ...  13.253 sec (  0.221 min)
 One electron matrix time                ...   4.837 sec (  0.081 min) = 36.5%
 Schwartz matrix evaluation time         ...   6.426 sec (  0.107 min) = 48.5%
 Two index repulsion integral time       ...   0.681 sec (  0.011 min) =  5.1%
 Cholesky decomposition of V             ...   1.161 sec (  0.019 min) =  8.8%
 Three index repulsion integral time     ...   0.000 sec (  0.000 min) =  0.0%

-------------------------------------------------------------------------------
                                 ORCA SCF
-------------------------------------------------------------------------------

------------
SCF SETTINGS
------------
Hamiltonian:
 Density Functional     Method          .... DFT(GTOs)
 Exchange Functional    Exchange        .... B88
   X-Alpha parameter    XAlpha          ....  0.666667
   Becke's b parameter  XBeta           ....  0.004200
 Correlation Functional Correlation     .... LYP
 LDA part of GGA corr.  LDAOpt          .... VWN-5
 Gradients option       PostSCFGGA      .... off
 Hybrid DFT is turned on
   Fraction HF Exchange ScalHFX         ....  0.200000
   Scaling of DF-GGA-X  ScalDFX         ....  0.720000
   Scaling of DF-GGA-C  ScalDFC         ....  0.810000
   Scaling of DF-LDA-C  ScalLDAC        ....  1.000000
   Perturbative correction              ....  0.000000
   Density functional embedding theory  .... OFF
   NL short-range parameter             ....  4.800000
 RI-approximation to the Coulomb term is turned on
   Number of auxiliary basis functions  .... 5311
   RIJ-COSX (HFX calculated with COS-X)).... on


General Settings:
 Integral files         IntName         .... N65-2FIC
 Hartree-Fock type      HFTyp           .... RHF
 Total Charge           Charge          ....    0
 Multiplicity           Mult            ....    1
 Number of Electrons    NEL             ....  692
 Basis Dimension        Dim             .... 3331
 Nuclear Repulsion      ENuc            ....  17611.2235789688 Eh

Convergence Acceleration:
 DIIS                   CNVDIIS         .... on
   Start iteration      DIISMaxIt       ....    12
   Startup error        DIISStart       ....  0.200000
   # of expansion vecs  DIISMaxEq       ....     5
   Bias factor          DIISBfac        ....   1.050
   Max. coefficient     DIISMaxC        ....  10.000
 Newton-Raphson         CNVNR           .... off
 SOSCF                  CNVSOSCF        .... on
   Start iteration      SOSCFMaxIt      ....   150
   Startup grad/error   SOSCFStart      ....  0.003300
 Level Shifting         CNVShift        .... on
   Level shift para.    LevelShift      ....    0.2500
   Turn off err/grad.   ShiftErr        ....    0.0010
 Zerner damping         CNVZerner       .... off
 Static damping         CNVDamp         .... on
   Fraction old density DampFac         ....    0.7000
   Max. Damping (<1)    DampMax         ....    0.9800
   Min. Damping (>=0)   DampMin         ....    0.0000
   Turn off err/grad.   DampErr         ....    0.1000
 Fernandez-Rico         CNVRico         .... off

SCF Procedure:
 Maximum # iterations   MaxIter         ....   125
 SCF integral mode      SCFMode         .... Direct
   Integral package                     .... LIBINT
 Reset frequency        DirectResetFreq ....    20
 Integral Threshold     Thresh          ....  2.500e-11 Eh
 Primitive CutOff       TCut            ....  2.500e-12 Eh

Convergence Tolerance:
 Convergence Check Mode ConvCheckMode   .... Total+1el-Energy
 Convergence forced     ConvForced      .... 1
 Energy Change          TolE            ....  1.000e-08 Eh
 1-El. energy change                    ....  1.000e-05 Eh
 Orbital Gradient       TolG            ....  1.000e-05
 Orbital Rotation angle TolX            ....  1.000e-05
 DIIS Error             TolErr          ....  5.000e-07


Diagonalization of the overlap matrix:
Smallest eigenvalue                        ... 1.704e-06
Time for diagonalization                   ...    8.584 sec
Threshold for overlap eigenvalues          ... 1.000e-08
Number of eigenvalues below threshold      ... 0
Time for construction of square roots      ...    2.589 sec
Total time needed                          ...   11.201 sec

-------------------
DFT GRID GENERATION
-------------------

General Integration Accuracy     IntAcc      ...  4.670
Radial Grid Type                 RadialGrid  ... Gauss-Chebyshev
Angular Grid (max. acc.)         AngularGrid ... Lebedev-302
Angular grid pruning method      GridPruning ... 3 (G Style)
Weight generation scheme         WeightScheme... Becke
Basis function cutoff            BFCut       ...    1.0000e-11
Integration weight cutoff        WCut        ...    1.0000e-14
Grids for H and He will be reduced by one unit

# of grid points (after initial pruning)     ... 775040 (   2.7 sec)
# of grid points (after weights+screening)   ... 647017 (  42.7 sec)
nearest neighbour list constructed           ...    0.0 sec
Grid point re-assignment to atoms done       ...    0.1 sec
Grid point division into batches done        ...    2.2 sec
Reduced shell lists constructed in   29.3 sec

Total number of grid points                  ...   647017
Total number of batches                      ...    10176
Average number of points per batch           ...       63
Average number of grid points per atom       ...     4401
Average number of shells per batch           ...   196.51 (15.41%)
Average number of basis functions per batch  ...   480.98 (14.44%)
Average number of large shells per batch     ...   111.55 (56.76%)
Average number of large basis fcns per batch ...   280.14 (58.24%)
Maximum spatial batch extension              ...  22.45, 24.44, 22.29 au
Average spatial batch extension              ...   2.08,  2.01,  2.12 au

Time for grid setup =   74.775 sec

------------------------------
INITIAL GUESS: MODEL POTENTIAL
------------------------------
Loading Hartree-Fock densities                     ... done
Calculating cut-offs                               ... done
Setting up the integral package                    ... done
Initializing the effective Hamiltonian             ... done
Starting the Coulomb interaction                   ... done (  64.7 sec)
Reading the grid                                   ... done
Mapping shells                                     ... done
Starting the XC term evaluation                    ... done (  45.4 sec)
  promolecular density results
     # of electrons  =    691.974678473
     EX              =   -625.083441185
     EC              =    -24.273116006
     EX+EC           =   -649.356557192
Transforming the Hamiltonian                       ... done (   2.5 sec)
Diagonalizing the Hamiltonian                      ... done (   8.5 sec)
Back transforming the eigenvectors                 ... done (   1.1 sec)
Now organizing SCF variables                       ... done
                      ------------------
                      INITIAL GUESS DONE ( 198.8 sec)
                      ------------------
--------------------
COSX GRID GENERATION
--------------------

General Integration Accuracy     IntAcc      ...  3.340
Radial Grid Type                 RadialGrid  ... Gauss-Chebyshev
Angular Grid (max. acc.)         AngularGrid ... Lebedev-50
Angular grid pruning method      GridPruning ... 3 (G Style)
Weight generation scheme         WeightScheme... Becke
Basis function cutoff            BFCut       ...    1.0000e-11
Integration weight cutoff        WCut        ...    1.0000e-14
Grids for H and He will be reduced by one unit

# of grid points (after initial pruning)     ...  72708 (   0.1 sec)
# of grid points (after weights+screening)   ...  63758 (   3.9 sec)
nearest neighbour list constructed           ...    0.0 sec
Grid point re-assignment to atoms done       ...    0.0 sec
Grid point division into batches done        ...    0.0 sec
Reduced shell lists constructed in    4.1 sec

Total number of grid points                  ...    63758
Total number of batches                      ...     1079
Average number of points per batch           ...       59
Average number of grid points per atom       ...      434
Average number of shells per batch           ...   240.20 (18.84%)
Average number of basis functions per batch  ...   594.80 (17.86%)
Average number of large shells per batch     ...   136.75 (56.93%)
Average number of large basis fcns per batch ...   348.73 (58.63%)
Maximum spatial batch extension              ...  22.28, 20.68, 23.13 au
Average spatial batch extension              ...   4.19,  3.94,  4.40 au

Overlap Fitting                  UseSFitting ... on
Constructing numerical overlap ... done (      4.2 sec)
Inverting numerical overlap    ... done (      0.8 sec)
Obtaining analytic overlap     ... done (      0.0 sec)
Final contraction and storage  ... done (      1.3 sec)


General Integration Accuracy     IntAcc      ...  3.670
Radial Grid Type                 RadialGrid  ... Gauss-Chebyshev
Angular Grid (max. acc.)         AngularGrid ... Lebedev-50
Angular grid pruning method      GridPruning ... 3 (G Style)
Weight generation scheme         WeightScheme... Becke
Basis function cutoff            BFCut       ...    1.0000e-11
Integration weight cutoff        WCut        ...    1.0000e-14
Grids for H and He will be reduced by one unit

# of grid points (after initial pruning)     ...  90986 (   0.2 sec)
# of grid points (after weights+screening)   ...  79408 (   4.9 sec)
nearest neighbour list constructed           ...    0.0 sec
Grid point re-assignment to atoms done       ...    0.0 sec
Grid point division into batches done        ...    0.0 sec
Reduced shell lists constructed in    4.8 sec

Total number of grid points                  ...    79408
Total number of batches                      ...     1310
Average number of points per batch           ...       60
Average number of grid points per atom       ...      540
Average number of shells per batch           ...   235.27 (18.45%)
Average number of basis functions per batch  ...   581.62 (17.46%)
Average number of large shells per batch     ...   133.31 (56.66%)
Average number of large basis fcns per batch ...   339.16 (58.31%)
Maximum spatial batch extension              ...  23.80, 21.42, 22.77 au
Average spatial batch extension              ...   3.96,  3.76,  4.14 au

Overlap Fitting                  UseSFitting ... on
Constructing numerical overlap ... done (      5.0 sec)
Inverting numerical overlap    ... done (      0.8 sec)
Obtaining analytic overlap     ... done (      0.0 sec)
Final contraction and storage  ... done (      1.3 sec)


General Integration Accuracy     IntAcc      ...  4.010
Radial Grid Type                 RadialGrid  ... Gauss-Chebyshev
Angular Grid (max. acc.)         AngularGrid ... Lebedev-110
Angular grid pruning method      GridPruning ... 3 (G Style)
Weight generation scheme         WeightScheme... Becke
Basis function cutoff            BFCut       ...    1.0000e-11
Integration weight cutoff        WCut        ...    1.0000e-14
Grids for H and He will be reduced by one unit

# of grid points (after initial pruning)     ... 176272 (   0.3 sec)
# of grid points (after weights+screening)   ... 152211 (   9.6 sec)
nearest neighbour list constructed           ...    0.0 sec
Grid point re-assignment to atoms done       ...    0.0 sec
Grid point division into batches done        ...    0.1 sec
Reduced shell lists constructed in    8.4 sec

Total number of grid points                  ...   152211
Total number of batches                      ...     2455
Average number of points per batch           ...       62
Average number of grid points per atom       ...     1035
Average number of shells per batch           ...   222.41 (17.44%)
Average number of basis functions per batch  ...   549.27 (16.49%)
Average number of large shells per batch     ...   127.25 (57.21%)
Average number of large basis fcns per batch ...   323.14 (58.83%)
Maximum spatial batch extension              ...  23.48, 20.40, 21.07 au
Average spatial batch extension              ...   3.30,  3.10,  3.39 au

Overlap Fitting                  UseSFitting ... on
Constructing numerical overlap ... done (      9.1 sec)
Inverting numerical overlap    ... done (      0.8 sec)
Obtaining analytic overlap     ... done (      0.0 sec)
Final contraction and storage  ... done (      1.3 sec)

Time for X-Grid setup             =   61.374 sec
--------------
SCF ITERATIONS
--------------
ITER       Energy         Delta-E        Max-DP      RMS-DP      [F,P]     Damp
               ***  Starting incremental Fock matrix formation  ***
  0  -5551.0067119062   0.000000000000 0.38314095  0.00088727  0.2962063 0.7000
  1  -5552.1232950970  -1.116583190778 0.30429662  0.00073114  0.1004695 0.7000
                               ***Turning on DIIS***
  2  -5552.5475836791  -0.424288582060 0.44012161  0.00118303  0.0434130 0.0000
  3  -5553.2266430274  -0.679059348284 0.29196440  0.00062180  0.0547862 0.0000
  4  -5553.3780962663  -0.151453238966 0.08619067  0.00019228  0.0345805 0.0000
  5  -5553.3917171265  -0.013620860158 0.02091891  0.00008195  0.0144050 0.0000
                      *** Initiating the SOSCF procedure ***
                           *** Shutting down DIIS ***
                      *** Re-Reading the Fockian *** 
                      *** Removing any level shift *** 
ITER      Energy       Delta-E        Grad      Rot      Max-DP    RMS-DP
  6  -5553.39335554  -0.0016384161  0.000760  0.000760  0.006404  0.000029
               *** Restarting incremental Fock matrix formation ***
  7  -5553.39346478  -0.0001092408  0.000347  0.004439  0.051401  0.000104
  8  -5553.39345506   0.0000097195  0.000510  0.002670  0.018245  0.000037
  9  -5553.39349829  -0.0000432234  0.000123  0.000951  0.022831  0.000042
 10  -5553.39349546   0.0000028313  0.000156  0.000843  0.002358  0.000006
 11  -5553.39350210  -0.0000066393  0.000111  0.001287  0.010129  0.000017
 12  -5553.39350068   0.0000014164  0.000117  0.000461  0.001484  0.000003
 13  -5553.39350259  -0.0000019125  0.000026  0.000299  0.002163  0.000006
 14  -5553.39350235   0.0000002386  0.000037  0.000113  0.001871  0.000003
[...]
   Size of expansion space: 6
   Lowest Energy          :     0.041762424166
   Maximum Energy change  :     0.000141072001 (vector 2)
   Maximum residual norm  :     0.000002818147

                       ****Iteration    4****
   Time for densities:    24.183
   Time for K (COSX):  6406.739
   Time for XC-Integration:    55.376
   Time for Sigma-Completion:   697.611
   Size of expansion space: 9
   Lowest Energy          :     0.041762133286
   Maximum Energy change  :     0.000045756469 (vector 2)
   Maximum residual norm  :     0.000001027527

                       ****Iteration    5****
   Time for densities:    24.335
   Time for K (COSX):  6307.749
   Time for XC-Integration:    36.462
   Time for Sigma-Completion:   453.381
   Size of expansion space: 12
   Lowest Energy          :     0.041762121193
   Maximum Energy change  :     0.000003740572 (vector 2)
   Maximum residual norm  :     0.000000715027

                       ****Iteration    6****
   Time for densities:    13.189
   Time for K (COSX):  4597.137
   Time for XC-Integration:    37.546
   Time for Sigma-Completion:   447.203
   Size of expansion space: 15
   Lowest Energy          :     0.041762120917
   Maximum Energy change  :     0.000000475870 (vector 2)
   Maximum residual norm  :     0.000000738288
   Rebuilding the expansion space

                       ****Iteration    7****
   Time for densities:    26.431
   Time for K (COSX):  6282.289
   Time for XC-Integration:   108.095
   Time for Sigma-Completion:  1348.243
   Size of expansion space: 6
   Lowest Energy          :     0.041762123741
   Maximum Energy change  :     0.000001835512 (vector 2)
   Maximum residual norm  :     0.000001310732

                       ****Iteration    8****
   Time for densities:    24.188
   Time for K (COSX):  7311.646
   Time for XC-Integration:    61.891
   Time for Sigma-Completion:   682.236
   Size of expansion space: 9
   Lowest Energy          :     0.041762123740
   Maximum Energy change  :     0.000007381000 (vector 2)
   Maximum residual norm  :     0.000001612593

                       ****Iteration    9****
   Time for densities:    24.291
   Time for K (COSX):  7488.918
   Time for XC-Integration:    67.688
   Time for Sigma-Completion:   722.880
   Size of expansion space: 12
   Lowest Energy          :     0.041762123740
   Maximum Energy change  :     0.000003660542 (vector 2)
   Maximum residual norm  :     0.000000120579

      *** CONVERGENCE OF RESIDUAL NORM REACHED ***

Storing the converged CI vectors               ... N65-2FIC.cis3

                 *** DAVIDSON DONE ***

------------------------------------
TD-DFT/TDA EXCITED STATES (TRIPLETS)
------------------------------------

the weight of the individual excitations are printed if larger than 1.0e-02

STATE  1:  E=   0.041762 au      1.136 eV     9165.7 cm**-1
   344a -> 347a  :     0.033922 (c=  0.18417790)
   345a -> 346a  :     0.902454 (c=  0.94997582)
   345a -> 348a  :     0.010505 (c=  0.10249606)

STATE  2:  E=   0.052571 au      1.431 eV    11538.0 cm**-1
   343a -> 346a  :     0.037495 (c= -0.19363585)
   344a -> 346a  :     0.161978 (c= -0.40246461)
   345a -> 347a  :     0.740025 (c= -0.86024679)
   345a -> 349a  :     0.013913 (c=  0.11795478)

STATE  3:  E=   0.070737 au      1.925 eV    15525.1 cm**-1
   336a -> 346a  :     0.019047 (c= -0.13801262)
   338a -> 346a  :     0.012667 (c= -0.11254914)
   341a -> 346a  :     0.030313 (c=  0.17410737)
   342a -> 346a  :     0.013626 (c=  0.11673184)
   343a -> 347a  :     0.034033 (c= -0.18448075)
   344a -> 346a  :     0.028116 (c= -0.16767957)
   344a -> 347a  :     0.114900 (c= -0.33896913)
   345a -> 348a  :     0.544635 (c=  0.73799391)
   345a -> 349a  :     0.023333 (c=  0.15275069)
   345a -> 350a  :     0.095534 (c=  0.30908628)

------------------------------
TD-DFT/TDA SPIN-ORBIT COUPLING
------------------------------

Calculating the spin-orbit integrals:             

Loading the effective charges         ... done
Entering the SOC calc. section        ... 
------------------------------------------------------------------------------
                         ORCA SPIN-ORBIT COUPLING CALCULATION
------------------------------------------------------------------------------

GBW file                                    ... N65-2FIC.gbw
Input density                               ... N65-2FIC.cisp0
Output integrals                            ... N65-2FIC.cis
Operator type                               ... Mean-field/Effective potential
   One-Electron Terms                       ... 1
   Coulomb Contribution                     ... 2
   Exchange Contribution                    ... 3
   Correlation Contribution                 ... 0
   Maximum number of centers                ... 4
Setting up the integration grid             ... done
Evaluating density on the grid              ... (NumEl=  691.999498) done
Evaluating Coulomb term semi-analytically   ... done
One-Center Exchange (+SOO)                  ... done
Evaluating the spin-orbit operator          ... done
Transforming the SOC integrals              ... done
Constructing the SOC matrix:                ... done
Diagonalizing the SOC matrix:               ... done

      --------------------------------------------------------------------------------
                      CALCULATED SOCME BETWEEN TRIPLETS AND SINGLETS                  
      --------------------------------------------------------------------------------
           Root                          <T|HSO|S>  (Re, Im) cm-1                     
         T      S             Z                     X                     Y           
      --------------------------------------------------------------------------------
         1      0    (   0.00 ,   -0.17 )    (   0.00 ,    1.18 )    (  -0.00 ,   -2.21 )
         1      1    (   0.00 ,    0.14 )    (   0.00 ,   -0.13 )    (  -0.00 ,    0.22 )
         1      2    (   0.00 ,    0.02 )    (   0.00 ,    1.82 )    (  -0.00 ,   -0.93 )
         1      3    (   0.00 ,   -0.71 )    (   0.00 ,   -0.20 )    (  -0.00 ,   -0.18 )
         2      0    (   0.00 ,   -0.37 )    (   0.00 ,    0.24 )    (  -0.00 ,    0.50 )
         2      1    (   0.00 ,   -0.02 )    (   0.00 ,   -0.03 )    (  -0.00 ,   -0.18 )
         2      2    (   0.00 ,    0.27 )    (   0.00 ,   -0.15 )    (  -0.00 ,    0.27 )
         2      3    (   0.00 ,    0.08 )    (   0.00 ,   -2.21 )    (  -0.00 ,    0.51 )
         3      0    (   0.00 ,   -0.01 )    (   0.00 ,   -1.26 )    (  -0.00 ,    2.53 )
         3      1    (   0.00 ,    0.42 )    (   0.00 ,    0.25 )    (  -0.00 ,    0.05 )
         3      2    (   0.00 ,    0.08 )    (   0.00 ,    0.50 )    (  -0.00 ,    0.03 )
         3      3    (   0.00 ,    0.42 )    (   0.00 ,    0.02 )    (  -0.00 ,    0.28 )

SOC stabilization of the ground state:  -0.0012 cm-1
Eigenvalues of the SOC matrix:

   State:        cm-1         eV
     0:          0.00         0.0000
     1:       9165.73         1.1364
     2:       9165.73         1.1364
     3:       9165.73         1.1364
     4:      11537.99         1.4305
     5:      11537.99         1.4305
     6:      11537.99         1.4305
     7:      13678.42         1.6959
     8:      15525.06         1.9249
     9:      15525.08         1.9249
    10:      15525.08         1.9249
    11:      15543.82         1.9272
    12:      18378.91         2.2787

The threshold for printing is 0.0100
Eigenvectors of the SOC matrix:

             E(cm-1)  Weight      Real         Imag     : Root  Spin  Ms
 STATE  0:      0.00
                      1.00000      0.89544     -0.44517 : 0     0     0
 STATE  1:   9165.73
                      0.93895      0.82672      0.50545 : 1     1     0
                      0.03053     -0.16361      0.06132 : 1     1    -1
                      0.03053      0.02000      0.17357 : 1     1     1
 STATE  2:   9165.73
                      0.05268      0.08519      0.21313 : 1     1     0
                      0.47366      0.53796      0.42925 : 1     1    -1
                      0.47366      0.09389     -0.68179 : 1     1     1
 STATE  3:   9165.73
                      0.49581      0.64311      0.28674 : 1     1    -1
                      0.49581      0.05198      0.70222 : 1     1     1
 STATE  4:  11537.99
                      0.50736      0.27702     -0.65622 : 2     1     0
                      0.24632     -0.41399     -0.27374 : 2     1    -1
                      0.24632     -0.48491     -0.10573 : 2     1     1
 STATE  5:  11537.99
                      0.38533      0.22853     -0.57715 : 2     1     0
                      0.30734      0.20118      0.51659 : 2     1    -1
                      0.30734      0.50030     -0.23883 : 2     1     1
 STATE  6:  11537.99
                      0.10731     -0.12281      0.30369 : 2     1     0
                      0.44635     -0.53501      0.40014 : 2     1    -1
                      0.44635     -0.10646     -0.65956 : 2     1     1
 STATE  7:  13678.42
                      1.00000     -0.19191     -0.98141 : 1     0     0
 STATE  8:  15525.06
                      0.02214      0.14872     -0.00505 : 3     1     0
                      0.48856      0.69736     -0.04745 : 3     1    -1
                      0.48856     -0.69897      0.00000 : 3     1     1
 STATE  9:  15525.08
                      0.68652      0.21194      0.80100 : 3     1     0
                      0.15674      0.34409     -0.19580 : 3     1    -1
                      0.15674      0.39590      0.00000 : 3     1     1
 STATE 10:  15525.08
                      0.29131      0.03381     -0.53868 : 3     1     0
                      0.35434      0.59060      0.07443 : 3     1    -1
                      0.35434      0.59527      0.00000 : 3     1     1
 STATE 11:  15543.82
                      0.99927     -0.06441     -0.99756 : 2     0     0
 STATE 12:  18378.91
                      1.00000     -0.99856     -0.05371 : 3     0     0

-----------------------------
TD-DFT/TDA-EXCITATION SPECTRA
-----------------------------

Center of mass = (  2.1539,  0.3424,  2.8397)
Calculating the Dipole integrals                  ... done
Transforming integrals                            ... done
Calculating the Linear Momentum integrals         ... done
Transforming integrals                            ... done
Calculating angular momentum integrals            ... done
Transforming integrals                            ... done

-----------------------------------------------------------------------------
         ABSORPTION SPECTRUM VIA TRANSITION ELECTRIC DIPOLE MOMENTS
-----------------------------------------------------------------------------
State   Energy    Wavelength  fosc         T2        TX        TY        TZ  
        (cm-1)      (nm)                 (au**2)    (au)      (au)      (au) 
-----------------------------------------------------------------------------
   1   13678.4    731.1   2.071064037  49.84635  -0.54345  -7.00440   0.69957
   2   15543.8    643.3   0.124666764   2.64040  -0.63121  -0.97776   1.13400
   3   18378.9    544.1   0.556793410   9.97356  -0.71162  -3.05796   0.34067
   4    9165.7   1091.0   spin forbidden (mult=3)
   5   11538.0    866.7   spin forbidden (mult=3)
   6   15525.1    644.1   spin forbidden (mult=3)

-----------------------------------------------------------------------------
         ABSORPTION SPECTRUM VIA TRANSITION VELOCITY DIPOLE MOMENTS
-----------------------------------------------------------------------------
State   Energy    Wavelength   fosc        P2         PX        PY        PZ  
        (cm-1)      (nm)                 (au**2)     (au)      (au)      (au) 
-----------------------------------------------------------------------------
   1   13678.4    731.1   0.254696321   0.02381  -0.01797   0.15265  -0.01361
   2   15543.8    643.3   0.025062502   0.00266  -0.01255   0.04959  -0.00680
   3   18378.9    544.1   0.067986953   0.00854  -0.03810   0.08403  -0.00521
   4    9165.7   1091.0   spin forbidden (mult=3)
   5   11538.0    866.7   spin forbidden (mult=3)
   6   15525.1    644.1   spin forbidden (mult=3)

-------------------------------------------------------------------
                             CD SPECTRUM
-------------------------------------------------------------------
State  Energy     Wavelength     R         MX        MY        MZ   
       (cm-1)       (nm)     (1e40*cgs)   (au)      (au)      (au)  
-------------------------------------------------------------------
   1   13678.4    731.1    268.54036   0.10751  -0.07362   0.16059
   2   15543.8    643.3     24.96403  -0.01584   0.00627   0.04329
   3   18378.9    544.1    -48.94817   0.46155  -0.06328   0.09137
   4    9165.7   1091.0 spin forbidden
   5   11538.0    866.7 spin forbidden
   6   15525.1    644.1 spin forbidden

-------------------------------------------
SOC CORRECTED TD-DFT/TDA-EXCITATION SPECTRA
--------------------------------------------

-----------------------------------------------------------------------------
  SOC CORRECTED ABSORPTION SPECTRUM VIA TRANSITION ELECTRIC DIPOLE MOMENTS*  
-----------------------------------------------------------------------------
State   Energy  Wavelength   fosc         T2         TX        TY        TZ  
        (cm-1)    (nm)                  (au**2)     (au)      (au)      (au) 
-----------------------------------------------------------------------------
   1    9165.7   1091.0   0.000000001   0.00000   0.00004   0.00017   0.00002
   2    9165.7   1091.0   0.000000001   0.00000   0.00008   0.00008   0.00019
   3    9165.7   1091.0   0.000000005   0.00000   0.00011   0.00036   0.00017
   4   11538.0    866.7   0.000000030   0.00000   0.00005   0.00090   0.00019
   5   11538.0    866.7   0.000000007   0.00000   0.00019   0.00039   0.00014
   6   11538.0    866.7   0.000000203   0.00001   0.00023   0.00238   0.00031
   7   13678.4    731.1   2.071064108  49.84635   0.54345   7.00440   0.69957
   8   15525.1    644.1   0.000089615   0.00190   0.01709   0.02570   0.03079
   9   15525.1    644.1   0.000000026   0.00000   0.00038   0.00042   0.00049
  10   15525.1    644.1   0.000000031   0.00000   0.00016   0.00076   0.00023
  11   15543.8    643.3   0.124576785   2.63849   0.63098   0.97742   1.13358
  12   18378.9    544.1   0.556793220   9.97355   0.71162   3.05796   0.34067

-----------------------------------------------------------------------------
  SOC CORRECTED ABSORPTION SPECTRUM VIA TRANSITION VELOCITY DIPOLE MOMENTS*  
-----------------------------------------------------------------------------
State   Energy  Wavelength   fosc         P2         PX        PY        PZ  
        (cm-1)    (nm)                  (au**2)     (au)      (au)      (au) 
-----------------------------------------------------------------------------
   1    9165.7   1091.0   0.000000000   0.00000   0.00000   0.00000   0.00000
   2    9165.7   1091.0   0.000000001   0.00000   0.00000   0.00001   0.00000
   3    9165.7   1091.0   0.000000004   0.00000   0.00000   0.00001   0.00001
   4   11538.0    866.7   0.000000000   0.00000   0.00000   0.00000   0.00000
   5   11538.0    866.7   0.000000006   0.00000   0.00001   0.00002   0.00000
   6   11538.0    866.7   0.000000013   0.00000   0.00001   0.00003   0.00000
   7   13678.4    731.1   0.254696282   0.02381   0.01797   0.15265   0.01361
   8   15525.1    644.1   0.000017926   0.00000   0.00034   0.00132   0.00019
   9   15525.1    644.1   0.000000005   0.00000   0.00001   0.00002   0.00000
  10   15525.1    644.1   0.000000009   0.00000   0.00001   0.00003   0.00000
  11   15543.8    643.3   0.025044543   0.00266   0.01254   0.04957   0.00680
  12   18378.9    544.1   0.067986931   0.00854   0.03810   0.08403   0.00521

-------------------------------------------------------------------
                    SOC CORRECTED CD SPECTRUM*                     
-------------------------------------------------------------------
State   Energy Wavelength       R         MX        MY        MZ   
        (cm-1)   (nm)       (1e40*sgs)   (au)      (au)      (au)  
-------------------------------------------------------------------
   1    9165.7   1091.0      0.00000   0.00003   0.00000   0.00001
   2    9165.7   1091.0      0.00000   0.00002   0.00000   0.00001
   3    9165.7   1091.0      0.00000   0.00001   0.00000   0.00000
   4   11538.0    866.7      0.00000   0.00000   0.00001   0.00000
   5   11538.0    866.7      0.00000   0.00008   0.00001   0.00002
   6   11538.0    866.7      0.00001   0.00014   0.00001   0.00003
   7   13678.4    731.1    268.54037   0.10751   0.07362   0.16059
   8   15525.1    644.1      0.01788   0.00042   0.00018   0.00114
   9   15525.1    644.1      0.00000   0.00003   0.00001   0.00002
  10   15525.1    644.1      0.00001   0.00000   0.00000   0.00004
  11   15543.8    643.3     24.94608   0.01583   0.00627   0.04327
  12   18378.9    544.1     48.94817   0.46155   0.06328   0.09137

*The X,Y and Z components are the absolute values of the complex numbers

Total run time:   261685.847 sec

           *** ORCA-CIS/TD-DFT FINISHED WITHOUT ERROR ***

---------------------------
SOC CIS/TD-DFT TOTAL ENERGY
---------------------------

    E(SCF)        =  -5553.394587123 Eh
    E(SOC CIS)    =      0.041762120 Eh (SOC Root  1)
    ----------------------------- ---------
    E(tot)        =  -5553.352825004 Eh


-------------------------   --------------------
FINAL SINGLE POINT ENERGY     -5553.352825003609
-------------------------   --------------------


                            ***************************************
                            *     ORCA property calculations      *
                            ***************************************

                                    ---------------------
                                    Active property flags
                                    ---------------------
   (+) Dipole Moment


------------------------------------------------------------------------------
                       ORCA ELECTRIC PROPERTIES CALCULATION
------------------------------------------------------------------------------

Dipole Moment Calculation                       ... on
Quadrupole Moment Calculation                   ... off
Polarizability Calculation                      ... off
GBWName                                         ... N65-2FIC.gbw
Electron density file                           ... N65-2FIC.scfp
The origin for moment calculation is the CENTER OF MASS  = ( 2.153946,  0.342435  2.839742)

-------------
DIPOLE MOMENT
-------------
                                X             Y             Z
Electronic contribution:     18.47139      11.87864     -93.80917
Nuclear contribution   :    -19.74688     -12.13089      97.86424
                        -----------------------------------------
Total Dipole Moment    :     -1.27549      -0.25226       4.05508
                        -----------------------------------------
Magnitude (a.u.)       :      4.25842
Magnitude (Debye)      :     10.82405



--------------------
Rotational spectrum 
--------------------
 
Rotational constants in cm-1:     0.000818     0.000214     0.000202 
Rotational constants in MHz :    24.530549     6.415383     6.045663 

 Dipole components along the rotational axes: 
x,y,z [a.u.] :     0.808357    -0.664885    -4.127789 
x,y,z [Debye]:     2.054679    -1.690003   -10.492005 

 

Timings for individual modules:

Sum of individual times         ...   293216.813 sec (=4886.947 min)
GTO integral calculation        ...       13.297 sec (=   0.222 min)   0.0 %
SCF iterations                  ...    31517.435 sec (= 525.291 min)  10.7 %
CIS module                      ...   261686.080 sec (=4361.435 min)  89.2 %
                             ****ORCA TERMINATED NORMALLY****
TOTAL RUN TIME: 3 days 9 hours 26 minutes 59 seconds 655 msec
