
                                 *****************
                                 * O   R   C   A *
                                 *****************

           --- An Ab Initio, DFT and Semiempirical electronic structure package ---

                  #######################################################
                  #                        -***-                        #
                  #          Department of theory and spectroscopy      #
                  #               Directorship: Frank Neese             #
                  #        Max Planck Institute fuer Kohlenforschung    #
                  #                Kaiser Wilhelm Platz 1               #
                  #                 D-45470 Muelheim/Ruhr               #
                  #                      Germany                        #
                  #                                                     #
                  #                  All rights reserved                #
                  #                        -***-                        #
                  #######################################################


                         Program Version 4.2.0 -  RELEASE  -


 With contributions from (in alphabetic order):
   Daniel Aravena         : Magnetic Suceptibility
   Michael Atanasov       : Ab Initio Ligand Field Theory (pilot matlab implementation)
   Alexander A. Auer      : GIAO ZORA, VPT2
   Ute Becker             : Parallelization
   Giovanni Bistoni       : ED, misc. LED, open-shell LED, HFLED
   Martin Brehm           : Molecular dynamics
   Dmytro Bykov           : SCF Hessian
   Vijay G. Chilkuri      : MRCI spin determinant printing, contributions to CSF-ICE
   Dipayan Datta          : RHF DLPNO-CCSD density
   Achintya Kumar Dutta   : EOM-CC, STEOM-CC
   Dmitry Ganyushin       : Spin-Orbit,Spin-Spin,Magnetic field MRCI
   Miquel Garcia          : C-PCM Hessian, Gaussian charge scheme
   Yang Guo               : DLPNO-NEVPT2, CIM, IAO-localization
   Andreas Hansen         : Spin unrestricted coupled pair/coupled cluster methods
   Benjamin Helmich-Paris : CASSCF linear response (MC-RPA)
   Lee Huntington         : MR-EOM, pCC
   Robert Izsak           : Overlap fitted RIJCOSX, COSX-SCS-MP3, EOM
   Christian Kollmar      : KDIIS, OOCD, Brueckner-CCSD(T), CCSD density
   Simone Kossmann        : Meta GGA functionals, TD-DFT gradient, OOMP2, MP2 Hessian
   Martin Krupicka        : AUTO-CI
   Lucas Lang             : DCDCAS
   Dagmar Lenk            : GEPOL surface, SMD
   Dimitrios Liakos       : Extrapolation schemes; Compound Job, initial MDCI parallelization
   Dimitrios Manganas     : Further ROCIS development; embedding schemes
   Dimitrios Pantazis     : SARC Basis sets
   Taras Petrenko         : DFT Hessian,TD-DFT gradient, ASA, ECA, R-Raman, ABS, FL, XAS/XES, NRVS
   Peter Pinski           : DLPNO-MP2, DLPNO-MP2 Gradient
   Christoph Reimann      : Effective Core Potentials
   Marius Retegan         : Local ZFS, SOC
   Christoph Riplinger    : Optimizer, TS searches, QM/MM, DLPNO-CCSD(T), (RO)-DLPNO pert. Triples
   Tobias Risthaus        : Range-separated hybrids, TD-DFT gradient, RPA, STAB
   Michael Roemelt        : Original ROCIS implementation
   Masaaki Saitow         : Open-shell DLPNO-CCSD energy and density
   Barbara Sandhoefer     : DKH picture change effects
   Avijit Sen             : IP-ROCIS
   Kantharuban Sivalingam : CASSCF convergence, NEVPT2, FIC-MRCI
   Bernardo de Souza      : ESD, SOC TD-DFT
   Georgi Stoychev        : AutoAux, RI-MP2 NMR
   Willem Van den Heuvel  : Paramagnetic NMR
   Boris Wezisla          : Elementary symmetry handling
   Frank Wennmohs         : Technical directorship


 We gratefully acknowledge several colleagues who have allowed us to
 interface, adapt or use parts of their codes:
   Stefan Grimme, W. Hujo, H. Kruse,             : VdW corrections, initial TS optimization,
                  C. Bannwarth                     DFT functionals, gCP, sTDA/sTD-DF
   Ed Valeev, F. Pavosevic, A. Kumar             : LibInt (2-el integral package), F12 methods
   Garnet Chan, S. Sharma, J. Yang, R. Olivares  : DMRG
   Ulf Ekstrom                                   : XCFun DFT Library
   Mihaly Kallay                                 : mrcc  (arbitrary order and MRCC methods)
   Andreas Klamt, Michael Diedenhofen            : otool_cosmo (COSMO solvation model)
   Jiri Pittner, Ondrej Demel                    : Mk-CCSD
   Frank Weinhold                                : gennbo (NPA and NBO analysis)
   Christopher J. Cramer and Donald G. Truhlar   : smd solvation model
   Lars Goerigk                                  : TD-DFT with DH, B97 family of functionals
   V. Asgeirsson, H. Jonsson                     : NEB implementation
   FAccTs GmbH                                   : IRC, NEB, NEB-TS, Multilevel, MM, QM/MM, CI optimization
   S Lehtola, MJT Oliveira, MAL Marques          : LibXC Library


 Your calculation uses the libint2 library for the computation of 2-el integrals
 For citations please refer to: http://libint.valeyev.net

 Your ORCA version has been built with support for libXC version: 4.2.3
 For citations please refer to: https://tddft.org/programs/libxc/

 This ORCA versions uses:
   CBLAS   interface :  Fast vector & matrix operations
   LAPACKE interface :  Fast linear algebra routines
   SCALAPACK package :  Parallel linear algebra routines


----- Orbital basis set information -----
Your calculation utilizes the basis: def2-TZVP
   F. Weigend and R. Ahlrichs, Phys. Chem. Chem. Phys. 7, 3297 (2005).

----- AuxJ basis set information -----
Your calculation utilizes the auxiliary basis: def2/J
   F. Weigend, Phys. Chem. Chem. Phys. 8, 1057 (2006).

================================================================================
                                        WARNINGS
                       Please study these warnings very carefully!
================================================================================

INFO   : Checking CIS options ...

WARNING: (CIS/TDDFT): Spin-orbit needs TRIPLETS set to TRUE
  ===> : ajusting flags

WARNING: CIS/ROCIS methods need fully converged wavefunctions
  ===> : Setting SCFConvForced true
         You can overwrite this default with %scf ConvForced false 


INFO   : the flag for use of LIBINT has been found!

================================================================================
                                       INPUT FILE
================================================================================
NAME = o-IO1.inp
|  1> # ORCA input file
|  2> # o-IO1.out: Geometry 39
|  3> ! B3LYP def2-TZVP def2/J RIJCOSX Grid4 TightSCF
|  4> 
|  5> %maxcore 6000
|  6> %tddft
|  7>   maxdim 5
|  8>   nroots 3
|  9>   dosoc true
| 10>   end
| 11> %pal
| 12>   nprocs 6
| 13>   end
| 14> 
| 15> 
| 16> * xyz 0 1
| 17>    C        0.83739        -3.38753         2.35554
| 18>    O        0.84056        -3.47113         1.13727
| 19>    C       -0.26422        -3.86549         3.23279
| 20>    C       -1.42318        -4.53571         2.85351
| 21>    C       -2.29780        -4.92903         3.86117
| 22>    C       -2.01026        -4.64633         5.20750
| 23>    C       -0.85733        -3.96233         5.58226
| 24>    C        0.03290        -3.56526         4.57470
| 25>    C        1.33895        -2.86194         4.62876
| 26>    C        1.89084        -2.34577         5.79056
| 27>    C        3.14861        -1.67049         5.86517
| 28>    N        4.16709        -1.12038         5.97489
| 29>    C        1.22833        -2.41647         7.05597
| 30>    N        0.70506        -2.45688         8.09297
| 31>    C        1.87243        -2.81669         3.26228
| 32>    F       -3.41865        -5.58697         3.57894
| 33>    F       -2.87294        -5.05918         6.13409
| 34>    C       22.77531         2.08835        -8.34231
| 35>    O       22.91584         3.09584        -7.68180
| 36>    C       23.59739         1.65367        -9.50661
| 37>    C       24.65035         2.32982       -10.11380
| 38>    C       25.26033         1.72643       -11.20957
| 39>    C       24.82853         0.46636       -11.66538
| 40>    C       23.77604        -0.21105       -11.05365
| 41>    C       23.14506         0.39793        -9.96118
| 42>    C       22.04421        -0.06030        -9.07667
| 43>    C       21.60541        -1.37000        -8.96964
| 44>    C       20.80586        -1.82122        -7.87768
| 45>    N       20.18321        -2.21252        -6.97813
| 46>    C       22.00192        -2.39283        -9.88515
| 47>    N       22.29790        -3.22217       -10.64380
| 48>    C       21.69787         1.05156        -8.20382
| 49>    F       26.25983         2.33129       -11.84602
| 50>    F       25.45003        -0.08326       -12.70651
| 51>    C        3.14098        -2.37272         2.92031
| 52>    C        3.84963        -2.32001         1.69495
| 53>    C        3.52111        -2.63822         0.36980
| 54>    C        4.59387        -2.47232        -0.52134
| 55>    C        5.77987        -2.01017         0.09686
| 56>    S        5.52226        -1.76602         1.79366
| 57>    C        7.05878        -1.78113        -0.50827
| 58>    S        7.22765        -1.49358        -2.24708
| 59>    C        8.92509        -1.25004        -2.06031
| 60>    C        9.35097        -1.41839        -0.74662
| 61>    C        8.29843        -1.70655         0.13757
| 62>    C       10.04249        -0.94225        -2.92778
| 63>    C       11.21227        -0.95946        -2.11259
| 64>    C       10.86800        -1.34391        -0.66508
| 65>    C       10.10003        -0.62201        -4.29569
| 66>    C       11.33582        -0.30108        -4.84498
| 67>    C       12.50759        -0.33976        -4.03356
| 68>    C       12.44983        -0.64972        -2.66463
| 69>    C       11.68124         0.10644        -6.28716
| 70>    C       13.19857         0.16161        -6.20923
| 71>    C       13.62712        -0.05590        -4.90823
| 72>    C       14.25774         0.39309        -7.11203
| 73>    C       15.50509         0.33727        -6.49416
| 74>    S       15.34612         0.01123        -4.76333
| 75>    C       16.81906         0.43813        -7.09050
| 76>    S       18.11077         1.23617        -6.23641
| 77>    C       19.27029         0.84250        -7.48939
| 78>    C       18.63653         0.13562        -8.50934
| 79>    C       17.26252        -0.10072        -8.30887
| 80>    C       20.59512         1.35925        -7.43972
| 81>    O        4.61122        -2.73891        -1.83994
| 82>    C        3.50496        -3.43264        -2.42724
| 83>    C        2.39117        -2.50373        -2.92468
| 84>    C        2.72848        -1.82755        -4.26621
| 85>    C        1.08076        -3.29259        -3.03438
| 86>    C        4.03093        -1.02702        -4.30756
| 87>    C       11.37562        -0.31732         0.37088
| 88>    C       10.85102         1.10361         0.18694
| 89>    C       11.38132        -2.77651        -0.31685
| 90>    C       12.89228        -2.99413        -0.32860
| 91>    C       11.18206        -0.90983        -7.33896
| 92>    C       11.72367        -2.32751        -7.17697
| 93>    C       11.16556         1.54079        -6.61652
| 94>    C        9.65341         1.75209        -6.60811
| 95>    C       16.44505        -0.88778        -9.29915
| 96>    C       17.00151        -2.30180        -9.61155
| 97>    C       16.46351        -3.37960        -8.65457
| 98>    C       16.67112        -3.11623        -7.16429
| 99>    C       16.71080        -2.68519       -11.06559
|100>    H       -1.63658        -4.76459         1.80802
|101>    H       -0.69948        -3.76640         6.64025
|102>    H       24.99479         3.29770        -9.74666
|103>    H       23.48334        -1.17875       -11.45570
|104>    H        3.74456        -2.01808         3.75663
|105>    H        2.52486        -2.98932         0.11622
|106>    H        8.40756        -1.88385         1.20894
|107>    H        9.19153        -0.62864        -4.89992
|108>    H       13.35831        -0.64336        -2.06048
|109>    H       14.13697         0.61947        -8.17109
|110>    H       19.16418        -0.18924        -9.40525
|111>    H       20.75908         2.21917        -6.77783
|112>    H        3.11291        -4.15996        -1.69802
|113>    H        3.93380        -4.00123        -3.26701
|114>    H        2.25988        -1.71569        -2.16176
|115>    H        1.88664        -1.16524        -4.53061
|116>    H        2.74635        -2.60946        -5.04950
|117>    H        1.19409        -4.15372        -3.71458
|118>    H        0.27644        -2.65971        -3.43995
|119>    H        0.75125        -3.67570        -2.05552
|120>    H        4.07861        -0.29064        -3.48894
|121>    H        4.12051        -0.47588        -5.25725
|122>    H        4.91521        -1.67211        -4.21020
|123>    H       12.47711        -0.30830         0.33875
|124>    H       11.10299        -0.69098         1.37386
|125>    H       11.10434         1.49512        -0.81084
|126>    H       11.29444         1.78107         0.93202
|127>    H        9.75659         1.14854         0.30090
|128>    H       10.90814        -3.48286        -1.01726
|129>    H       10.98209        -3.02372         0.68174
|130>    H       13.30861        -2.92430        -1.34438
|131>    H       13.12874        -3.99925         0.05391
|132>    H       13.42850        -2.27390         0.30717
|133>    H       11.45030        -0.51758        -8.33632
|134>    H       10.08083        -0.93174        -7.30608
|135>    H       12.81782        -2.36090        -7.30106
|136>    H       11.27923        -3.00146        -7.92465
|137>    H       11.48465        -2.73247        -6.18102
|138>    H       11.56771         1.80501        -7.60973
|139>    H       11.63301         2.23847        -5.90365
|140>    H        9.12301         1.03899        -7.25683
|141>    H        9.41339         2.76199        -6.97566
|142>    H        9.23371         1.66380        -5.59517
|143>    H       16.41096        -0.30562       -10.23600
|144>    H       15.40526        -0.97550        -8.95719
|145>    H       18.09821        -2.26824        -9.48416
|146>    H       16.94472        -4.33529        -8.92578
|147>    H       15.38458        -3.51629        -8.85896
|148>    H       17.73098        -2.93567        -6.92752
|149>    H       16.33279        -3.97817        -6.56779
|150>    H       16.09823        -2.24563        -6.81552
|151>    H       15.62542        -2.69398       -11.26299
|152>    H       17.10121        -3.68843       -11.29686
|153>    H       17.17263        -1.97639       -11.77059
|154> *
|155> 
|156>                          ****END OF INPUT****
================================================================================

                       ****************************
                       * Single Point Calculation *
                       ****************************

---------------------------------
CARTESIAN COORDINATES (ANGSTROEM)
---------------------------------
  C      0.837390   -3.387530    2.355540
  O      0.840560   -3.471130    1.137270
  C     -0.264220   -3.865490    3.232790
  C     -1.423180   -4.535710    2.853510
  C     -2.297800   -4.929030    3.861170
  C     -2.010260   -4.646330    5.207500
  C     -0.857330   -3.962330    5.582260
  C      0.032900   -3.565260    4.574700
  C      1.338950   -2.861940    4.628760
  C      1.890840   -2.345770    5.790560
  C      3.148610   -1.670490    5.865170
  N      4.167090   -1.120380    5.974890
  C      1.228330   -2.416470    7.055970
  N      0.705060   -2.456880    8.092970
  C      1.872430   -2.816690    3.262280
  F     -3.418650   -5.586970    3.578940
  F     -2.872940   -5.059180    6.134090
  C     22.775310    2.088350   -8.342310
  O     22.915840    3.095840   -7.681800
  C     23.597390    1.653670   -9.506610
  C     24.650350    2.329820  -10.113800
  C     25.260330    1.726430  -11.209570
  C     24.828530    0.466360  -11.665380
  C     23.776040   -0.211050  -11.053650
  C     23.145060    0.397930   -9.961180
  C     22.044210   -0.060300   -9.076670
  C     21.605410   -1.370000   -8.969640
  C     20.805860   -1.821220   -7.877680
  N     20.183210   -2.212520   -6.978130
  C     22.001920   -2.392830   -9.885150
  N     22.297900   -3.222170  -10.643800
  C     21.697870    1.051560   -8.203820
  F     26.259830    2.331290  -11.846020
  F     25.450030   -0.083260  -12.706510
  C      3.140980   -2.372720    2.920310
  C      3.849630   -2.320010    1.694950
  C      3.521110   -2.638220    0.369800
  C      4.593870   -2.472320   -0.521340
  C      5.779870   -2.010170    0.096860
  S      5.522260   -1.766020    1.793660
  C      7.058780   -1.781130   -0.508270
  S      7.227650   -1.493580   -2.247080
  C      8.925090   -1.250040   -2.060310
  C      9.350970   -1.418390   -0.746620
  C      8.298430   -1.706550    0.137570
  C     10.042490   -0.942250   -2.927780
  C     11.212270   -0.959460   -2.112590
  C     10.868000   -1.343910   -0.665080
  C     10.100030   -0.622010   -4.295690
  C     11.335820   -0.301080   -4.844980
  C     12.507590   -0.339760   -4.033560
  C     12.449830   -0.649720   -2.664630
  C     11.681240    0.106440   -6.287160
  C     13.198570    0.161610   -6.209230
  C     13.627120   -0.055900   -4.908230
  C     14.257740    0.393090   -7.112030
  C     15.505090    0.337270   -6.494160
  S     15.346120    0.011230   -4.763330
  C     16.819060    0.438130   -7.090500
  S     18.110770    1.236170   -6.236410
  C     19.270290    0.842500   -7.489390
  C     18.636530    0.135620   -8.509340
  C     17.262520   -0.100720   -8.308870
  C     20.595120    1.359250   -7.439720
  O      4.611220   -2.738910   -1.839940
  C      3.504960   -3.432640   -2.427240
  C      2.391170   -2.503730   -2.924680
  C      2.728480   -1.827550   -4.266210
  C      1.080760   -3.292590   -3.034380
  C      4.030930   -1.027020   -4.307560
  C     11.375620   -0.317320    0.370880
  C     10.851020    1.103610    0.186940
  C     11.381320   -2.776510   -0.316850
  C     12.892280   -2.994130   -0.328600
  C     11.182060   -0.909830   -7.338960
  C     11.723670   -2.327510   -7.176970
  C     11.165560    1.540790   -6.616520
  C      9.653410    1.752090   -6.608110
  C     16.445050   -0.887780   -9.299150
  C     17.001510   -2.301800   -9.611550
  C     16.463510   -3.379600   -8.654570
  C     16.671120   -3.116230   -7.164290
  C     16.710800   -2.685190  -11.065590
  H     -1.636580   -4.764590    1.808020
  H     -0.699480   -3.766400    6.640250
  H     24.994790    3.297700   -9.746660
  H     23.483340   -1.178750  -11.455700
  H      3.744560   -2.018080    3.756630
  H      2.524860   -2.989320    0.116220
  H      8.407560   -1.883850    1.208940
  H      9.191530   -0.628640   -4.899920
  H     13.358310   -0.643360   -2.060480
  H     14.136970    0.619470   -8.171090
  H     19.164180   -0.189240   -9.405250
  H     20.759080    2.219170   -6.777830
  H      3.112910   -4.159960   -1.698020
  H      3.933800   -4.001230   -3.267010
  H      2.259880   -1.715690   -2.161760
  H      1.886640   -1.165240   -4.530610
  H      2.746350   -2.609460   -5.049500
  H      1.194090   -4.153720   -3.714580
  H      0.276440   -2.659710   -3.439950
  H      0.751250   -3.675700   -2.055520
  H      4.078610   -0.290640   -3.488940
  H      4.120510   -0.475880   -5.257250
  H      4.915210   -1.672110   -4.210200
  H     12.477110   -0.308300    0.338750
  H     11.102990   -0.690980    1.373860
  H     11.104340    1.495120   -0.810840
  H     11.294440    1.781070    0.932020
  H      9.756590    1.148540    0.300900
  H     10.908140   -3.482860   -1.017260
  H     10.982090   -3.023720    0.681740
  H     13.308610   -2.924300   -1.344380
  H     13.128740   -3.999250    0.053910
  H     13.428500   -2.273900    0.307170
  H     11.450300   -0.517580   -8.336320
  H     10.080830   -0.931740   -7.306080
  H     12.817820   -2.360900   -7.301060
  H     11.279230   -3.001460   -7.924650
  H     11.484650   -2.732470   -6.181020
  H     11.567710    1.805010   -7.609730
  H     11.633010    2.238470   -5.903650
  H      9.123010    1.038990   -7.256830
  H      9.413390    2.761990   -6.975660
  H      9.233710    1.663800   -5.595170
  H     16.410960   -0.305620  -10.236000
  H     15.405260   -0.975500   -8.957190
  H     18.098210   -2.268240   -9.484160
  H     16.944720   -4.335290   -8.925780
  H     15.384580   -3.516290   -8.858960
  H     17.730980   -2.935670   -6.927520
  H     16.332790   -3.978170   -6.567790
  H     16.098230   -2.245630   -6.815520
  H     15.625420   -2.693980  -11.262990
  H     17.101210   -3.688430  -11.296860
  H     17.172630   -1.976390  -11.770590

----------------------------
CARTESIAN COORDINATES (A.U.)
----------------------------
  NO LB      ZA    FRAG     MASS         X           Y           Z
   0 C     6.0000    0    12.011    1.582438   -6.401504    4.451325
   1 O     8.0000    0    15.999    1.588428   -6.559485    2.149129
   2 C     6.0000    0    12.011   -0.499303   -7.304717    6.109088
   3 C     6.0000    0    12.011   -2.689420   -8.571250    5.392352
   4 C     6.0000    0    12.011   -4.342213   -9.314517    7.296554
   5 C     6.0000    0    12.011   -3.798841   -8.780291    9.840749
   6 C     6.0000    0    12.011   -1.620119   -7.487719   10.548943
   7 C     6.0000    0    12.011    0.062172   -6.737365    8.644930
   8 C     6.0000    0    12.011    2.530249   -5.408283    8.747089
   9 C     6.0000    0    12.011    3.573170   -4.432863   10.942573
  10 C     6.0000    0    12.011    5.950011   -3.156769   11.083565
  11 N     7.0000    0    14.007    7.874659   -2.117211   11.290906
  12 C     6.0000    0    12.011    2.321207   -4.566467   13.333851
  13 N     7.0000    0    14.007    1.332370   -4.642830   15.293497
  14 C     6.0000    0    12.011    3.538380   -5.322773    6.164816
  15 F     9.0000    0    18.998   -6.460312  -10.557843    6.763216
  16 F     9.0000    0    18.998   -5.429070   -9.560465   11.591750
  17 C     6.0000    0    12.011   43.039099    3.946410  -15.764681
  18 O     8.0000    0    15.999   43.304662    5.850290  -14.516498
  19 C     6.0000    0    12.011   44.592605    3.124983  -17.964889
  20 C     6.0000    0    12.011   46.582411    4.402722  -19.112312
  21 C     6.0000    0    12.011   47.735106    3.262480  -21.183017
  22 C     6.0000    0    12.011   46.919122    0.881293  -22.044373
  23 C     6.0000    0    12.011   44.930204   -0.398827  -20.888371
  24 C     6.0000    0    12.011   43.737825    0.751979  -18.823902
  25 C     6.0000    0    12.011   41.657520   -0.113950  -17.152421
  26 C     6.0000    0    12.011   40.828308   -2.588925  -16.950163
  27 C     6.0000    0    12.011   39.317377   -3.441607  -14.886658
  28 N     7.0000    0    14.007   38.140739   -4.181057  -13.186755
  29 C     6.0000    0    12.011   41.577603   -4.521793  -18.680226
  30 N     7.0000    0    14.007   42.136924   -6.089019  -20.113867
  31 C     6.0000    0    12.011   41.003032    1.987160  -15.502973
  32 F     9.0000    0    18.998   49.623887    4.405500  -22.385734
  33 F     9.0000    0    18.998   48.093587   -0.157339  -24.011824
  34 C     6.0000    0    12.011    5.935592   -4.483791    5.518586
  35 C     6.0000    0    12.011    7.274746   -4.384184    3.202991
  36 C     6.0000    0    12.011    6.653934   -4.985513    0.698821
  37 C     6.0000    0    12.011    8.681156   -4.672008   -0.985190
  38 C     6.0000    0    12.011   10.922371   -3.798671    0.183039
  39 S    16.0000    0    32.060   10.435559   -3.337294    3.389526
  40 C     6.0000    0    12.011   13.339161   -3.365848   -0.960491
  41 S    16.0000    0    32.060   13.658279   -2.822457   -4.246366
  42 C     6.0000    0    12.011   16.865976   -2.362233   -3.893422
  43 C     6.0000    0    12.011   17.670772   -2.680369   -1.410907
  44 C     6.0000    0    12.011   15.681760   -3.224912    0.259970
  45 C     6.0000    0    12.011   18.977556   -1.780594   -5.532702
  46 C     6.0000    0    12.011   21.188120   -1.813117   -3.992217
  47 C     6.0000    0    12.011   20.537544   -2.539622   -1.256819
  48 C     6.0000    0    12.011   19.086291   -1.175429   -8.117678
  49 C     6.0000    0    12.011   21.421595   -0.568959   -9.155685
  50 C     6.0000    0    12.011   23.635920   -0.642053   -7.622324
  51 C     6.0000    0    12.011   23.526769   -1.227793   -5.035421
  52 C     6.0000    0    12.011   22.074345    0.201142  -11.881011
  53 C     6.0000    0    12.011   24.941683    0.305399  -11.733744
  54 C     6.0000    0    12.011   25.751525   -0.105636   -9.275211
  55 C     6.0000    0    12.011   26.943224    0.742832  -13.439789
  56 C     6.0000    0    12.011   29.300374    0.637348  -12.272184
  57 S    16.0000    0    32.060   28.999964    0.021222   -9.001389
  58 C     6.0000    0    12.011   31.783417    0.827946  -13.399103
  59 S    16.0000    0    32.060   34.224395    2.336023  -11.785107
  60 C     6.0000    0    12.011   36.415571    1.592094  -14.152896
  61 C     6.0000    0    12.011   35.217938    0.256285  -16.080322
  62 C     6.0000    0    12.011   32.621435   -0.190333  -15.701489
  63 C     6.0000    0    12.011   38.919136    2.568610  -14.059033
  64 O     8.0000    0    15.999    8.713943   -5.175790   -3.476983
  65 C     6.0000    0    12.011    6.623415   -6.486750   -4.586819
  66 C     6.0000    0    12.011    4.518656   -4.731364   -5.526844
  67 C     6.0000    0    12.011    5.156080   -3.453569   -8.061969
  68 C     6.0000    0    12.011    2.042340   -6.222093   -5.734147
  69 C     6.0000    0    12.011    7.617354   -1.940787   -8.140109
  70 C     6.0000    0    12.011   21.496806   -0.599648    0.700862
  71 C     6.0000    0    12.011   20.505456    2.085521    0.353265
  72 C     6.0000    0    12.011   21.507578   -5.246844   -0.598760
  73 C     6.0000    0    12.011   24.362878   -5.658086   -0.620964
  74 C     6.0000    0    12.011   21.131031   -1.719330  -13.868625
  75 C     6.0000    0    12.011   22.154526   -4.398356  -13.562508
  76 C     6.0000    0    12.011   21.099851    2.911671  -12.503411
  77 C     6.0000    0    12.011   18.242301    3.310970  -12.487518
  78 C     6.0000    0    12.011   31.076641   -1.677661  -17.572847
  79 C     6.0000    0    12.011   32.128198   -4.349772  -18.163197
  80 C     6.0000    0    12.011   31.111525   -6.386518  -16.354767
  81 C     6.0000    0    12.011   31.503851   -5.888821  -13.538546
  82 C     6.0000    0    12.011   31.578835   -5.074274  -20.910935
  83 H     1.0000    0     1.008   -3.092688   -9.003770    3.416663
  84 H     1.0000    0     1.008   -1.321826   -7.117465   12.548254
  85 H     1.0000    0     1.008   47.233308    6.231750  -18.418518
  86 H     1.0000    0     1.008   44.377081   -2.227515  -21.648136
  87 H     1.0000    0     1.008    7.076193   -3.813619    7.099002
  88 H     1.0000    0     1.008    4.771294   -5.648996    0.219624
  89 H     1.0000    0     1.008   15.887986   -3.559961    2.284566
  90 H     1.0000    0     1.008   17.369474   -1.187957   -9.259507
  91 H     1.0000    0     1.008   25.243548   -1.215774   -3.893743
  92 H     1.0000    0     1.008   26.715002    1.170629  -15.441122
  93 H     1.0000    0     1.008   36.215052   -0.357612  -17.773347
  94 H     1.0000    0     1.008   39.228976    4.193624  -12.808242
  95 H     1.0000    0     1.008    5.882547   -7.861185   -3.208793
  96 H     1.0000    0     1.008    7.433805   -7.561229   -6.173754
  97 H     1.0000    0     1.008    4.270554   -3.242184   -4.085134
  98 H     1.0000    0     1.008    3.565233   -2.201984   -8.561612
  99 H     1.0000    0     1.008    5.189849   -4.931165   -9.542172
 100 H     1.0000    0     1.008    2.256503   -7.849393   -7.019539
 101 H     1.0000    0     1.008    0.522396   -5.026123   -6.500563
 102 H     1.0000    0     1.008    1.419657   -6.946066   -3.884370
 103 H     1.0000    0     1.008    7.707456   -0.549230   -6.593141
 104 H     1.0000    0     1.008    7.786635   -0.899283   -9.934763
 105 H     1.0000    0     1.008    9.288401   -3.159830   -7.956125
 106 H     1.0000    0     1.008   23.578321   -0.582603    0.640145
 107 H     1.0000    0     1.008   20.981610   -1.305763    2.596219
 108 H     1.0000    0     1.008   20.984161    2.825367   -1.532266
 109 H     1.0000    0     1.008   21.343398    3.365735    1.761263
 110 H     1.0000    0     1.008   18.437283    2.170426    0.568619
 111 H     1.0000    0     1.008   20.613397   -6.581652   -1.922343
 112 H     1.0000    0     1.008   20.753142   -5.714003    1.288302
 113 H     1.0000    0     1.008   25.149628   -5.526126   -2.540510
 114 H     1.0000    0     1.008   24.809723   -7.557487    0.101875
 115 H     1.0000    0     1.008   25.376187   -4.297048    0.580467
 116 H     1.0000    0     1.008   21.637931   -0.978084  -15.753362
 117 H     1.0000    0     1.008   19.050008   -1.760733  -13.806490
 118 H     1.0000    0     1.008   24.222169   -4.461454  -13.797004
 119 H     1.0000    0     1.008   21.314656   -5.671937  -14.975418
 120 H     1.0000    0     1.008   21.702843   -5.163620  -11.680435
 121 H     1.0000    0     1.008   21.859804    3.410975  -14.380306
 122 H     1.0000    0     1.008   21.983203    4.230095  -11.156282
 123 H     1.0000    0     1.008   17.239990    1.963407  -13.713421
 124 H     1.0000    0     1.008   17.788729    5.219405  -13.182087
 125 H     1.0000    0     1.008   17.449183    3.144126  -10.573339
 126 H     1.0000    0     1.008   31.012220   -0.577538  -19.343237
 127 H     1.0000    0     1.008   29.111722   -1.843428  -16.926636
 128 H     1.0000    0     1.008   34.200660   -4.286352  -17.922465
 129 H     1.0000    0     1.008   32.020880   -8.192511  -16.867280
 130 H     1.0000    0     1.008   29.072643   -6.644825  -16.741008
 131 H     1.0000    0     1.008   33.506696   -5.547612  -13.091116
 132 H     1.0000    0     1.008   30.864500   -7.517652  -12.411324
 133 H     1.0000    0     1.008   30.421246   -4.243626  -12.879466
 134 H     1.0000    0     1.008   29.527765   -5.090884  -21.283967
 135 H     1.0000    0     1.008   32.316603   -6.970123  -21.347972
 136 H     1.0000    0     1.008   32.451568   -3.734836  -22.243192

--------------------------------
INTERNAL COORDINATES (ANGSTROEM)
--------------------------------
 C      0   0   0     0.000000000000     0.00000000     0.00000000
 O      1   0   0     1.221139141048     0.00000000     0.00000000
 C      1   2   0     1.487130766342   124.64069345     0.00000000
 C      3   1   2     1.391487135550   127.66115709     3.56250378
 C      4   3   1     1.391056951530   117.54329563   177.80926457
 C      5   4   3     1.405419158294   120.55839861     0.31315656
 C      6   5   4     1.391958563500   121.75022026     0.41358977
 C      7   6   5     1.401909837115   118.14137404   359.39534870
 C      8   7   6     1.484367915478   131.81709308   181.53394793
 C      9   8   7     1.385926867118   123.87410410   354.33289518
 C     10   9   8     1.429529679090   124.75354894   179.72912321
 N     11  10   9     1.162738578056   177.57280695   186.40813860
 C     10   9   8     1.430098058946   122.60609708   358.44607129
 N     13  10   9     1.162245009023   178.79829695   196.09212372
 C      9   8   7     1.467622588849   107.48951364   175.22150873
 F      5   4   3     1.329978773891   121.06676307   180.75192698
 F      6   5   4     1.331627174925   118.14277107   180.79721017
 C     12  11  10    23.696919960647   134.01799698   162.70969327
 O     18  12  11     1.212871898058    82.78667060   152.55430934
 C     18  12  11     1.490086144758   149.97548193   336.56042337
 C     20  18  12     1.390892979420   128.09374249   171.92364522
 C     21  20  18     1.391713686575   117.69454109   180.88020091
 C     22  21  20     1.407831808491   120.56681168   359.13233977
 C     23  22  21     1.393137861484   121.65218304     0.72523927
 C     24  23  22     1.400886541337   118.12089103     0.13659387
 C     25  24  23     1.484655985574   131.63704745   182.10683776
 C     26  25  24     1.385393428200   124.93592926    16.14245953
 C     27  26  25     1.426624103434   122.38800674   163.12242823
 N     28  27  26     1.161894536952   178.09934769   243.33495715
 C     27  26  25     1.428831672766   122.63887674   348.06600043
 N     30  27  26     1.162307540413   178.51562138   258.62795265
 C     26  25  24     1.455352595662   107.33577759   186.35550727
 F     22  21  20     1.330385084139   120.58610442   179.00747381
 F     23  22  21     1.331276106336   118.65513340   180.83090004
 C     15   9   8     1.386820804682   124.88714559   187.51224345
 C     35  15   9     1.416499310342   133.06613523   176.10655969
 C     36  35  15     1.401857880457   133.79189696     3.29966326
 C     37  36  35     1.404445558646   113.20234792   182.63692694
 C     38  37  36     1.415044120337   113.67636923   359.56288536
 S     39  38  37     1.733523110489   110.43037875   359.12608739
 C     39  38  37     1.433266348799   127.99648926   177.68717404
 S     41  39  38     1.770497753599   121.71597517    22.41724565
 C     42  41  39     1.724962990357    90.59883295   176.95942392
 C     43  42  41     1.391221374548   112.73013454     1.72902131
 C     41  39  38     1.399786985402   127.15261013   200.20981671
 C     43  42  41     1.447695287345   136.44141161   179.94784481
 C     46  43  42     1.425908892111   106.74257948   183.39746527
 C     44  43  42     1.521044398727   110.48771958   173.79031526
 C     46  43  42     1.406073354168   131.52541297     5.71847810
 C     49  46  43     1.389925355226   118.25782548   176.59869972
 C     50  49  46     1.425813273784   119.96849633     1.78738601
 C     47  46  43     1.390051000072   120.04279349   182.28977019
 C     50  49  46     1.537943652804   129.15796109   181.14501154
 C     53  50  49     1.520331260844   100.70217572   185.65890128
 C     54  53  50     1.386927071839   110.53468179   355.19146511
 C     54  53  50     1.410840855412   136.25365688   176.26064990
 C     56  54  53     1.393112067208   112.44550868   179.54365915
 S     55  54  53     1.726401878735   112.35234562   180.52706353
 C     57  56  54     1.446482387069   128.88078313   175.80664779
 S     59  57  56     1.742082745968   120.22300984   144.41355211
 C     60  59  57     1.751976478067    92.13008792   176.29838889
 C     61  60  59     1.393423508665   109.66173410     0.55774756
 C     59  57  56     1.404080322133   128.16174178   320.83129160
 C     32  26  25     1.376437251966   133.97768262   160.84209378
 O     38  37  36     1.345391099495   127.46829114   177.40461417
 C     65  38  37     1.431779937875   119.21348204   350.90894855
 C     66  65  38     1.533247698775   113.62847240    89.49412608
 C     67  66  65     1.539707819490   112.92958590    77.62620239
 C     67  66  65     1.533462930005   109.40880160   201.19145196
 C     68  67  66     1.529357416008   116.10410003   304.14224067
 C     48  44  43     1.544272713642   113.35067331   126.77786909
 C     71  48  44     1.525805082080   115.16276465   304.63673074
 C     48  44  43     1.561122773935   107.15572006   249.11441869
 C     73  48  44     1.526596426204   117.03574436   173.53217530
 C     53  50  49     1.545402415327   113.04297728   305.78394992
 C     75  53  50     1.526236788510   115.08566872   301.21427726
 C     53  50  49     1.559411361540   111.56218942    71.38136732
 C     77  53  50     1.526864774825   116.97671415   295.56316944
 C     63  59  57     1.506112586396   126.84611454     1.68863866
 C     79  63  59     1.551352330066   114.45843265   237.67171671
 C     80  79  63     1.538475726295   112.82094721    89.06636202
 C     81  80  79     1.527547101532   116.01085955   304.98492828
 C     80  79  63     1.531578439976   110.56426602   213.26325066
 H      4   3   1     1.091317989635   121.66886919   358.92319163
 H      7   6   5     1.087496219534   118.07873567   179.36736810
 H     21  20  18     1.090973137891   121.55920471     1.16102266
 H     24  23  22     1.088007712519   118.25925380   179.57940877
 H     35  15   9     1.090646362668   114.91231362   358.50317040
 H     37  36  35     1.086318594566   120.59309952     1.70124531
 H     45  41  39     1.091411161662   122.19536848     3.82453185
 H     49  46  43     1.091104990274   120.21789231   356.60086398
 H     52  47  46     1.091042429285   121.51461187   179.22687581
 H     56  54  53     1.089697839266   124.94519734     1.16327279
 H     62  61  60     1.089313210330   122.20792254   178.37181461
 H     64  32  26     1.097471484869   112.97088596   170.67018403
 H     66  65  38     1.102025132790   108.85803525   325.42724209
 H     66  65  38     1.101095811726   105.19578327   210.34519365
 H     67  66  65     1.104667837904   107.12534477   318.43927239
 H     68  67  66     1.103293470342   107.77451375   181.32609161
 H     68  67  66     1.106908220721   108.05163300    67.80156465
 H     69  67  66     1.103204698050   110.96955516   301.97796813
 H     69  67  66     1.100888178563   110.79073986   182.94410530
 H     69  67  66     1.101597481751   111.77428472    62.46080015
 H     70  68  67     1.102119590244   111.49980271   307.23217070
 H     70  68  67     1.101676437118   110.75791002   187.42930364
 H     70  68  67     1.098895443661   112.06345875    67.08905621
 H     71  48  44     1.101995425308   108.32717487   181.77407549
 H     71  48  44     1.104498887686   107.64661825    67.54139983
 H     72  71  48     1.101370069913   111.17246020   302.17162208
 H     72  71  48     1.100326112750   110.68220207   182.68112869
 H     72  71  48     1.101264097027   111.54329867    62.68945771
 H     73  48  44     1.101546096630   107.78012289    50.07120522
 H     73  48  44     1.103485099628   106.76704046   296.51168646
 H     74  73  48     1.100007230067   111.87980826   291.96601769
 H     74  73  48     1.101132801301   109.87637709   172.88603823
 H     74  73  48     1.100212086009   112.62015969    53.73031223
 H     75  53  50     1.104780398858   107.60866183   178.40765439
 H     75  53  50     1.101938589668   108.39519080    64.11368504
 H     76  75  53     1.101670296731   111.63186569   296.86994993
 H     76  75  53     1.100345808598   110.69978496   176.75012089
 H     76  75  53     1.101380753645   111.13065415    57.29883059
 H     77  53  50     1.103631702607   106.84516551   172.59468571
 H     77  53  50     1.101567302438   107.79122432    59.00616323
 H     78  77  53     1.100306052151   112.61061439   306.26064000
 H     78  77  53     1.101181462294   109.93436383   187.04451627
 H     78  77  53     1.099995753492   111.82879339    67.93187512
 H     79  63  59     1.103521778761   107.41453569   116.85998341
 H     79  63  59     1.098086829035   110.54491061     1.52687950
 H     80  79  63     1.104583802027   107.77118781   330.84041605
 H     81  80  79     1.103839347143   107.53331060   182.37397560
 H     81  80  79     1.106593589851   108.21600201    68.47857957
 H     82  81  80     1.100892894927   111.65067910   305.03927019
 H     82  81  80     1.101462665050   110.58966554   184.86435438
 H     82  81  80     1.098994005898   112.04567787    65.91955567
 H     83  80  79     1.103219728114   111.01473360   299.89108670
 H     83  80  79     1.101088678808   111.11136176   180.06272835
 H     83  80  79     1.101230851775   111.53446875    59.93984153

---------------------------
INTERNAL COORDINATES (A.U.)
---------------------------
 C      0   0   0     0.000000000000     0.00000000     0.00000000
 O      1   0   0     2.307618547993     0.00000000     0.00000000
 C      1   2   0     2.810269873714   124.64069345     0.00000000
 C      3   1   2     2.629529605063   127.66115709     3.56250378
 C      4   3   1     2.628716675079   117.54329563   177.80926457
 C      5   4   3     2.655857312542   120.55839861     0.31315656
 C      6   5   4     2.630420474781   121.75022026     0.41358977
 C      7   6   5     2.649225656598   118.14137404   359.39534870
 C      8   7   6     2.805048842233   131.81709308   181.53394793
 C      9   8   7     2.619022220497   123.87410410   354.33289518
 C     10   9   8     2.701419593793   124.75354894   179.72912321
 N     11  10   9     2.197257477871   177.57280695   186.40813860
 C     10   9   8     2.702493676060   122.60609708   358.44607129
 N     13  10   9     2.196324767571   178.79829695   196.09212372
 C      9   8   7     2.773404760881   107.48951364   175.22150873
 F      5   4   3     2.513295646582   121.06676307   180.75192698
 F      6   5   4     2.516410673096   118.14277107   180.79721017
 C     12  11  10    44.780688943074   134.01799698   162.70969327
 O     18  12  11     2.291995722860    82.78667060   152.55430934
 C     18  12  11     2.815854729543   149.97548193   336.56042337
 C     20  18  12     2.628406812698   128.09374249   171.92364522
 C     21  20  18     2.629957724457   117.69454109   180.88020091
 C     22  21  20     2.660416560672   120.56681168   359.13233977
 C     23  22  21     2.632649025001   121.65218304     0.72523927
 C     24  23  22     2.647291907824   118.12089103     0.13659387
 C     25  24  23     2.805593215821   131.63704745   182.10683776
 C     26  25  24     2.618014167032   124.93592926    16.14245953
 C     27  26  25     2.695928851542   122.38800674   163.12242823
 N     28  27  26     2.195662471339   178.09934769   243.33495715
 C     27  26  25     2.700100553001   122.63887674   348.06600043
 N     30  27  26     2.196442934771   178.51562138   258.62795265
 C     26  25  24     2.750217834093   107.33577759   186.35550727
 F     22  21  20     2.514063461677   120.58610442   179.00747381
 F     23  22  21     2.515747249607   118.65513340   180.83090004
 C     15   9   8     2.620711517674   124.88714559   187.51224345
 C     35  15   9     2.676795765435   133.06613523   176.10655969
 C     36  35  15     2.649127472743   133.79189696     3.29966326
 C     37  36  35     2.654017475843   113.20234792   182.63692694
 C     38  37  36     2.674045854852   113.67636923   359.56288536
 S     39  38  37     3.275883925648   110.43037875   359.12608739
 C     39  38  37     2.708480876196   127.99648926   177.68717404
 S     41  39  38     3.345755875025   121.71597517    22.41724565
 C     42  41  39     3.259707642924    90.59883295   176.95942392
 C     43  42  41     2.629027389554   112.73013454     1.72902131
 C     41  39  38     2.645214048236   127.15261013   200.20981671
 C     43  42  41     2.735747618450   136.44141161   179.94784481
 C     46  43  42     2.694577298012   106.74257948   183.39746527
 C     44  43  42     2.874357351130   110.48771958   173.79031526
 C     46  43  42     2.657093563581   131.52541297     5.71847810
 C     49  46  43     2.626578267970   118.25782548   176.59869972
 C     50  49  46     2.694396605562   119.96849633     1.78738601
 C     47  46  43     2.626815702319   120.04279349   182.28977019
 C     50  49  46     2.906292313202   129.15796109   181.14501154
 C     53  50  49     2.873009715835   100.70217572   185.65890128
 C     54  53  50     2.620912333497   110.53468179   355.19146511
 C     54  53  50     2.666102835276   136.25365688   176.26064990
 C     56  54  53     2.632600280884   112.44550868   179.54365915
 S     55  54  53     3.262426747896   112.35234562   180.52706353
 C     57  56  54     2.733455569101   128.88078313   175.80664779
 S     59  57  56     3.292059292509   120.22300984   144.41355211
 C     60  59  57     3.310755736618    92.13008792   176.29838889
 C     61  60  59     2.633188819944   109.66173410     0.55774756
 C     59  57  56     2.653327278859   128.16174178   320.83129160
 C     32  26  25     2.601089446743   133.97768262   160.84209378
 O     38  37  36     2.542420721060   127.46829114   177.40461417
 C     65  38  37     2.705671966626   119.21348204   350.90894855
 C     66  65  38     2.897418246150   113.62847240    89.49412608
 C     67  66  65     2.909626105094   112.92958590    77.62620239
 C     67  66  65     2.897824974230   109.40880160   201.19145196
 C     68  67  66     2.890066677137   116.10410003   304.14224067
 C     48  44  43     2.918252504871   113.35067331   126.77786909
 C     71  48  44     2.883353738876   115.16276465   304.63673074
 C     48  44  43     2.950094504166   107.15572006   249.11441869
 C     73  48  44     2.884849162549   117.03574436   173.53217530
 C     53  50  49     2.920387331669   113.04297728   305.78394992
 C     75  53  50     2.884169545799   115.08566872   301.21427726
 C     53  50  49     2.946860403436   111.56218942    71.38136732
 C     77  53  50     2.885356267950   116.97671415   295.56316944
 C     63  59  57     2.846140315140   126.84611454     1.68863866
 C     79  63  59     2.931631041045   114.45843265   237.67171671
 C     80  79  63     2.907297786384   112.82094721    89.06636202
 C     81  80  79     2.886645678561   116.01085955   304.98492828
 C     80  79  63     2.894263804173   110.56426602   213.26325066
 H      4   3   1     2.062292125431   121.66886919   358.92319163
 H      7   6   5     2.055070026593   118.07873567   179.36736810
 H     21  20  18     2.061640450079   121.55920471     1.16102266
 H     24  23  22     2.056036608254   118.25925380   179.57940877
 H     35  15   9     2.061022934399   114.91231362   358.50317040
 H     37  36  35     2.052844637916   120.59309952     1.70124531
 H     45  41  39     2.062468195046   122.19536848     3.82453185
 H     49  46  43     2.061889614972   120.21789231   356.60086398
 H     52  47  46     2.061771391837   121.51461187   179.22687581
 H     56  54  53     2.059230484938   124.94519734     1.16327279
 H     62  61  60     2.058503641587   122.20792254   178.37181461
 H     64  32  26     2.073920546190   112.97088596   170.67018403
 H     66  65  38     2.082525693671   108.85803525   325.42724209
 H     66  65  38     2.080769531369   105.19578327   210.34519365
 H     67  66  65     2.087519682590   107.12534477   318.43927239
 H     68  67  66     2.084922504291   107.77451375   181.32609161
 H     68  67  66     2.091753392549   108.05163300    67.80156465
 H     69  67  66     2.084754748970   110.96955516   301.97796813
 H     69  67  66     2.080377161556   110.79073986   182.94410530
 H     69  67  66     2.081717550327   111.77428472    62.46080015
 H     70  68  67     2.082704192391   111.49980271   307.23217070
 H     70  68  67     2.081866754346   110.75791002   187.42930364
 H     70  68  67     2.076611438334   112.06345875    67.08905621
 H     71  48  44     2.082469554666   108.32717487   181.77407549
 H     71  48  44     2.087200412948   107.64661825    67.54139983
 H     72  71  48     2.081287804233   111.17246020   302.17162208
 H     72  71  48     2.079315011100   110.68220207   182.68112869
 H     72  71  48     2.081087544501   111.54329867    62.68945771
 H     73  48  44     2.081620446520   107.78012289    50.07120522
 H     73  48  44     2.085284631159   106.76704046   296.51168646
 H     74  73  48     2.078712410160   111.87980826   291.96601769
 H     74  73  48     2.080839431536   109.87637709   172.88603823
 H     74  73  48     2.079099531787   112.62015969    53.73031223
 H     75  53  50     2.087732391965   107.60866183   178.40765439
 H     75  53  50     2.082362150872   108.39519080    64.11368504
 H     76  75  53     2.081855150698   111.63186569   296.86994993
 H     76  75  53     2.079352230859   110.69978496   176.75012089
 H     76  75  53     2.081307993561   111.13065415    57.29883059
 H     77  53  50     2.085561670641   106.84516551   172.59468571
 H     77  53  50     2.081660519690   107.79122432    59.00616323
 H     78  77  53     2.079277102061   112.61061439   306.26064000
 H     78  77  53     2.080931387487   109.93436383   187.04451627
 H     78  77  53     2.078690722576   111.82879339    67.93187512
 H     79  63  59     2.085353944676   107.41453569   116.85998341
 H     79  63  59     2.075083378142   110.54491061     1.52687950
 H     80  79  63     2.087360877796   107.77118781   330.84041605
 H     81  80  79     2.085954061946   107.53331060   182.37397560
 H     81  80  79     2.091158826372   108.21600201    68.47857957
 H     82  81  80     2.080386074191   111.65067910   305.03927019
 H     82  81  80     2.081462783684   110.58966554   184.86435438
 H     82  81  80     2.076797693968   112.04567787    65.91955567
 H     83  80  79     2.084783151675   111.01473360   299.89108670
 H     83  80  79     2.080756052109   111.11136176   180.06272835
 H     83  80  79     2.081024720079   111.53446875    59.93984153

---------------------
BASIS SET INFORMATION
---------------------
There are 6 groups of distinct atoms

 Group   1 Type C   : 11s6p2d1f contracted to 5s3p2d1f pattern {62111/411/11/1}
 Group   2 Type O   : 11s6p2d1f contracted to 5s3p2d1f pattern {62111/411/11/1}
 Group   3 Type N   : 11s6p2d1f contracted to 5s3p2d1f pattern {62111/411/11/1}
 Group   4 Type F   : 11s6p2d1f contracted to 5s3p2d1f pattern {62111/411/11/1}
 Group   5 Type S   : 14s9p3d1f contracted to 5s5p2d1f pattern {73211/51111/21/1}
 Group   6 Type H   : 5s1p contracted to 3s1p pattern {311/1}

Atom   0C    basis set group =>   1
Atom   1O    basis set group =>   2
Atom   2C    basis set group =>   1
Atom   3C    basis set group =>   1
Atom   4C    basis set group =>   1
Atom   5C    basis set group =>   1
Atom   6C    basis set group =>   1
Atom   7C    basis set group =>   1
Atom   8C    basis set group =>   1
Atom   9C    basis set group =>   1
Atom  10C    basis set group =>   1
Atom  11N    basis set group =>   3
Atom  12C    basis set group =>   1
Atom  13N    basis set group =>   3
Atom  14C    basis set group =>   1
Atom  15F    basis set group =>   4
Atom  16F    basis set group =>   4
Atom  17C    basis set group =>   1
Atom  18O    basis set group =>   2
Atom  19C    basis set group =>   1
Atom  20C    basis set group =>   1
Atom  21C    basis set group =>   1
Atom  22C    basis set group =>   1
Atom  23C    basis set group =>   1
Atom  24C    basis set group =>   1
Atom  25C    basis set group =>   1
Atom  26C    basis set group =>   1
Atom  27C    basis set group =>   1
Atom  28N    basis set group =>   3
Atom  29C    basis set group =>   1
Atom  30N    basis set group =>   3
Atom  31C    basis set group =>   1
Atom  32F    basis set group =>   4
Atom  33F    basis set group =>   4
Atom  34C    basis set group =>   1
Atom  35C    basis set group =>   1
Atom  36C    basis set group =>   1
Atom  37C    basis set group =>   1
Atom  38C    basis set group =>   1
Atom  39S    basis set group =>   5
Atom  40C    basis set group =>   1
Atom  41S    basis set group =>   5
Atom  42C    basis set group =>   1
Atom  43C    basis set group =>   1
Atom  44C    basis set group =>   1
Atom  45C    basis set group =>   1
Atom  46C    basis set group =>   1
Atom  47C    basis set group =>   1
Atom  48C    basis set group =>   1
Atom  49C    basis set group =>   1
Atom  50C    basis set group =>   1
Atom  51C    basis set group =>   1
Atom  52C    basis set group =>   1
Atom  53C    basis set group =>   1
Atom  54C    basis set group =>   1
Atom  55C    basis set group =>   1
Atom  56C    basis set group =>   1
Atom  57S    basis set group =>   5
Atom  58C    basis set group =>   1
Atom  59S    basis set group =>   5
Atom  60C    basis set group =>   1
Atom  61C    basis set group =>   1
Atom  62C    basis set group =>   1
Atom  63C    basis set group =>   1
Atom  64O    basis set group =>   2
Atom  65C    basis set group =>   1
Atom  66C    basis set group =>   1
Atom  67C    basis set group =>   1
Atom  68C    basis set group =>   1
Atom  69C    basis set group =>   1
Atom  70C    basis set group =>   1
Atom  71C    basis set group =>   1
Atom  72C    basis set group =>   1
Atom  73C    basis set group =>   1
Atom  74C    basis set group =>   1
Atom  75C    basis set group =>   1
Atom  76C    basis set group =>   1
Atom  77C    basis set group =>   1
Atom  78C    basis set group =>   1
Atom  79C    basis set group =>   1
Atom  80C    basis set group =>   1
Atom  81C    basis set group =>   1
Atom  82C    basis set group =>   1
Atom  83H    basis set group =>   6
Atom  84H    basis set group =>   6
Atom  85H    basis set group =>   6
Atom  86H    basis set group =>   6
Atom  87H    basis set group =>   6
Atom  88H    basis set group =>   6
Atom  89H    basis set group =>   6
Atom  90H    basis set group =>   6
Atom  91H    basis set group =>   6
Atom  92H    basis set group =>   6
Atom  93H    basis set group =>   6
Atom  94H    basis set group =>   6
Atom  95H    basis set group =>   6
Atom  96H    basis set group =>   6
Atom  97H    basis set group =>   6
Atom  98H    basis set group =>   6
Atom  99H    basis set group =>   6
Atom 100H    basis set group =>   6
Atom 101H    basis set group =>   6
Atom 102H    basis set group =>   6
Atom 103H    basis set group =>   6
Atom 104H    basis set group =>   6
Atom 105H    basis set group =>   6
Atom 106H    basis set group =>   6
Atom 107H    basis set group =>   6
Atom 108H    basis set group =>   6
Atom 109H    basis set group =>   6
Atom 110H    basis set group =>   6
Atom 111H    basis set group =>   6
Atom 112H    basis set group =>   6
Atom 113H    basis set group =>   6
Atom 114H    basis set group =>   6
Atom 115H    basis set group =>   6
Atom 116H    basis set group =>   6
Atom 117H    basis set group =>   6
Atom 118H    basis set group =>   6
Atom 119H    basis set group =>   6
Atom 120H    basis set group =>   6
Atom 121H    basis set group =>   6
Atom 122H    basis set group =>   6
Atom 123H    basis set group =>   6
Atom 124H    basis set group =>   6
Atom 125H    basis set group =>   6
Atom 126H    basis set group =>   6
Atom 127H    basis set group =>   6
Atom 128H    basis set group =>   6
Atom 129H    basis set group =>   6
Atom 130H    basis set group =>   6
Atom 131H    basis set group =>   6
Atom 132H    basis set group =>   6
Atom 133H    basis set group =>   6
Atom 134H    basis set group =>   6
Atom 135H    basis set group =>   6
Atom 136H    basis set group =>   6
---------------------------------
AUXILIARY/J BASIS SET INFORMATION
---------------------------------
There are 6 groups of distinct atoms

 Group   1 Type C   : 12s5p4d2f1g contracted to 6s4p3d1f1g pattern {711111/2111/211/2/1}
 Group   2 Type O   : 12s5p4d2f1g contracted to 6s4p3d1f1g pattern {711111/2111/211/2/1}
 Group   3 Type N   : 12s5p4d2f1g contracted to 6s4p3d1f1g pattern {711111/2111/211/2/1}
 Group   4 Type F   : 12s5p4d2f1g contracted to 6s4p3d1f1g pattern {711111/2111/211/2/1}
 Group   5 Type S   : 14s5p5d2f1g contracted to 8s4p3d1f1g pattern {71111111/2111/311/2/1}
 Group   6 Type H   : 5s2p1d contracted to 3s1p1d pattern {311/2/1}

Atom   0C    basis set group =>   1
Atom   1O    basis set group =>   2
Atom   2C    basis set group =>   1
Atom   3C    basis set group =>   1
Atom   4C    basis set group =>   1
Atom   5C    basis set group =>   1
Atom   6C    basis set group =>   1
Atom   7C    basis set group =>   1
Atom   8C    basis set group =>   1
Atom   9C    basis set group =>   1
Atom  10C    basis set group =>   1
Atom  11N    basis set group =>   3
Atom  12C    basis set group =>   1
Atom  13N    basis set group =>   3
Atom  14C    basis set group =>   1
Atom  15F    basis set group =>   4
Atom  16F    basis set group =>   4
Atom  17C    basis set group =>   1
Atom  18O    basis set group =>   2
Atom  19C    basis set group =>   1
Atom  20C    basis set group =>   1
Atom  21C    basis set group =>   1
Atom  22C    basis set group =>   1
Atom  23C    basis set group =>   1
Atom  24C    basis set group =>   1
Atom  25C    basis set group =>   1
Atom  26C    basis set group =>   1
Atom  27C    basis set group =>   1
Atom  28N    basis set group =>   3
Atom  29C    basis set group =>   1
Atom  30N    basis set group =>   3
Atom  31C    basis set group =>   1
Atom  32F    basis set group =>   4
Atom  33F    basis set group =>   4
Atom  34C    basis set group =>   1
Atom  35C    basis set group =>   1
Atom  36C    basis set group =>   1
Atom  37C    basis set group =>   1
Atom  38C    basis set group =>   1
Atom  39S    basis set group =>   5
Atom  40C    basis set group =>   1
Atom  41S    basis set group =>   5
Atom  42C    basis set group =>   1
Atom  43C    basis set group =>   1
Atom  44C    basis set group =>   1
Atom  45C    basis set group =>   1
Atom  46C    basis set group =>   1
Atom  47C    basis set group =>   1
Atom  48C    basis set group =>   1
Atom  49C    basis set group =>   1
Atom  50C    basis set group =>   1
Atom  51C    basis set group =>   1
Atom  52C    basis set group =>   1
Atom  53C    basis set group =>   1
Atom  54C    basis set group =>   1
Atom  55C    basis set group =>   1
Atom  56C    basis set group =>   1
Atom  57S    basis set group =>   5
Atom  58C    basis set group =>   1
Atom  59S    basis set group =>   5
Atom  60C    basis set group =>   1
Atom  61C    basis set group =>   1
Atom  62C    basis set group =>   1
Atom  63C    basis set group =>   1
Atom  64O    basis set group =>   2
Atom  65C    basis set group =>   1
Atom  66C    basis set group =>   1
Atom  67C    basis set group =>   1
Atom  68C    basis set group =>   1
Atom  69C    basis set group =>   1
Atom  70C    basis set group =>   1
Atom  71C    basis set group =>   1
Atom  72C    basis set group =>   1
Atom  73C    basis set group =>   1
Atom  74C    basis set group =>   1
Atom  75C    basis set group =>   1
Atom  76C    basis set group =>   1
Atom  77C    basis set group =>   1
Atom  78C    basis set group =>   1
Atom  79C    basis set group =>   1
Atom  80C    basis set group =>   1
Atom  81C    basis set group =>   1
Atom  82C    basis set group =>   1
Atom  83H    basis set group =>   6
Atom  84H    basis set group =>   6
Atom  85H    basis set group =>   6
Atom  86H    basis set group =>   6
Atom  87H    basis set group =>   6
Atom  88H    basis set group =>   6
Atom  89H    basis set group =>   6
Atom  90H    basis set group =>   6
Atom  91H    basis set group =>   6
Atom  92H    basis set group =>   6
Atom  93H    basis set group =>   6
Atom  94H    basis set group =>   6
Atom  95H    basis set group =>   6
Atom  96H    basis set group =>   6
Atom  97H    basis set group =>   6
Atom  98H    basis set group =>   6
Atom  99H    basis set group =>   6
Atom 100H    basis set group =>   6
Atom 101H    basis set group =>   6
Atom 102H    basis set group =>   6
Atom 103H    basis set group =>   6
Atom 104H    basis set group =>   6
Atom 105H    basis set group =>   6
Atom 106H    basis set group =>   6
Atom 107H    basis set group =>   6
Atom 108H    basis set group =>   6
Atom 109H    basis set group =>   6
Atom 110H    basis set group =>   6
Atom 111H    basis set group =>   6
Atom 112H    basis set group =>   6
Atom 113H    basis set group =>   6
Atom 114H    basis set group =>   6
Atom 115H    basis set group =>   6
Atom 116H    basis set group =>   6
Atom 117H    basis set group =>   6
Atom 118H    basis set group =>   6
Atom 119H    basis set group =>   6
Atom 120H    basis set group =>   6
Atom 121H    basis set group =>   6
Atom 122H    basis set group =>   6
Atom 123H    basis set group =>   6
Atom 124H    basis set group =>   6
Atom 125H    basis set group =>   6
Atom 126H    basis set group =>   6
Atom 127H    basis set group =>   6
Atom 128H    basis set group =>   6
Atom 129H    basis set group =>   6
Atom 130H    basis set group =>   6
Atom 131H    basis set group =>   6
Atom 132H    basis set group =>   6
Atom 133H    basis set group =>   6
Atom 134H    basis set group =>   6
Atom 135H    basis set group =>   6
Atom 136H    basis set group =>   6


           ************************************************************
           *        Program running with 6 parallel MPI-processes     *
           *              working on a common directory               *
           ************************************************************
------------------------------------------------------------------------------
                           ORCA GTO INTEGRAL CALCULATION
                           -- RI-GTO INTEGRALS CHOSEN --
------------------------------------------------------------------------------

                         BASIS SET STATISTICS AND STARTUP INFO

Gaussian basis set:
 # of primitive gaussian shells          ... 2012
 # of primitive gaussian functions       ... 4318
 # of contracted shells                  ... 1137
 # of contracted basis functions         ... 2921
 Highest angular momentum                ...    3
 Maximum contraction depth               ...    7
Auxiliary gaussian basis set:
 # of primitive gaussian shells          ... 2436
 # of primitive gaussian functions       ... 6702
 # of contracted shells                  ... 1523
 # of contracted aux-basis functions     ... 4669
 Highest angular momentum                ...    4
 Maximum contraction depth               ...    7
Ratio of auxiliary to basis functions    ...  1.60
Integral package used                  ... LIBINT
 One Electron integrals                  ... done
 Ordering auxiliary basis shells         ... done
 Integral threshhold             Thresh  ...  2.500e-11
 Primitive cut-off               TCut    ...  2.500e-12
 Pre-screening matrix                    ... done
 Shell pair data                         ... 
 Ordering of the shell pairs             ... done (   0.040 sec) 186182 of 646953 pairs
 Determination of significant pairs      ... done (   0.001 sec)
 Creation of shell pair data             ... done (   0.019 sec)
 Storage of shell pair data              ... done (   2.822 sec)
 Shell pair data done in (   2.882 sec)
 Computing two index integrals           ... done
 Cholesky decomposition of the V-matrix  ... done


Timings:
 Total evaluation time                   ...  15.667 sec (  0.261 min)
 One electron matrix time                ...   5.677 sec (  0.095 min) = 36.2%
 Schwartz matrix evaluation time         ...   4.463 sec (  0.074 min) = 28.5%
 Two index repulsion integral time       ...   0.832 sec (  0.014 min) =  5.3%
 Cholesky decomposition of V             ...   1.796 sec (  0.030 min) = 11.5%
 Three index repulsion integral time     ...   0.000 sec (  0.000 min) =  0.0%



           ************************************************************
           *        Program running with 6 parallel MPI-processes     *
           *              working on a common directory               *
           ************************************************************
-------------------------------------------------------------------------------
                                 ORCA SCF
-------------------------------------------------------------------------------

------------
SCF SETTINGS
------------
Hamiltonian:
 Density Functional     Method          .... DFT(GTOs)
 Exchange Functional    Exchange        .... B88
   X-Alpha parameter    XAlpha          ....  0.666667
   Becke's b parameter  XBeta           ....  0.004200
 Correlation Functional Correlation     .... LYP
 LDA part of GGA corr.  LDAOpt          .... VWN-5
 Gradients option       PostSCFGGA      .... off
 Hybrid DFT is turned on
   Fraction HF Exchange ScalHFX         ....  0.200000
   Scaling of DF-GGA-X  ScalDFX         ....  0.720000
   Scaling of DF-GGA-C  ScalDFC         ....  0.810000
   Scaling of DF-LDA-C  ScalLDAC        ....  1.000000
   Perturbative correction              ....  0.000000
   Density functional embedding theory  .... OFF
   NL short-range parameter             ....  4.800000
 RI-approximation to the Coulomb term is turned on
   Number of auxiliary basis functions  .... 4669
   RIJ-COSX (HFX calculated with COS-X)).... on


General Settings:
 Integral files         IntName         .... o-IO1
 Hartree-Fock type      HFTyp           .... RHF
 Total Charge           Charge          ....    0
 Multiplicity           Mult            ....    1
 Number of Electrons    NEL             ....  614
 Basis Dimension        Dim             .... 2921
 Nuclear Repulsion      ENuc            ....  13288.2132298802 Eh

Convergence Acceleration:
 DIIS                   CNVDIIS         .... on
   Start iteration      DIISMaxIt       ....    12
   Startup error        DIISStart       ....  0.200000
   # of expansion vecs  DIISMaxEq       ....     5
   Bias factor          DIISBfac        ....   1.050
   Max. coefficient     DIISMaxC        ....  10.000
 Newton-Raphson         CNVNR           .... off
 SOSCF                  CNVSOSCF        .... on
   Start iteration      SOSCFMaxIt      ....   150
   Startup grad/error   SOSCFStart      ....  0.003300
 Level Shifting         CNVShift        .... on
   Level shift para.    LevelShift      ....    0.2500
   Turn off err/grad.   ShiftErr        ....    0.0010
 Zerner damping         CNVZerner       .... off
 Static damping         CNVDamp         .... on
   Fraction old density DampFac         ....    0.7000
   Max. Damping (<1)    DampMax         ....    0.9800
   Min. Damping (>=0)   DampMin         ....    0.0000
   Turn off err/grad.   DampErr         ....    0.1000
 Fernandez-Rico         CNVRico         .... off

SCF Procedure:
 Maximum # iterations   MaxIter         ....   125
 SCF integral mode      SCFMode         .... Direct
   Integral package                     .... LIBINT
 Reset frequency        DirectResetFreq ....    20
 Integral Threshold     Thresh          ....  2.500e-11 Eh
 Primitive CutOff       TCut            ....  2.500e-12 Eh

Convergence Tolerance:
 Convergence Check Mode ConvCheckMode   .... Total+1el-Energy
 Convergence forced     ConvForced      .... 1
 Energy Change          TolE            ....  1.000e-08 Eh
 1-El. energy change                    ....  1.000e-05 Eh
 Orbital Gradient       TolG            ....  1.000e-05
 Orbital Rotation angle TolX            ....  1.000e-05
 DIIS Error             TolErr          ....  5.000e-07


Diagonalization of the overlap matrix:
Smallest eigenvalue                        ... 2.858e-06
Time for diagonalization                   ...    6.503 sec
Threshold for overlap eigenvalues          ... 1.000e-08
Number of eigenvalues below threshold      ... 0
Time for construction of square roots      ...    3.010 sec
Total time needed                          ...    9.531 sec

-------------------
DFT GRID GENERATION
-------------------

General Integration Accuracy     IntAcc      ...  4.670
Radial Grid Type                 RadialGrid  ... Gauss-Chebyshev
Angular Grid (max. acc.)         AngularGrid ... Lebedev-302
Angular grid pruning method      GridPruning ... 3 (G Style)
Weight generation scheme         WeightScheme... Becke
Basis function cutoff            BFCut       ...    1.0000e-11
Integration weight cutoff        WCut        ...    1.0000e-14
Grids for H and He will be reduced by one unit

# of grid points (after initial pruning)     ... 701648 (   0.0 sec)
# of grid points (after weights+screening)   ... 591756 (  14.1 sec)
nearest neighbour list constructed           ...    0.0 sec
Grid point re-assignment to atoms done       ...    0.1 sec
Grid point division into batches done        ...    1.9 sec
Reduced shell lists constructed in    3.9 sec

Total number of grid points                  ...   591756
Total number of batches                      ...     9317
Average number of points per batch           ...       63
Average number of grid points per atom       ...     4319
Average number of shells per batch           ...   131.19 (11.54%)
Average number of basis functions per batch  ...   342.36 (11.72%)
Average number of large shells per batch     ...    83.26 (63.46%)
Average number of large basis fcns per batch ...   221.58 (64.72%)
Maximum spatial batch extension              ...  18.17, 30.98, 18.71 au
Average spatial batch extension              ...   0.38,  0.41,  0.36 au

Time for grid setup =   23.112 sec

------------------------------
INITIAL GUESS: MODEL POTENTIAL
------------------------------
Loading Hartree-Fock densities                     ... done
Calculating cut-offs                               ... done
Setting up the integral package                    ... done
Initializing the effective Hamiltonian             ... done
Starting the Coulomb interaction                   ... done (   6.8 sec)
Reading the grid                                   ... done
Mapping shells                                     ... done
Starting the XC term evaluation                    ... done (  10.6 sec)
  promolecular density results
     # of electrons  =    613.974058359
     EX              =   -556.819751981
     EC              =    -21.481057552
     EX+EC           =   -578.300809533
Transforming the Hamiltonian                       ... done (   1.3 sec)
Diagonalizing the Hamiltonian                      ... done (   3.4 sec)
Back transforming the eigenvectors                 ... done (   2.0 sec)
Now organizing SCF variables                       ... done
                      ------------------
                      INITIAL GUESS DONE (  48.1 sec)
                      ------------------
--------------------
COSX GRID GENERATION
--------------------

General Integration Accuracy     IntAcc      ...  3.340
Radial Grid Type                 RadialGrid  ... Gauss-Chebyshev
Angular Grid (max. acc.)         AngularGrid ... Lebedev-50
Angular grid pruning method      GridPruning ... 3 (G Style)
Weight generation scheme         WeightScheme... Becke
Basis function cutoff            BFCut       ...    1.0000e-11
Integration weight cutoff        WCut        ...    1.0000e-14
Grids for H and He will be reduced by one unit

# of grid points (after initial pruning)     ...  65868 (   0.0 sec)
# of grid points (after weights+screening)   ...  58041 (   1.1 sec)
nearest neighbour list constructed           ...    0.0 sec
Grid point re-assignment to atoms done       ...    0.0 sec
Grid point division into batches done        ...    0.0 sec
Reduced shell lists constructed in    0.3 sec

Total number of grid points                  ...    58041
Total number of batches                      ...      982
Average number of points per batch           ...       59
Average number of grid points per atom       ...      424
Average number of shells per batch           ...   159.99 (14.07%)
Average number of basis functions per batch  ...   421.20 (14.42%)
Average number of large shells per batch     ...   102.29 (63.94%)
Average number of large basis fcns per batch ...   276.93 (65.75%)
Maximum spatial batch extension              ...  17.24, 21.95, 18.82 au
Average spatial batch extension              ...   0.77,  0.96,  0.66 au

Overlap Fitting                  UseSFitting ... on
Constructing numerical overlap ... done (      0.7 sec)
Inverting numerical overlap    ... done (      0.7 sec)
Obtaining analytic overlap     ... done (      0.0 sec)
Final contraction and storage  ... done (      1.2 sec)


General Integration Accuracy     IntAcc      ...  3.670
Radial Grid Type                 RadialGrid  ... Gauss-Chebyshev
Angular Grid (max. acc.)         AngularGrid ... Lebedev-50
Angular grid pruning method      GridPruning ... 3 (G Style)
Weight generation scheme         WeightScheme... Becke
Basis function cutoff            BFCut       ...    1.0000e-11
Integration weight cutoff        WCut        ...    1.0000e-14
Grids for H and He will be reduced by one unit

# of grid points (after initial pruning)     ...  82870 (   0.0 sec)
# of grid points (after weights+screening)   ...  72682 (   1.4 sec)
nearest neighbour list constructed           ...    0.0 sec
Grid point re-assignment to atoms done       ...    0.0 sec
Grid point division into batches done        ...    0.0 sec
Reduced shell lists constructed in    0.4 sec

Total number of grid points                  ...    72682
Total number of batches                      ...     1211
Average number of points per batch           ...       60
Average number of grid points per atom       ...      531
Average number of shells per batch           ...   157.91 (13.89%)
Average number of basis functions per batch  ...   415.53 (14.23%)
Average number of large shells per batch     ...   100.73 (63.79%)
Average number of large basis fcns per batch ...   272.31 (65.53%)
Maximum spatial batch extension              ...  18.04, 23.90, 19.21 au
Average spatial batch extension              ...   0.73,  0.91,  0.63 au

Overlap Fitting                  UseSFitting ... on
Constructing numerical overlap ... done (      0.7 sec)
Inverting numerical overlap    ... done (      0.6 sec)
Obtaining analytic overlap     ... done (      0.0 sec)
Final contraction and storage  ... done (      1.1 sec)


General Integration Accuracy     IntAcc      ...  4.010
Radial Grid Type                 RadialGrid  ... Gauss-Chebyshev
Angular Grid (max. acc.)         AngularGrid ... Lebedev-110
Angular grid pruning method      GridPruning ... 3 (G Style)
Weight generation scheme         WeightScheme... Becke
Basis function cutoff            BFCut       ...    1.0000e-11
Integration weight cutoff        WCut        ...    1.0000e-14
Grids for H and He will be reduced by one unit

# of grid points (after initial pruning)     ... 158346 (   0.0 sec)
# of grid points (after weights+screening)   ... 137913 (   2.6 sec)
nearest neighbour list constructed           ...    0.0 sec
Grid point re-assignment to atoms done       ...    0.0 sec
Grid point division into batches done        ...    0.1 sec
Reduced shell lists constructed in    0.7 sec

Total number of grid points                  ...   137913
Total number of batches                      ...     2228
Average number of points per batch           ...       61
Average number of grid points per atom       ...     1007
Average number of shells per batch           ...   148.11 (13.03%)
Average number of basis functions per batch  ...   388.88 (13.31%)
Average number of large shells per batch     ...    94.71 (63.95%)
Average number of large basis fcns per batch ...   254.66 (65.49%)
Maximum spatial batch extension              ...  18.45, 35.65, 18.44 au
Average spatial batch extension              ...   0.61,  0.72,  0.55 au

Overlap Fitting                  UseSFitting ... on
Constructing numerical overlap ... done (      0.8 sec)
Inverting numerical overlap    ... done (      0.5 sec)
Obtaining analytic overlap     ... done (      0.0 sec)
Final contraction and storage  ... done (      1.2 sec)

Time for X-Grid setup             =   15.549 sec
--------------
SCF ITERATIONS
--------------
ITER       Energy         Delta-E        Max-DP      RMS-DP      [F,P]     Damp
               ***  Starting incremental Fock matrix formation  ***
  0  -5057.3323053557   0.000000000000 0.15627131  0.00075961  0.2993627 0.7000
  1  -5058.4098106366  -1.077505280880 0.14954778  0.00060372  0.1050819 0.7000
                               ***Turning on DIIS***
  2  -5058.7879141401  -0.378103503508 0.27107492  0.00080619  0.0440837 0.0000
  3  -5059.4057270651  -0.617812925018 0.16164600  0.00060313  0.0578849 0.0000
  4  -5059.5511887124  -0.145461647329 0.04712788  0.00017190  0.0368261 0.0000
  5  -5059.5659283327  -0.014739620245 0.01950378  0.00007835  0.0141206 0.0000
                      *** Initiating the SOSCF procedure ***
                           *** Shutting down DIIS ***
                      *** Re-Reading the Fockian *** 
                      *** Removing any level shift *** 
ITER      Energy       Delta-E        Grad      Rot      Max-DP    RMS-DP
  6  -5059.56748126  -0.0015529235  0.000802  0.000802  0.006760  0.000027
               *** Restarting incremental Fock matrix formation ***
  7  -5059.56761903  -0.0001377737  0.000513  0.007133  0.007950  0.000043
  8  -5059.56761549   0.0000035425  0.000472  0.001102  0.003163  0.000016
  9  -5059.56765127  -0.0000357855  0.000222  0.001399  0.002497  0.000015
 10  -5059.56764648   0.0000047926  0.000251  0.000609  0.000694  0.000003
 11  -5059.56765650  -0.0000100216  0.000118  0.001646  0.001005  0.000006
 12  -5059.56765442   0.0000020777  0.000155  0.000784  0.000453  0.000002
 13  -5059.56765767  -0.0000032498  0.000023  0.000183  0.000461  0.000002
 14  -5059.56765745   0.0000002212  0.000052  0.000068  0.000268  0.000001
 15  -5059.56765776  -0.0000003078  0.000011  0.000060  0.000511  0.000001
 16  -5059.56765765   0.0000001120  0.000020  0.000018  0.000382  0.000001
 17  -5059.56765775  -0.0000001031  0.000004  0.000035  0.000571  0.000001
 18  -5059.56765794  -0.0000001894  0.000005  0.000015  0.000352  0.000001
                  ***Gradient check signals convergence***
              ***Rediagonalizing the Fockian in SOSCF/NRSCF***

               *****************************************************
               *                     SUCCESS                       *
               *           SCF CONVERGED AFTER  19 CYCLES          *
               *****************************************************

Setting up the final grid:

General Integration Accuracy     IntAcc      ...  5.010
Radial Grid Type                 RadialGrid  ... Gauss-Chebyshev
Angular Grid (max. acc.)         AngularGrid ... Lebedev-434
Angular grid pruning method      GridPruning ... 3 (G Style)
Weight generation scheme         WeightScheme... Becke
Basis function cutoff            BFCut       ...    1.0000e-11
Integration weight cutoff        WCut        ...    1.0000e-14
Grids for H and He will be reduced by one unit

# of grid points (after initial pruning)     ... 1253950 (   0.1 sec)
# of grid points (after weights+screening)   ... 1053650 (  25.3 sec)
nearest neighbour list constructed           ...    0.0 sec
Grid point re-assignment to atoms done       ...    0.2 sec
Grid point division into batches done        ...    6.3 sec
Reduced shell lists constructed in    9.8 sec

Total number of grid points                  ...  1053650
Total number of batches                      ...    16535
Average number of points per batch           ...       63
Average number of grid points per atom       ...     7691
Average number of shells per batch           ...   127.65 (11.23%)
Average number of basis functions per batch  ...   332.66 (11.39%)
Average number of large shells per batch     ...    81.13 (63.55%)
Average number of large basis fcns per batch ...   215.81 (64.87%)
Maximum spatial batch extension              ...  21.24, 22.96, 18.19 au
Average spatial batch extension              ...   0.31,  0.33,  0.30 au

Final grid set up in   42.4 sec
Final integration                            ... done (  20.3 sec)
Change in XC energy                          ...     0.000010843
Integrated number of electrons               ...   613.999680483
Previous integrated no of electrons          ...   613.999998745
Old exchange energy                            =   -112.619781168 Eh
New exchange energy                            =   -112.621071753 Eh
Exchange energy change after final integration =     -0.001290585 Eh
Total energy after final integration           =  -5059.568937609 Eh
Final COS-X integration done in                =   540.610 sec

----------------
TOTAL SCF ENERGY
----------------

Total Energy       :        -5059.56893761 Eh         -137677.87020 eV

Components:
Nuclear Repulsion  :        13288.21322988 Eh          361590.66490 eV
Electronic Energy  :       -18347.78216749 Eh         -499268.53510 eV
[...]
Building the initial guess                     ... o.k.
Number of trial vectors determined             ...     15


                       ****Iteration    0****
                <<< Triplet sigma vectors requested >>>

   Memory handling for direct AO based CIS:
   Memory per vector needed      ...   253 MB
   Memory needed                 ...  2285 MB
   Memory available              ...  6000 MB
   Number of vectors per batch   ...    23
   Number of batches             ...     1
   Time for densities:    30.144
   Time for K (COSX):   452.146
   Time for XC-Integration:    15.860
   Time for Sigma-Completion:   221.401
   Size of expansion space: 9
   Lowest Energy          :     0.045232817079
   Maximum Energy change  :     0.071808484398 (vector 2)
   Maximum residual norm  :     0.000497743218

                       ****Iteration    1****
   Time for densities:    10.632
   Time for K (COSX):   534.394
   Time for XC-Integration:     6.619
   Time for Sigma-Completion:    79.538
   Size of expansion space: 12
   Lowest Energy          :     0.043010489834
   Maximum Energy change  :     0.003299294851 (vector 2)
   Maximum residual norm  :     0.000038732395

                       ****Iteration    2****
   Time for densities:    10.636
   Time for K (COSX):   529.153
   Time for XC-Integration:     7.545
   Time for Sigma-Completion:    77.097
   Size of expansion space: 15
   Lowest Energy          :     0.042906395835
   Maximum Energy change  :     0.000317794357 (vector 2)
   Maximum residual norm  :     0.000005125333
   Rebuilding the expansion space

                       ****Iteration    3****
   Time for densities:    19.668
   Time for K (COSX):   424.409
   Time for XC-Integration:     9.682
   Time for Sigma-Completion:    96.919
   Size of expansion space: 6
   Lowest Energy          :     0.042902095541
   Maximum Energy change  :     0.000039907560 (vector 2)
   Maximum residual norm  :     0.000000986564

                       ****Iteration    4****
   Time for densities:    10.638
   Time for K (COSX):   366.498
   Time for XC-Integration:     4.729
   Time for Sigma-Completion:    33.462
   Size of expansion space: 9
   Lowest Energy          :     0.042901754413
   Maximum Energy change  :     0.000014523300 (vector 2)
   Maximum residual norm  :     0.000000220042

      *** CONVERGENCE OF RESIDUAL NORM REACHED ***

Storing the converged CI vectors               ... o-IO1.cis3

                 *** DAVIDSON DONE ***

------------------------------------
TD-DFT/TDA EXCITED STATES (TRIPLETS)
------------------------------------

the weight of the individual excitations are printed if larger than 1.0e-02

STATE  1:  E=   0.042902 au      1.167 eV     9415.8 cm**-1
   305a -> 308a  :     0.081647 (c=  0.28574024)
   306a -> 307a  :     0.434144 (c=  0.65889583)
   306a -> 308a  :     0.435005 (c= -0.65954898)

STATE  2:  E=   0.049211 au      1.339 eV    10800.7 cm**-1
   304a -> 307a  :     0.020129 (c= -0.14187518)
   304a -> 308a  :     0.011807 (c= -0.10866062)
   305a -> 307a  :     0.208164 (c= -0.45625003)
   306a -> 307a  :     0.365850 (c= -0.60485527)
   306a -> 308a  :     0.358197 (c= -0.59849525)

STATE  3:  E=   0.068137 au      1.854 eV    14954.3 cm**-1
   302a -> 307a  :     0.019389 (c=  0.13924602)
   304a -> 307a  :     0.149048 (c=  0.38606708)
   304a -> 308a  :     0.019111 (c=  0.13824180)
   305a -> 307a  :     0.412179 (c=  0.64201191)
   305a -> 308a  :     0.063406 (c=  0.25180561)
   305a -> 309a  :     0.011233 (c= -0.10598818)
   306a -> 307a  :     0.128124 (c= -0.35794349)
   306a -> 308a  :     0.095910 (c= -0.30969300)
   306a -> 309a  :     0.012809 (c=  0.11317623)
   306a -> 310a  :     0.035910 (c= -0.18949979)

------------------------------
TD-DFT/TDA SPIN-ORBIT COUPLING
------------------------------

Calculating the spin-orbit integrals:             

Loading the effective charges         ... done
Entering the SOC calc. section        ... 
------------------------------------------------------------------------------
                         ORCA SPIN-ORBIT COUPLING CALCULATION
------------------------------------------------------------------------------

GBW file                                    ... o-IO1.gbw
Input density                               ... o-IO1.cisp0
Output integrals                            ... o-IO1.cis
Operator type                               ... Mean-field/Effective potential
   One-Electron Terms                       ... 1
   Coulomb Contribution                     ... 2
   Exchange Contribution                    ... 3
   Correlation Contribution                 ... 0
   Maximum number of centers                ... 4
Setting up the integration grid             ... done
Evaluating density on the grid              ... (NumEl=  613.999999) done
Evaluating Coulomb term semi-analytically   ... done
One-Center Exchange (+SOO)                  ... done
Evaluating the spin-orbit operator          ... done
Transforming the SOC integrals              ... done
Constructing the SOC matrix:                ... done
Diagonalizing the SOC matrix:               ... done

      --------------------------------------------------------------------------------
                      CALCULATED SOCME BETWEEN TRIPLETS AND SINGLETS                  
      --------------------------------------------------------------------------------
           Root                          <T|HSO|S>  (Re, Im) cm-1                     
         T      S             Z                     X                     Y           
      --------------------------------------------------------------------------------
         1      0    (   0.00 ,    1.38 )    (   0.00 ,    1.42 )    (  -0.00 ,   -0.90 )
         1      1    (   0.00 ,    0.33 )    (   0.00 ,   -0.99 )    (  -0.00 ,    0.00 )
         1      2    (   0.00 ,    0.47 )    (   0.00 ,    0.22 )    (  -0.00 ,   -0.26 )
         1      3    (   0.00 ,   -0.34 )    (   0.00 ,   -0.18 )    (  -0.00 ,    0.15 )
         2      0    (   0.00 ,   -2.63 )    (   0.00 ,    3.97 )    (  -0.00 ,    0.26 )
         2      1    (   0.00 ,    0.13 )    (   0.00 ,    0.58 )    (  -0.00 ,   -0.24 )
         2      2    (   0.00 ,   -0.36 )    (   0.00 ,    1.26 )    (  -0.00 ,   -0.06 )
         2      3    (   0.00 ,   -0.18 )    (   0.00 ,    0.46 )    (  -0.00 ,   -0.19 )
         3      0    (   0.00 ,   -0.03 )    (   0.00 ,   -0.05 )    (  -0.00 ,    0.03 )
         3      1    (   0.00 ,    0.10 )    (   0.00 ,   -0.30 )    (  -0.00 ,    0.12 )
         3      2    (   0.00 ,   -0.20 )    (   0.00 ,   -0.41 )    (  -0.00 ,    0.12 )
         3      3    (   0.00 ,   -0.16 )    (   0.00 ,   -0.17 )    (  -0.00 ,   -0.06 )

SOC stabilization of the ground state:  -0.0026 cm-1
Eigenvalues of the SOC matrix:

   State:        cm-1         eV
     0:          0.00         0.0000
     1:       9415.85         1.1674
     2:       9415.85         1.1674
     3:       9415.85         1.1674
     4:      10800.67         1.3391
     5:      10800.67         1.3391
     6:      10800.67         1.3391
     7:      12944.21         1.6049
     8:      14954.34         1.8541
     9:      14954.34         1.8541
    10:      14954.34         1.8541
    11:      15113.63         1.8739
    12:      17773.09         2.2036

The threshold for printing is 0.0100
Eigenvectors of the SOC matrix:

             E(cm-1)  Weight      Real         Imag     : Root  Spin  Ms
 STATE  0:      0.00
                      1.00000      0.50633     -0.86234 : 0     0     0
 STATE  1:   9415.85
                      0.33397      0.33935     -0.46777 : 1     1     0
                      0.33301     -0.51290     -0.26449 : 1     1    -1
                      0.33301     -0.41061     -0.40548 : 1     1     1
 STATE  2:   9415.85
                      0.13507      0.01904      0.36703 : 1     1     0
                      0.43246     -0.30772     -0.58118 : 1     1    -1
                      0.43246     -0.24594      0.60990 : 1     1     1
 STATE  3:   9415.85
                      0.53096     -0.06715      0.72557 : 1     1     0
                      0.23452     -0.34537      0.33947 : 1     1    -1
                      0.23452     -0.27720     -0.39709 : 1     1     1
 STATE  4:  10800.67
                      0.42524     -0.14898      0.63486 : 2     1     0
                      0.28738     -0.45860      0.27760 : 2     1    -1
                      0.28738     -0.28725     -0.45262 : 2     1     1
 STATE  5:  10800.67
                      0.21918      0.21177      0.41753 : 2     1     0
                      0.39041      0.61813     -0.09127 : 2     1    -1
                      0.39041      0.43880     -0.44482 : 2     1     1
 STATE  6:  10800.67
                      0.35558      0.05479     -0.59378 : 2     1     0
                      0.32221     -0.00586      0.56760 : 2     1    -1
                      0.32221      0.09811     -0.55909 : 2     1     1
 STATE  7:  12944.21
                      1.00000      0.37979     -0.92507 : 1     0     0
 STATE  8:  14954.34
                      0.13373      0.35543      0.08602 : 3     1     0
                      0.43313      0.58529      0.30093 : 3     1    -1
                      0.43313     -0.65813      0.00000 : 3     1     1
 STATE  9:  14954.34
                      0.73256     -0.69391      0.50105 : 3     1     0
                      0.13372      0.11504     -0.34711 : 3     1    -1
                      0.13372     -0.36568      0.00000 : 3     1     1
 STATE 10:  14954.34
                      0.13371      0.03012     -0.36442 : 3     1     0
                      0.43315     -0.64921     -0.10807 : 3     1    -1
                      0.43315     -0.65814      0.00000 : 3     1     1
 STATE 11:  15113.63
                      0.99999      0.26989     -0.96289 : 2     0     0
 STATE 12:  17773.09
                      1.00000      0.31762      0.94822 : 3     0     0

-----------------------------
TD-DFT/TDA-EXCITATION SPECTRA
-----------------------------

Center of mass = ( 21.1155, -2.4256, -6.3969)
Calculating the Dipole integrals                  ... done
Transforming integrals                            ... done
Calculating the Linear Momentum integrals         ... done
Transforming integrals                            ... done
Calculating angular momentum integrals            ... done
Transforming integrals                            ... done

-----------------------------------------------------------------------------
         ABSORPTION SPECTRUM VIA TRANSITION ELECTRIC DIPOLE MOMENTS
-----------------------------------------------------------------------------
State   Energy    Wavelength  fosc         T2        TX        TY        TZ  
        (cm-1)      (nm)                 (au**2)    (au)      (au)      (au) 
-----------------------------------------------------------------------------
   1   12944.2    772.5   1.503753045  38.24517  -5.25350  -0.63891   3.19964
   2   15113.6    661.7   1.132073420  24.65934   3.82405   0.78508  -3.06914
   3   17773.1    562.6   0.486970908   9.02019   2.71492   0.51698  -1.17563
   4    9415.8   1062.0   spin forbidden (mult=3)
   5   10800.7    925.9   spin forbidden (mult=3)
   6   14954.3    668.7   spin forbidden (mult=3)

-----------------------------------------------------------------------------
         ABSORPTION SPECTRUM VIA TRANSITION VELOCITY DIPOLE MOMENTS
-----------------------------------------------------------------------------
State   Energy    Wavelength   fosc        P2         PX        PY        PZ  
        (cm-1)      (nm)                 (au**2)     (au)      (au)      (au) 
-----------------------------------------------------------------------------
   1   12944.2    772.5   0.418707624   0.03704   0.15368   0.03603  -0.11013
   2   15113.6    661.7   0.336759902   0.03479  -0.16647  -0.02495   0.08031
   3   17773.1    562.6   0.205670163   0.02498  -0.11157  -0.00571   0.11181
   4    9415.8   1062.0   spin forbidden (mult=3)
   5   10800.7    925.9   spin forbidden (mult=3)
   6   14954.3    668.7   spin forbidden (mult=3)

-------------------------------------------------------------------
                             CD SPECTRUM
-------------------------------------------------------------------
State  Energy     Wavelength     R         MX        MY        MZ   
       (cm-1)       (nm)     (1e40*cgs)   (au)      (au)      (au)  
-------------------------------------------------------------------
   1   12944.2    772.5     97.58531   0.17207  -0.35275   0.27677
   2   15113.6    661.7     24.37018  -0.32310   0.41467  -0.31335
   3   17773.1    562.6     34.08313  -0.01714  -0.24185  -0.20744
   4    9415.8   1062.0 spin forbidden
   5   10800.7    925.9 spin forbidden
   6   14954.3    668.7 spin forbidden

-------------------------------------------
SOC CORRECTED TD-DFT/TDA-EXCITATION SPECTRA
--------------------------------------------

-----------------------------------------------------------------------------
  SOC CORRECTED ABSORPTION SPECTRUM VIA TRANSITION ELECTRIC DIPOLE MOMENTS*  
-----------------------------------------------------------------------------
State   Energy  Wavelength   fosc         T2         TX        TY        TZ  
        (cm-1)    (nm)                  (au**2)     (au)      (au)      (au) 
-----------------------------------------------------------------------------
   1    9415.8   1062.0   0.000000005   0.00000   0.00033   0.00005   0.00023
   2    9415.8   1062.0   0.000000016   0.00000   0.00060   0.00009   0.00044
   3    9415.8   1062.0   0.000000001   0.00000   0.00001   0.00005   0.00016
   4   10800.7    925.9   0.000000121   0.00000   0.00165   0.00017   0.00098
   5   10800.7    925.9   0.000000000   0.00000   0.00006   0.00000   0.00002
   6   10800.7    925.9   0.000000697   0.00002   0.00404   0.00041   0.00217
   7   12944.2    772.5   1.503753857  38.24518   5.25350   0.63891   3.19964
   8   14954.3    668.7   0.000010262   0.00023   0.01154   0.00238   0.00933
   9   14954.3    668.7   0.000000799   0.00002   0.00351   0.00055   0.00222
  10   14954.3    668.7   0.000000002   0.00000   0.00013   0.00001   0.00013
  11   15113.6    661.7   1.132061753  24.65908   3.82403   0.78508   3.06912
  12   17773.1    562.6   0.486970800   9.02019   2.71492   0.51698   1.17563

-----------------------------------------------------------------------------
  SOC CORRECTED ABSORPTION SPECTRUM VIA TRANSITION VELOCITY DIPOLE MOMENTS*  
-----------------------------------------------------------------------------
State   Energy  Wavelength   fosc         P2         PX        PY        PZ  
        (cm-1)    (nm)                  (au**2)     (au)      (au)      (au) 
-----------------------------------------------------------------------------
   1    9415.8   1062.0   0.000000008   0.00000   0.00002   0.00000   0.00001
   2    9415.8   1062.0   0.000000064   0.00000   0.00005   0.00001   0.00004
   3    9415.8   1062.0   0.000000011   0.00000   0.00002   0.00001   0.00001
   4   10800.7    925.9   0.000000012   0.00000   0.00002   0.00001   0.00002
   5   10800.7    925.9   0.000000000   0.00000   0.00000   0.00000   0.00000
   6   10800.7    925.9   0.000000012   0.00000   0.00003   0.00000   0.00001
   7   12944.2    772.5   0.418707444   0.03704   0.15368   0.03603   0.11013
   8   14954.3    668.7   0.000003340   0.00000   0.00052   0.00008   0.00026
   9   14954.3    668.7   0.000000073   0.00000   0.00008   0.00001   0.00004
  10   14954.3    668.7   0.000000001   0.00000   0.00001   0.00000   0.00000
  11   15113.6    661.7   0.336756287   0.03478   0.16647   0.02495   0.08031
  12   17773.1    562.6   0.205670087   0.02498   0.11157   0.00571   0.11181

-------------------------------------------------------------------
                    SOC CORRECTED CD SPECTRUM*                     
-------------------------------------------------------------------
State   Energy Wavelength       R         MX        MY        MZ   
        (cm-1)   (nm)       (1e40*sgs)   (au)      (au)      (au)  
-------------------------------------------------------------------
   1    9415.8   1062.0      0.00000   0.00001   0.00002   0.00003
   2    9415.8   1062.0      0.00001   0.00005   0.00008   0.00008
   3    9415.8   1062.0      0.00000   0.00004   0.00008   0.00004
   4   10800.7    925.9      0.00001   0.00001   0.00004   0.00003
   5   10800.7    925.9      0.00000   0.00001   0.00001   0.00000
   6   10800.7    925.9      0.00006   0.00006   0.00004   0.00005
   7   12944.2    772.5     97.58534   0.17207   0.35275   0.27677
   8   14954.3    668.7      0.00030   0.00097   0.00125   0.00095
   9   14954.3    668.7      0.00000   0.00008   0.00002   0.00013
  10   14954.3    668.7      0.00000   0.00001   0.00004   0.00001
  11   15113.6    661.7     24.36945   0.32310   0.41467   0.31334
  12   17773.1    562.6     34.08307   0.01714   0.24185   0.20744

*The X,Y and Z components are the absolute values of the complex numbers

Total run time:    22599.750 sec

           *** ORCA-CIS/TD-DFT FINISHED WITHOUT ERROR ***

---------------------------
SOC CIS/TD-DFT TOTAL ENERGY
---------------------------

    E(SCF)        =  -5059.568937609 Eh
    E(SOC CIS)    =      0.042901752 Eh (SOC Root  1)
    ----------------------------- ---------
    E(tot)        =  -5059.526035857 Eh


-------------------------   --------------------
FINAL SINGLE POINT ENERGY     -5059.526035857024
-------------------------   --------------------


                            ***************************************
                            *     ORCA property calculations      *
                            ***************************************

                                    ---------------------
                                    Active property flags
                                    ---------------------
   (+) Dipole Moment


------------------------------------------------------------------------------
                       ORCA ELECTRIC PROPERTIES CALCULATION
------------------------------------------------------------------------------

Dipole Moment Calculation                       ... on
Quadrupole Moment Calculation                   ... off
Polarizability Calculation                      ... off
GBWName                                         ... o-IO1.gbw
Electron density file                           ... o-IO1.scfp
The origin for moment calculation is the CENTER OF MASS  = (21.115501, -2.425594 -6.396873)

-------------
DIPOLE MOMENT
-------------
                                X             Y             Z
Electronic contribution:     26.96725       7.34505      57.00836
Nuclear contribution   :    -27.79690      -6.85838     -60.45457
                        -----------------------------------------
Total Dipole Moment    :     -0.82966       0.48667      -3.44622
                        -----------------------------------------
Magnitude (a.u.)       :      3.57793
Magnitude (Debye)      :      9.09438



--------------------
Rotational spectrum 
--------------------
 
Rotational constants in cm-1:     0.002289     0.000145     0.000141 
Rotational constants in MHz :    68.636322     4.339587     4.218613 

 Dipole components along the rotational axes: 
x,y,z [a.u.] :     1.150426    -3.204481     1.099735 
x,y,z [Debye]:     2.924149    -8.145143     2.795305 

 

Timings for individual modules:

Sum of individual times         ...    28305.908 sec (= 471.765 min)
GTO integral calculation        ...       18.591 sec (=   0.310 min)   0.1 %
SCF iterations                  ...     5685.209 sec (=  94.753 min)  20.1 %
CIS module                      ...    22602.108 sec (= 376.702 min)  79.8 %
                             ****ORCA TERMINATED NORMALLY****
TOTAL RUN TIME: 0 days 7 hours 51 minutes 48 seconds 256 msec
