
                                 *****************
                                 * O   R   C   A *
                                 *****************

           --- An Ab Initio, DFT and Semiempirical electronic structure package ---

                  #######################################################
                  #                        -***-                        #
                  #          Department of theory and spectroscopy      #
                  #               Directorship: Frank Neese             #
                  #        Max Planck Institute fuer Kohlenforschung    #
                  #                Kaiser Wilhelm Platz 1               #
                  #                 D-45470 Muelheim/Ruhr               #
                  #                      Germany                        #
                  #                                                     #
                  #                  All rights reserved                #
                  #                        -***-                        #
                  #######################################################


                         Program Version 4.2.0 -  RELEASE  -


 With contributions from (in alphabetic order):
   Daniel Aravena         : Magnetic Suceptibility
   Michael Atanasov       : Ab Initio Ligand Field Theory (pilot matlab implementation)
   Alexander A. Auer      : GIAO ZORA, VPT2
   Ute Becker             : Parallelization
   Giovanni Bistoni       : ED, misc. LED, open-shell LED, HFLED
   Martin Brehm           : Molecular dynamics
   Dmytro Bykov           : SCF Hessian
   Vijay G. Chilkuri      : MRCI spin determinant printing, contributions to CSF-ICE
   Dipayan Datta          : RHF DLPNO-CCSD density
   Achintya Kumar Dutta   : EOM-CC, STEOM-CC
   Dmitry Ganyushin       : Spin-Orbit,Spin-Spin,Magnetic field MRCI
   Miquel Garcia          : C-PCM Hessian, Gaussian charge scheme
   Yang Guo               : DLPNO-NEVPT2, CIM, IAO-localization
   Andreas Hansen         : Spin unrestricted coupled pair/coupled cluster methods
   Benjamin Helmich-Paris : CASSCF linear response (MC-RPA)
   Lee Huntington         : MR-EOM, pCC
   Robert Izsak           : Overlap fitted RIJCOSX, COSX-SCS-MP3, EOM
   Christian Kollmar      : KDIIS, OOCD, Brueckner-CCSD(T), CCSD density
   Simone Kossmann        : Meta GGA functionals, TD-DFT gradient, OOMP2, MP2 Hessian
   Martin Krupicka        : AUTO-CI
   Lucas Lang             : DCDCAS
   Dagmar Lenk            : GEPOL surface, SMD
   Dimitrios Liakos       : Extrapolation schemes; Compound Job, initial MDCI parallelization
   Dimitrios Manganas     : Further ROCIS development; embedding schemes
   Dimitrios Pantazis     : SARC Basis sets
   Taras Petrenko         : DFT Hessian,TD-DFT gradient, ASA, ECA, R-Raman, ABS, FL, XAS/XES, NRVS
   Peter Pinski           : DLPNO-MP2, DLPNO-MP2 Gradient
   Christoph Reimann      : Effective Core Potentials
   Marius Retegan         : Local ZFS, SOC
   Christoph Riplinger    : Optimizer, TS searches, QM/MM, DLPNO-CCSD(T), (RO)-DLPNO pert. Triples
   Tobias Risthaus        : Range-separated hybrids, TD-DFT gradient, RPA, STAB
   Michael Roemelt        : Original ROCIS implementation
   Masaaki Saitow         : Open-shell DLPNO-CCSD energy and density
   Barbara Sandhoefer     : DKH picture change effects
   Avijit Sen             : IP-ROCIS
   Kantharuban Sivalingam : CASSCF convergence, NEVPT2, FIC-MRCI
   Bernardo de Souza      : ESD, SOC TD-DFT
   Georgi Stoychev        : AutoAux, RI-MP2 NMR
   Willem Van den Heuvel  : Paramagnetic NMR
   Boris Wezisla          : Elementary symmetry handling
   Frank Wennmohs         : Technical directorship


 We gratefully acknowledge several colleagues who have allowed us to
 interface, adapt or use parts of their codes:
   Stefan Grimme, W. Hujo, H. Kruse,             : VdW corrections, initial TS optimization,
                  C. Bannwarth                     DFT functionals, gCP, sTDA/sTD-DF
   Ed Valeev, F. Pavosevic, A. Kumar             : LibInt (2-el integral package), F12 methods
   Garnet Chan, S. Sharma, J. Yang, R. Olivares  : DMRG
   Ulf Ekstrom                                   : XCFun DFT Library
   Mihaly Kallay                                 : mrcc  (arbitrary order and MRCC methods)
   Andreas Klamt, Michael Diedenhofen            : otool_cosmo (COSMO solvation model)
   Jiri Pittner, Ondrej Demel                    : Mk-CCSD
   Frank Weinhold                                : gennbo (NPA and NBO analysis)
   Christopher J. Cramer and Donald G. Truhlar   : smd solvation model
   Lars Goerigk                                  : TD-DFT with DH, B97 family of functionals
   V. Asgeirsson, H. Jonsson                     : NEB implementation
   FAccTs GmbH                                   : IRC, NEB, NEB-TS, Multilevel, MM, QM/MM, CI optimization
   S Lehtola, MJT Oliveira, MAL Marques          : LibXC Library


 Your calculation uses the libint2 library for the computation of 2-el integrals
 For citations please refer to: http://libint.valeyev.net

 Your ORCA version has been built with support for libXC version: 4.2.3
 For citations please refer to: https://tddft.org/programs/libxc/

 This ORCA versions uses:
   CBLAS   interface :  Fast vector & matrix operations
   LAPACKE interface :  Fast linear algebra routines
   SCALAPACK package :  Parallel linear algebra routines


----- Orbital basis set information -----
Your calculation utilizes the basis: def2-TZVP
   F. Weigend and R. Ahlrichs, Phys. Chem. Chem. Phys. 7, 3297 (2005).

----- AuxJ basis set information -----
Your calculation utilizes the auxiliary basis: def2/J
   F. Weigend, Phys. Chem. Chem. Phys. 8, 1057 (2006).

================================================================================
                                        WARNINGS
                       Please study these warnings very carefully!
================================================================================

INFO   : Checking CIS options ...

WARNING: (CIS/TDDFT): Spin-orbit needs TRIPLETS set to TRUE
  ===> : ajusting flags

WARNING: CIS/ROCIS methods need fully converged wavefunctions
  ===> : Setting SCFConvForced true
         You can overwrite this default with %scf ConvForced false 


INFO   : the flag for use of LIBINT has been found!

================================================================================
                                       INPUT FILE
================================================================================
NAME = PCBM.inp
|  1> # ORCA input file
|  2> # PCBM.out
|  3> ! B3LYP def2-TZVP def2/J RIJCOSX Grid4 TightSCF
|  4> 
|  5> %maxcore 2000
|  6> %tddft
|  7>   maxdim 5
|  8>   nroots 3
|  9>   dosoc true
| 10>   end
| 11> 
| 12> 
| 13> 
| 14> * xyz 0 1
| 15>    C        0.30559        -2.43478         1.23997
| 16>    C        0.71540        -2.31512        -0.12843
| 17>    C        1.48289        -1.06491        -0.28305
| 18>    C        1.27037        -0.33412         0.98111
| 19>    C        0.64873        -1.21707         1.92221
| 20>    C       -0.17297        -0.73013         2.93128
| 21>    C       -0.44010         0.67684         3.00241
| 22>    C        0.12795         1.52917         2.06123
| 23>    C        0.99600         1.01620         1.03496
| 24>    C        0.73618         1.77347        -0.18283
| 25>    C        0.76051         1.15709        -1.41614
| 26>    C        1.20016        -0.23852        -1.61125
| 27>    C        0.20131        -0.82253        -2.52668
| 28>    C       -0.35453        -2.07191        -2.33862
| 29>    C       -0.09312        -2.83049        -1.12074
| 30>    C       -1.30351        -3.52650        -0.77324
| 31>    C       -2.30619        -3.21484        -1.75864
| 32>    C       -1.72053        -2.31606        -2.71909
| 33>    C       -2.49439        -1.30163        -3.27224
| 34>    C       -1.92703         0.00438        -3.44170
| 35>    C       -0.61337         0.23359        -3.05111
| 36>    C       -0.26870         1.45095        -2.36876
| 37>    C       -1.24999         2.39752        -2.10052
| 38>    C       -1.26012         3.05771        -0.82771
| 39>    C       -0.28838         2.73906         0.11516
| 40>    C       -0.66187         2.59368         1.49841
| 41>    C       -1.98266         2.76578         1.88837
| 42>    C       -2.57182         1.87291         2.85528
| 43>    C       -1.81343         0.84782         3.40282
| 44>    C       -2.39323        -0.46138         3.57902
| 45>    C       -3.70740        -0.69635         3.19812
| 46>    C       -4.49377         0.36971         2.63089
| 47>    C       -3.93650         1.63060         2.46445
| 48>    C       -4.19465         2.37962         1.25918
| 49>    C       -2.98926         3.08414         0.90626
| 50>    C       -2.63363         3.22839        -0.42732
| 51>    C       -3.47226         2.67029        -1.45991
| 52>    C       -2.61481         2.15656        -2.49760
| 53>    C       -2.94728         0.98206        -3.15624
| 54>    C       -4.15095         0.27232        -2.80498
| 55>    C       -3.87053        -1.14083        -2.87777
| 56>    C       -4.43023        -2.00678        -1.94886
| 57>    C       -3.63395        -3.06717        -1.38267
| 58>    C       -4.01292        -3.21826         0.00025
| 59>    C       -5.03356        -2.24485         0.29110
| 60>    C       -5.29168        -1.49576        -0.91419
| 61>    C       -5.55922        -0.13516        -0.84202
| 62>    C       -4.97776         0.76576        -1.80482
| 63>    C       -4.63206         1.98712        -1.11980
| 64>    C       -5.00039         1.83968         0.26556
| 65>    C       -5.57495         0.52895         0.43718
| 66>    C       -5.32645        -0.19192         1.59708
| 67>    C       -5.05260        -1.60516         1.52333
| 68>    C       -4.05295        -1.91777         2.51311
| 69>    C       -3.07172        -2.85946         2.23411
| 70>    C       -3.05018        -3.52160         0.95266
| 71>    C       -1.67412        -3.68308         0.55808
| 72>    C       -0.84965        -3.12326         1.58920
| 73>    C       -1.70817        -2.61400         2.62945
| 74>    C       -1.37601        -1.43947         3.28828
| 75>    C        2.56334        -0.78185        -1.28512
| 76>    C        3.09186        -1.94100        -2.11065
| 77>    C        3.60142         0.21917        -0.88996
| 78>    C        4.23428         0.13767         0.34323
| 79>    C        5.20855         1.05749         0.68737
| 80>    C        5.55728         2.06446        -0.19624
| 81>    C        4.92939         2.14943        -1.42741
| 82>    C        3.95542         1.23052        -1.77355
| 83>    H        5.69644         0.98645         1.64797
| 84>    H        6.31818         2.78150         0.07347
| 85>    H        3.96257        -0.64680         1.03420
| 86>    H        3.46059         1.29742        -2.73213
| 87>    H        5.19873         2.93333        -2.11976
| 88>    C        3.94725        -2.88121        -1.26451
| 89>    H        3.68924        -1.53750        -2.93234
| 90>    H        2.25721        -2.49711        -2.54039
| 91>    H        3.35872        -3.25844        -0.42603
| 92>    C        4.45478        -4.06045        -2.08596
| 93>    H        4.79917        -2.33820        -0.85204
| 94>    H        5.04791        -3.71976        -2.93705
| 95>    H        3.62006        -4.64307        -2.48300
| 96>    C        5.31281        -4.98892        -1.25710
| 97>    O        5.51344        -4.89199        -0.07686
| 98>    O        5.83538        -5.95738        -2.02162
| 99>    C        6.66155        -6.90533        -1.35822
|100>    H        7.04757        -7.56491        -2.13081
|101>    H        6.07877        -7.47014        -0.62794
|102>    H        7.47817        -6.39897        -0.84003
|103> *
|104> 
|105>                          ****END OF INPUT****
================================================================================

                       ****************************
                       * Single Point Calculation *
                       ****************************

---------------------------------
CARTESIAN COORDINATES (ANGSTROEM)
---------------------------------
  C      0.305590   -2.434780    1.239970
  C      0.715400   -2.315120   -0.128430
  C      1.482890   -1.064910   -0.283050
  C      1.270370   -0.334120    0.981110
  C      0.648730   -1.217070    1.922210
  C     -0.172970   -0.730130    2.931280
  C     -0.440100    0.676840    3.002410
  C      0.127950    1.529170    2.061230
  C      0.996000    1.016200    1.034960
  C      0.736180    1.773470   -0.182830
  C      0.760510    1.157090   -1.416140
  C      1.200160   -0.238520   -1.611250
  C      0.201310   -0.822530   -2.526680
  C     -0.354530   -2.071910   -2.338620
  C     -0.093120   -2.830490   -1.120740
  C     -1.303510   -3.526500   -0.773240
  C     -2.306190   -3.214840   -1.758640
  C     -1.720530   -2.316060   -2.719090
  C     -2.494390   -1.301630   -3.272240
  C     -1.927030    0.004380   -3.441700
  C     -0.613370    0.233590   -3.051110
  C     -0.268700    1.450950   -2.368760
  C     -1.249990    2.397520   -2.100520
  C     -1.260120    3.057710   -0.827710
  C     -0.288380    2.739060    0.115160
  C     -0.661870    2.593680    1.498410
  C     -1.982660    2.765780    1.888370
  C     -2.571820    1.872910    2.855280
  C     -1.813430    0.847820    3.402820
  C     -2.393230   -0.461380    3.579020
  C     -3.707400   -0.696350    3.198120
  C     -4.493770    0.369710    2.630890
  C     -3.936500    1.630600    2.464450
  C     -4.194650    2.379620    1.259180
  C     -2.989260    3.084140    0.906260
  C     -2.633630    3.228390   -0.427320
  C     -3.472260    2.670290   -1.459910
  C     -2.614810    2.156560   -2.497600
  C     -2.947280    0.982060   -3.156240
  C     -4.150950    0.272320   -2.804980
  C     -3.870530   -1.140830   -2.877770
  C     -4.430230   -2.006780   -1.948860
  C     -3.633950   -3.067170   -1.382670
  C     -4.012920   -3.218260    0.000250
  C     -5.033560   -2.244850    0.291100
  C     -5.291680   -1.495760   -0.914190
  C     -5.559220   -0.135160   -0.842020
  C     -4.977760    0.765760   -1.804820
  C     -4.632060    1.987120   -1.119800
  C     -5.000390    1.839680    0.265560
  C     -5.574950    0.528950    0.437180
  C     -5.326450   -0.191920    1.597080
  C     -5.052600   -1.605160    1.523330
  C     -4.052950   -1.917770    2.513110
  C     -3.071720   -2.859460    2.234110
  C     -3.050180   -3.521600    0.952660
  C     -1.674120   -3.683080    0.558080
  C     -0.849650   -3.123260    1.589200
  C     -1.708170   -2.614000    2.629450
  C     -1.376010   -1.439470    3.288280
  C      2.563340   -0.781850   -1.285120
  C      3.091860   -1.941000   -2.110650
  C      3.601420    0.219170   -0.889960
  C      4.234280    0.137670    0.343230
  C      5.208550    1.057490    0.687370
  C      5.557280    2.064460   -0.196240
  C      4.929390    2.149430   -1.427410
  C      3.955420    1.230520   -1.773550
  H      5.696440    0.986450    1.647970
  H      6.318180    2.781500    0.073470
  H      3.962570   -0.646800    1.034200
  H      3.460590    1.297420   -2.732130
  H      5.198730    2.933330   -2.119760
  C      3.947250   -2.881210   -1.264510
  H      3.689240   -1.537500   -2.932340
  H      2.257210   -2.497110   -2.540390
  H      3.358720   -3.258440   -0.426030
  C      4.454780   -4.060450   -2.085960
  H      4.799170   -2.338200   -0.852040
  H      5.047910   -3.719760   -2.937050
  H      3.620060   -4.643070   -2.483000
  C      5.312810   -4.988920   -1.257100
  O      5.513440   -4.891990   -0.076860
  O      5.835380   -5.957380   -2.021620
  C      6.661550   -6.905330   -1.358220
  H      7.047570   -7.564910   -2.130810
  H      6.078770   -7.470140   -0.627940
  H      7.478170   -6.398970   -0.840030

----------------------------
CARTESIAN COORDINATES (A.U.)
----------------------------
  NO LB      ZA    FRAG     MASS         X           Y           Z
   0 C     6.0000    0    12.011    0.577481   -4.601067    2.343204
   1 C     6.0000    0    12.011    1.351910   -4.374943   -0.242698
   2 C     6.0000    0    12.011    2.802256   -2.012388   -0.534887
   3 C     6.0000    0    12.011    2.400651   -0.631395    1.854029
   4 C     6.0000    0    12.011    1.225922   -2.299929    3.632450
   5 C     6.0000    0    12.011   -0.326866   -1.379746    5.539316
   6 C     6.0000    0    12.011   -0.831668    1.279042    5.673733
   7 C     6.0000    0    12.011    0.241790    2.889713    3.895160
   8 C     6.0000    0    12.011    1.882167    1.920340    1.955791
   9 C     6.0000    0    12.011    1.391179    3.351373   -0.345499
  10 C     6.0000    0    12.011    1.437156    2.186583   -2.676117
  11 C     6.0000    0    12.011    2.267974   -0.450737   -3.044821
  12 C     6.0000    0    12.011    0.380421   -1.554356   -4.774733
  13 C     6.0000    0    12.011   -0.669965   -3.915342   -4.419351
  14 C     6.0000    0    12.011   -0.175971   -5.348851   -2.117892
  15 C     6.0000    0    12.011   -2.463277   -6.664119   -1.461212
  16 C     6.0000    0    12.011   -4.358068   -6.075167   -3.323348
  17 C     6.0000    0    12.011   -3.251331   -4.376719   -5.138335
  18 C     6.0000    0    12.011   -4.713714   -2.459724   -6.183637
  19 C     6.0000    0    12.011   -3.641559    0.008277   -6.503870
  20 C     6.0000    0    12.011   -1.159101    0.441421   -5.765762
  21 C     6.0000    0    12.011   -0.507769    2.741898   -4.476308
  22 C     6.0000    0    12.011   -2.362139    4.530656   -3.969408
  23 C     6.0000    0    12.011   -2.381282    5.778234   -1.564145
  24 C     6.0000    0    12.011   -0.544959    5.176073    0.217621
  25 C     6.0000    0    12.011   -1.250753    4.901345    2.831585
  26 C     6.0000    0    12.011   -3.746684    5.226567    3.568502
  27 C     6.0000    0    12.011   -4.860035    3.539287    5.395697
  28 C     6.0000    0    12.011   -3.426886    1.602148    6.430398
  29 C     6.0000    0    12.011   -4.522549   -0.871882    6.763368
  30 C     6.0000    0    12.011   -7.005971   -1.315911    6.043571
  31 C     6.0000    0    12.011   -8.491995    0.698651    4.971662
  32 C     6.0000    0    12.011   -7.438907    3.081387    4.657136
  33 C     6.0000    0    12.011   -7.926740    4.496830    2.379505
  34 C     6.0000    0    12.011   -5.648883    5.828180    1.712583
  35 C     6.0000    0    12.011   -4.976839    6.100773   -0.807518
  36 C     6.0000    0    12.011   -6.561620    5.046117   -2.758830
  37 C     6.0000    0    12.011   -4.941275    4.075308   -4.719780
  38 C     6.0000    0    12.011   -5.569552    1.855824   -5.964429
  39 C     6.0000    0    12.011   -7.844159    0.514610   -5.300644
  40 C     6.0000    0    12.011   -7.314242   -2.155856   -5.438197
  41 C     6.0000    0    12.011   -8.371921   -3.792265   -3.682812
  42 C     6.0000    0    12.011   -6.867170   -5.796111   -2.612868
  43 C     6.0000    0    12.011   -7.583320   -6.081630    0.000472
  44 C     6.0000    0    12.011   -9.512050   -4.242152    0.550099
  45 C     6.0000    0    12.011   -9.999826   -2.826577   -1.727569
  46 C     6.0000    0    12.011  -10.505403   -0.255415   -1.591187
  47 C     6.0000    0    12.011   -9.406603    1.447077   -3.410616
  48 C     6.0000    0    12.011   -8.753325    3.755113   -2.116115
  49 C     6.0000    0    12.011   -9.449368    3.476491    0.501836
  50 C     6.0000    0    12.011  -10.535129    0.999571    0.826150
  51 C     6.0000    0    12.011  -10.065532   -0.362676    3.018044
  52 C     6.0000    0    12.011   -9.548030   -3.033313    2.878677
  53 C     6.0000    0    12.011   -7.658966   -3.624060    4.749090
  54 C     6.0000    0    12.011   -5.804710   -5.403596    4.221856
  55 C     6.0000    0    12.011   -5.764005   -6.654860    1.800266
  56 C     6.0000    0    12.011   -3.163628   -6.960013    1.054618
  57 C     6.0000    0    12.011   -1.605606   -5.902106    3.003153
  58 C     6.0000    0    12.011   -3.227973   -4.939744    4.968940
  59 C     6.0000    0    12.011   -2.600282   -2.720204    6.213949
  60 C     6.0000    0    12.011    4.844011   -1.477482   -2.428525
  61 C     6.0000    0    12.011    5.842769   -3.667958   -3.988550
  62 C     6.0000    0    12.011    6.805697    0.414171   -1.681781
  63 C     6.0000    0    12.011    8.001630    0.260159    0.648611
  64 C     6.0000    0    12.011    9.842733    1.998366    1.298941
  65 C     6.0000    0    12.011   10.501737    3.901264   -0.370840
  66 C     6.0000    0    12.011    9.315197    4.061834   -2.697414
  67 C     6.0000    0    12.011    7.474661    2.325346   -3.351524
  68 H     1.0000    0     1.008   10.764712    1.864120    3.114212
  69 H     1.0000    0     1.008   11.939630    5.256273    0.138838
  70 H     1.0000    0     1.008    7.488172   -1.222275    1.954355
  71 H     1.0000    0     1.008    6.539567    2.451768   -5.162977
  72 H     1.0000    0     1.008    9.824176    5.543190   -4.005766
  73 C     6.0000    0    12.011    7.459221   -5.444698   -2.389578
  74 H     1.0000    0     1.008    6.971653   -2.905454   -5.541320
  75 H     1.0000    0     1.008    4.265509   -4.718854   -4.800641
  76 H     1.0000    0     1.008    6.347061   -6.157559   -0.805080
  77 C     6.0000    0    12.011    8.418314   -7.673138   -3.941893
  78 H     1.0000    0     1.008    9.069117   -4.418558   -1.610122
  79 H     1.0000    0     1.008    9.539167   -7.029328   -5.550220
  80 H     1.0000    0     1.008    6.840922   -8.774131   -4.692190
  81 C     6.0000    0    12.011   10.039756   -9.427693   -2.375575
  82 O     8.0000    0    15.999   10.418892   -9.244521   -0.145244
  83 O     8.0000    0    15.999   11.027270  -11.257817   -3.820308
  84 C     6.0000    0    12.011   12.588505  -13.049183   -2.566664
  85 H     1.0000    0     1.008   13.317977  -14.295608   -4.026647
  86 H     1.0000    0     1.008   11.487211  -14.116519   -1.186635
  87 H     1.0000    0     1.008   14.131693  -12.092301   -1.587427

--------------------------------
INTERNAL COORDINATES (ANGSTROEM)
--------------------------------
 C      0   0   0     0.000000000000     0.00000000     0.00000000
 C      1   0   0     1.433450840350     0.00000000     0.00000000
 C      2   1   0     1.475118059207   108.63616456     0.00000000
 C      3   2   1     1.475574220465   104.77426017   348.92309138
 C      4   3   2     1.432377814021   108.66908679    11.16041555
 C      5   4   3     1.389432876572   121.18384780   208.06527189
 C      6   5   4     1.433869762112   119.34637517     2.20368524
 C      7   6   5     1.391030921224   119.44543980   359.97126771
 C      4   3   2     1.378964401934   123.16710738   223.94247940
 C      9   4   3     1.457386966252   120.77414472     7.66839644
 C     10   9   4     1.378974187358   120.79246744   359.91944454
 C     11  10   9     1.476173196715   123.09684686   352.47164403
 C     12  11  10     1.475391842020   104.75024834   135.80848708
 C     13  12  11     1.380317011994   123.11861343   224.39901297
 C      2   1   3     1.379851428017   119.19690168   211.94351106
 C     15   2   1     1.438829427764   119.99380373   357.45517818
 C     16  15   2     1.439969547595   108.40888689   143.59941544
 C     14  13  12     1.438861578957   119.99066726   145.92415225
 C     18  14  13     1.390648211087   120.64359262   359.73418462
 C     19  18  14     1.433972168942   119.41976256   358.93798770
 C     20  19  18     1.389532427761   119.41084713     0.04458042
 C     11  10   9     1.432868377800   119.35789053   136.06595468
 C     22  11  10     1.389560191787   121.23905091     3.45696681
 C     23  22  11     1.433875430119   119.33964221   357.75126217
 C     24  23  22     1.390978176321   119.42568132     0.00000000
 C      8   7   6     1.440056778360   119.56464868   138.30525317
 C     26   8   7     1.387866505000   120.25216587   359.76899305
 C     27  26   8     1.441957451037   120.03067403   359.67222527
 C     28  27  26     1.387719334664   119.91291275     0.49138204
 C     29  28  27     1.442643102087   119.92791741   221.88696434
 C     30  29  28     1.388286173597   120.03512654     0.16176066
 C     31  30  29     1.441045305811   119.95695257   359.77928483
 C     32  31  30     1.388558863931   119.99621853     0.06191624
 C     33  32  31     1.442341206442   119.99305925   138.39323153
 C     34  33  32     1.440092361239   108.00091143   217.31993752
 C     35  34  33     1.387701832455   120.05753837   142.88110894
 C     36  35  34     1.442573393280   119.91287452   359.92865835
 C     37  36  35     1.440812115267   107.90880685   217.51395230
 C     38  37  36     1.387008724017   120.08459314   142.44269118
 C     39  38  37     1.440810856462   120.10636998     0.00000000
 C     19  18  14     1.440563959184   120.27118000   221.25324743
 C     41  19  18     1.387806643809   119.92708442   359.55661014
 C     17  16  15     1.387842385648   120.25308325   216.40338971
 C     43  17  16     1.441844019095   120.00925979     0.35386203
 C     44  43  17     1.440078734028   108.00894899   142.12708857
 C     42  41  19     1.440062343025   120.04924007   138.05651263
 C     46  42  41     1.388531065731   120.02159577   359.76290242
 C     40  39  38     1.388314746482   119.87304114   359.95853071
 C     37  36  35     1.388355898536   120.04372691   359.85387121
 C     34  33  32     1.388536227687   119.99289094     0.00000000
 C     50  34  33     1.441383276891   119.98116022   359.79701242
 C     51  50  34     1.388082784599   120.02547018     0.19957284
 C     45  44  43     1.388508765043   120.02404893   217.66338241
 C     53  45  44     1.441072372575   120.00525643   359.83433682
 C     54  53  45     1.388320340916   119.95981704   359.95262029
 C     44  43  17     1.387792589438   119.92063553   359.50216779
 C     16  15   2     1.390784674527   120.65170113     0.25031520
 C      1   2   3     1.389440808707   121.26550021   151.68504185
 C     55  54  53     1.440768173476   119.88050998   138.11016938
 C     59  55  54     1.387050091165   120.08180342     0.03534985
 C      3   2   1     1.500546384155   127.19314901   151.91031502
 C     61   3   2     1.518045418886   118.02168548   350.22801409
 C     61   3   2     1.495260028356   116.72355803   207.85679169
 C     63  61   3     1.388492565951   120.78721178    48.72573998
 C     64  63  61     1.383366619845   120.19321344   178.93993508
 C     65  64  63     1.384329377677   120.15161499     0.00000000
 C     66  65  64     1.384646280427   119.86441300   359.95181619
 C     67  66  65     1.383049546690   120.07279112     0.02576211
 H     65  64  63     1.079738715477   119.72294314   180.05621167
 H     66  65  64     1.079749348553   120.07543322   180.02554000
 H     64  63  61     1.080119921999   119.74481751   358.89364571
 H     68  67  66     1.080836692244   120.21497562   179.71694505
 H     67  66  65     1.079996188928   120.09677209   180.01762550
 C     62  61   3     1.526970790749   111.33716873   287.97754963
 H     62  61   3     1.093091748437   108.49331580   167.11803423
 H     62  61   3     1.091134923921   109.69584595    49.27488215
 H     74  62  61     1.091658712327   109.65654880    58.07015757
 C     74  62  61     1.524130499990   111.36374933   178.83952658
 H     74  62  61     1.091219064808   109.90099017   299.97410127
 H     78  74  62     1.091891506103   111.07426364    58.75612988
 H     78  74  62     1.092631824724   110.73330588   299.58063333
 C     78  74  62     1.511714563468   111.63531933   179.48925930
 O     82  78  74     1.201088789141   125.73365469     4.94016644
 O     82  78  74     1.339957091440   110.63580637   184.96904170
 C     84  82  78     1.421712218207   116.25087298   180.28903890
 H     85  84  82     1.086716395800   106.22278999   183.79328230
 H     85  84  82     1.091765424851   110.29601557    63.95580071
 H     85  84  82     1.091691142265   110.29848826   303.78653103

---------------------------
INTERNAL COORDINATES (A.U.)
---------------------------
 C      0   0   0     0.000000000000     0.00000000     0.00000000
 C      1   0   0     2.708829514701     0.00000000     0.00000000
 C      2   1   0     2.787569147104   108.63616456     0.00000000
 C      3   2   1     2.788431166953   104.77426017   348.92309138
 C      4   3   2     2.706801788805   108.66908679    11.16041555
 C      5   4   3     2.625647618188   121.18384780   208.06527189
 C      6   5   4     2.709621162103   119.34637517     2.20368524
 C      7   6   5     2.628667484929   119.44543980   359.97126771
 C      4   3   2     2.605865068081   123.16710738   223.94247940
 C      9   4   3     2.754062237362   120.77414472     7.66839644
 C     10   9   4     2.605883559853   120.79246744   359.91944454
 C     11  10   9     2.789563068027   123.09684686   352.47164403
 C     12  11  10     2.788086521640   104.75024834   135.80848708
 C     13  12  11     2.608421130661   123.11861343   224.39901297
 C      2   1   3     2.607541304452   119.19690168   211.94351106
 C     15   2   1     2.718993571901   119.99380373   357.45517818
 C     16  15   2     2.721148086140   108.40888689   143.59941544
 C     14  13  12     2.719054328851   119.99066726   145.92415225
 C     18  14  13     2.627944267582   120.64359262   359.73418462
 C     19  18  14     2.709814682965   119.41976256   358.93798770
 C     20  19  18     2.625835742671   119.41084713     0.04458042
 C     11  10   9     2.707728819999   119.35789053   136.06595468
 C     22  11  10     2.625888209077   121.23905091     3.45696681
 C     23  22  11     2.709631873084   119.33964221   357.75126217
 C     24  23  22     2.628567811507   119.42568132     0.00000000
 C      8   7   6     2.721312928397   119.56464868   138.30525317
 C     26   8   7     2.622687604892   120.25216587   359.76899305
 C     27  26   8     2.724904679226   120.03067403   359.67222527
 C     28  27  26     2.622409493262   119.91291275     0.49138204
 C     29  28  27     2.726200371936   119.92791741   221.88696434
 C     30  29  28     2.623480663607   120.03512654     0.16176066
 C     31  30  29     2.723180974556   119.95695257   359.77928483
 C     32  31  30     2.623995973657   119.99621853     0.06191624
 C     33  32  31     2.725629871845   119.99305925   138.39323153
 C     34  33  32     2.721380170294   108.00091143   217.31993752
 C     35  34  33     2.622376418881   120.05753837   142.88110894
 C     36  35  34     2.726068641381   119.91287452   359.92865835
 C     37  36  35     2.722740308290   107.90880685   217.51395230
 C     38  37  36     2.621066633752   120.08459314   142.44269118
 C     39  38  37     2.722737929495   120.10636998     0.00000000
 C     19  18  14     2.722271361255   120.27118000   221.25324743
 C     41  19  18     2.622574483635   119.92708442   359.55661014
 C     17  16  15     2.622642025922   120.25308325   216.40338971
 C     43  17  16     2.724690323922   120.00925979     0.35386203
 C     44  43  17     2.721354418597   108.00894899   142.12708857
 C     42  41  19     2.721323444091   120.04924007   138.05651263
 C     46  42  41     2.623943442673   120.02159577   359.76290242
 C     40  39  38     2.623534658536   119.87304114   359.95853071
 C     37  36  35     2.623612424647   120.04372691   359.85387121
 C     34  33  32     2.623953197357   119.99289094     0.00000000
 C     50  34  33     2.723819647337   119.98116022   359.79701242
 C     51  50  34     2.623096314103   120.02547018     0.19957284
 C     45  44  43     2.623901300480   120.02404893   217.66338241
 C     53  45  44     2.723232123328   120.00525643   359.83433682
 C     54  53  45     2.623545230483   119.95981704   359.95262029
 C     44  43  17     2.622547924724   119.92063553   359.50216779
 C     16  15   2     2.628202146111   120.65170113     0.25031520
 C      1   2   3     2.625662607750   121.26550021   151.68504185
 C     55  54  53     2.722657270339   119.88050998   138.11016938
 C     59  55  54     2.621144806332   120.08180342     0.03534985
 C      3   2   1     2.835621717298   127.19314901   151.91031502
 C     61   3   2     2.868690100548   118.02168548   350.22801409
 C     61   3   2     2.825631952593   116.72355803   207.85679169
 C     63  61   3     2.623870688632   120.78721178    48.72573998
 C     64  63  61     2.614184054314   120.19321344   178.93993508
 C     65  64  63     2.616003402951   120.15161499     0.00000000
 C     66  65  64     2.616602262360   119.86441300   359.95181619
 C     67  66  65     2.613584872888   120.07279112     0.02576211
 H     65  64  63     2.040410468444   119.72294314   180.05621167
 H     66  65  64     2.040430562045   120.07543322   180.02554000
 H     64  63  61     2.041130844371   119.74481751   358.89364571
 H     68  67  66     2.042485343834   120.21497562   179.71694505
 H     67  66  65     2.040897022753   120.09677209   180.01762550
 C     62  61   3     2.885556609012   111.33716873   287.97754963
 H     62  61   3     2.065644043794   108.49331580   167.11803423
 H     62  61   3     2.061946181368   109.69584595    49.27488215
 H     74  62  61     2.062935998008   109.65654880    58.07015757
 C     74  62  61     2.880189237338   111.36374933   178.83952658
 H     74  62  61     2.062105184600   109.90099017   299.97410127
 H     78  74  62     2.063375914490   111.07426364    58.75612988
 H     78  74  62     2.064774913935   110.73330588   299.58063333
 C     78  74  62     2.856726517614   111.63531933   179.48925930
 O     82  78  74     2.269728873999   125.73365469     4.94016644
 O     82  78  74     2.532151934027   110.63580637   184.96904170
 C     84  82  78     2.686646733662   116.25087298   180.28903890
 H     85  84  82     2.053596373303   106.22278999   183.79328230
 H     85  84  82     2.063137655453   110.29601557    63.95580071
 H     85  84  82     2.062997281709   110.29848826   303.78653103

---------------------
BASIS SET INFORMATION
---------------------
There are 3 groups of distinct atoms

 Group   1 Type C   : 11s6p2d1f contracted to 5s3p2d1f pattern {62111/411/11/1}
 Group   2 Type H   : 5s1p contracted to 3s1p pattern {311/1}
 Group   3 Type O   : 11s6p2d1f contracted to 5s3p2d1f pattern {62111/411/11/1}

Atom   0C    basis set group =>   1
Atom   1C    basis set group =>   1
Atom   2C    basis set group =>   1
Atom   3C    basis set group =>   1
Atom   4C    basis set group =>   1
Atom   5C    basis set group =>   1
Atom   6C    basis set group =>   1
Atom   7C    basis set group =>   1
Atom   8C    basis set group =>   1
Atom   9C    basis set group =>   1
Atom  10C    basis set group =>   1
Atom  11C    basis set group =>   1
Atom  12C    basis set group =>   1
Atom  13C    basis set group =>   1
Atom  14C    basis set group =>   1
Atom  15C    basis set group =>   1
Atom  16C    basis set group =>   1
Atom  17C    basis set group =>   1
Atom  18C    basis set group =>   1
Atom  19C    basis set group =>   1
Atom  20C    basis set group =>   1
Atom  21C    basis set group =>   1
Atom  22C    basis set group =>   1
Atom  23C    basis set group =>   1
Atom  24C    basis set group =>   1
Atom  25C    basis set group =>   1
Atom  26C    basis set group =>   1
Atom  27C    basis set group =>   1
Atom  28C    basis set group =>   1
Atom  29C    basis set group =>   1
Atom  30C    basis set group =>   1
Atom  31C    basis set group =>   1
Atom  32C    basis set group =>   1
Atom  33C    basis set group =>   1
Atom  34C    basis set group =>   1
Atom  35C    basis set group =>   1
Atom  36C    basis set group =>   1
Atom  37C    basis set group =>   1
Atom  38C    basis set group =>   1
Atom  39C    basis set group =>   1
Atom  40C    basis set group =>   1
Atom  41C    basis set group =>   1
Atom  42C    basis set group =>   1
Atom  43C    basis set group =>   1
Atom  44C    basis set group =>   1
Atom  45C    basis set group =>   1
Atom  46C    basis set group =>   1
Atom  47C    basis set group =>   1
Atom  48C    basis set group =>   1
Atom  49C    basis set group =>   1
Atom  50C    basis set group =>   1
Atom  51C    basis set group =>   1
Atom  52C    basis set group =>   1
Atom  53C    basis set group =>   1
Atom  54C    basis set group =>   1
Atom  55C    basis set group =>   1
Atom  56C    basis set group =>   1
Atom  57C    basis set group =>   1
Atom  58C    basis set group =>   1
Atom  59C    basis set group =>   1
Atom  60C    basis set group =>   1
Atom  61C    basis set group =>   1
Atom  62C    basis set group =>   1
Atom  63C    basis set group =>   1
Atom  64C    basis set group =>   1
Atom  65C    basis set group =>   1
Atom  66C    basis set group =>   1
Atom  67C    basis set group =>   1
Atom  68H    basis set group =>   2
Atom  69H    basis set group =>   2
Atom  70H    basis set group =>   2
Atom  71H    basis set group =>   2
Atom  72H    basis set group =>   2
Atom  73C    basis set group =>   1
Atom  74H    basis set group =>   2
Atom  75H    basis set group =>   2
Atom  76H    basis set group =>   2
Atom  77C    basis set group =>   1
Atom  78H    basis set group =>   2
Atom  79H    basis set group =>   2
Atom  80H    basis set group =>   2
Atom  81C    basis set group =>   1
Atom  82O    basis set group =>   3
Atom  83O    basis set group =>   3
Atom  84C    basis set group =>   1
Atom  85H    basis set group =>   2
Atom  86H    basis set group =>   2
Atom  87H    basis set group =>   2
---------------------------------
AUXILIARY/J BASIS SET INFORMATION
---------------------------------
There are 3 groups of distinct atoms

 Group   1 Type C   : 12s5p4d2f1g contracted to 6s4p3d1f1g pattern {711111/2111/211/2/1}
 Group   2 Type H   : 5s2p1d contracted to 3s1p1d pattern {311/2/1}
 Group   3 Type O   : 12s5p4d2f1g contracted to 6s4p3d1f1g pattern {711111/2111/211/2/1}

Atom   0C    basis set group =>   1
Atom   1C    basis set group =>   1
Atom   2C    basis set group =>   1
Atom   3C    basis set group =>   1
Atom   4C    basis set group =>   1
Atom   5C    basis set group =>   1
Atom   6C    basis set group =>   1
Atom   7C    basis set group =>   1
Atom   8C    basis set group =>   1
Atom   9C    basis set group =>   1
Atom  10C    basis set group =>   1
Atom  11C    basis set group =>   1
Atom  12C    basis set group =>   1
Atom  13C    basis set group =>   1
Atom  14C    basis set group =>   1
Atom  15C    basis set group =>   1
Atom  16C    basis set group =>   1
Atom  17C    basis set group =>   1
Atom  18C    basis set group =>   1
Atom  19C    basis set group =>   1
Atom  20C    basis set group =>   1
Atom  21C    basis set group =>   1
Atom  22C    basis set group =>   1
Atom  23C    basis set group =>   1
Atom  24C    basis set group =>   1
Atom  25C    basis set group =>   1
Atom  26C    basis set group =>   1
Atom  27C    basis set group =>   1
Atom  28C    basis set group =>   1
Atom  29C    basis set group =>   1
Atom  30C    basis set group =>   1
Atom  31C    basis set group =>   1
Atom  32C    basis set group =>   1
Atom  33C    basis set group =>   1
Atom  34C    basis set group =>   1
Atom  35C    basis set group =>   1
Atom  36C    basis set group =>   1
Atom  37C    basis set group =>   1
Atom  38C    basis set group =>   1
Atom  39C    basis set group =>   1
Atom  40C    basis set group =>   1
Atom  41C    basis set group =>   1
Atom  42C    basis set group =>   1
Atom  43C    basis set group =>   1
Atom  44C    basis set group =>   1
Atom  45C    basis set group =>   1
Atom  46C    basis set group =>   1
Atom  47C    basis set group =>   1
Atom  48C    basis set group =>   1
Atom  49C    basis set group =>   1
Atom  50C    basis set group =>   1
Atom  51C    basis set group =>   1
Atom  52C    basis set group =>   1
Atom  53C    basis set group =>   1
Atom  54C    basis set group =>   1
Atom  55C    basis set group =>   1
Atom  56C    basis set group =>   1
Atom  57C    basis set group =>   1
Atom  58C    basis set group =>   1
Atom  59C    basis set group =>   1
Atom  60C    basis set group =>   1
Atom  61C    basis set group =>   1
Atom  62C    basis set group =>   1
Atom  63C    basis set group =>   1
Atom  64C    basis set group =>   1
Atom  65C    basis set group =>   1
Atom  66C    basis set group =>   1
Atom  67C    basis set group =>   1
Atom  68H    basis set group =>   2
Atom  69H    basis set group =>   2
Atom  70H    basis set group =>   2
Atom  71H    basis set group =>   2
Atom  72H    basis set group =>   2
Atom  73C    basis set group =>   1
Atom  74H    basis set group =>   2
Atom  75H    basis set group =>   2
Atom  76H    basis set group =>   2
Atom  77C    basis set group =>   1
Atom  78H    basis set group =>   2
Atom  79H    basis set group =>   2
Atom  80H    basis set group =>   2
Atom  81C    basis set group =>   1
Atom  82O    basis set group =>   3
Atom  83O    basis set group =>   3
Atom  84C    basis set group =>   1
Atom  85H    basis set group =>   2
Atom  86H    basis set group =>   2
Atom  87H    basis set group =>   2
------------------------------------------------------------------------------
                           ORCA GTO INTEGRAL CALCULATION
                           -- RI-GTO INTEGRALS CHOSEN --
------------------------------------------------------------------------------

                         BASIS SET STATISTICS AND STARTUP INFO

Gaussian basis set:
 # of primitive gaussian shells          ... 1564
 # of primitive gaussian functions       ... 3516
 # of contracted shells                  ...  870
 # of contracted basis functions         ... 2378
 Highest angular momentum                ...    3
 Maximum contraction depth               ...    6
Auxiliary gaussian basis set:
 # of primitive gaussian shells          ... 1888
 # of primitive gaussian functions       ... 5404
 # of contracted shells                  ... 1180
 # of contracted aux-basis functions     ... 3780
 Highest angular momentum                ...    4
 Maximum contraction depth               ...    7
Ratio of auxiliary to basis functions    ...  1.59
Integral package used                  ... LIBINT
 One Electron integrals                  ... done
 Ordering auxiliary basis shells         ... done
 Integral threshhold             Thresh  ...  2.500e-11
 Primitive cut-off               TCut    ...  2.500e-12
 Pre-screening matrix                    ... done
 Shell pair data                         ... 
 Ordering of the shell pairs             ... done (   0.053 sec) 224710 of 378885 pairs
 Determination of significant pairs      ... done (   0.002 sec)
 Creation of shell pair data             ... done (   0.027 sec)
 Storage of shell pair data              ... done (   0.033 sec)
 Shell pair data done in (   0.115 sec)
 Computing two index integrals           ... done
 Cholesky decomposition of the V-matrix  ... done


Timings:
 Total evaluation time                   ...   7.660 sec (  0.128 min)
 One electron matrix time                ...   3.135 sec (  0.052 min) = 40.9%
 Schwartz matrix evaluation time         ...   3.536 sec (  0.059 min) = 46.2%
 Two index repulsion integral time       ...   0.344 sec (  0.006 min) =  4.5%
 Cholesky decomposition of V             ...   0.511 sec (  0.009 min) =  6.7%
 Three index repulsion integral time     ...   0.000 sec (  0.000 min) =  0.0%

-------------------------------------------------------------------------------
                                 ORCA SCF
-------------------------------------------------------------------------------

------------
SCF SETTINGS
------------
Hamiltonian:
 Density Functional     Method          .... DFT(GTOs)
 Exchange Functional    Exchange        .... B88
   X-Alpha parameter    XAlpha          ....  0.666667
   Becke's b parameter  XBeta           ....  0.004200
 Correlation Functional Correlation     .... LYP
 LDA part of GGA corr.  LDAOpt          .... VWN-5
 Gradients option       PostSCFGGA      .... off
 Hybrid DFT is turned on
   Fraction HF Exchange ScalHFX         ....  0.200000
   Scaling of DF-GGA-X  ScalDFX         ....  0.720000
   Scaling of DF-GGA-C  ScalDFC         ....  0.810000
   Scaling of DF-LDA-C  ScalLDAC        ....  1.000000
   Perturbative correction              ....  0.000000
   Density functional embedding theory  .... OFF
   NL short-range parameter             ....  4.800000
 RI-approximation to the Coulomb term is turned on
   Number of auxiliary basis functions  .... 3780
   RIJ-COSX (HFX calculated with COS-X)).... on


General Settings:
 Integral files         IntName         .... PCBM
 Hartree-Fock type      HFTyp           .... RHF
 Total Charge           Charge          ....    0
 Multiplicity           Mult            ....    1
 Number of Electrons    NEL             ....  462
 Basis Dimension        Dim             .... 2378
 Nuclear Repulsion      ENuc            ....  11811.4882091070 Eh

Convergence Acceleration:
 DIIS                   CNVDIIS         .... on
   Start iteration      DIISMaxIt       ....    12
   Startup error        DIISStart       ....  0.200000
   # of expansion vecs  DIISMaxEq       ....     5
   Bias factor          DIISBfac        ....   1.050
   Max. coefficient     DIISMaxC        ....  10.000
 Newton-Raphson         CNVNR           .... off
 SOSCF                  CNVSOSCF        .... on
   Start iteration      SOSCFMaxIt      ....   150
   Startup grad/error   SOSCFStart      ....  0.003300
 Level Shifting         CNVShift        .... on
   Level shift para.    LevelShift      ....    0.2500
   Turn off err/grad.   ShiftErr        ....    0.0010
 Zerner damping         CNVZerner       .... off
 Static damping         CNVDamp         .... on
   Fraction old density DampFac         ....    0.7000
   Max. Damping (<1)    DampMax         ....    0.9800
   Min. Damping (>=0)   DampMin         ....    0.0000
   Turn off err/grad.   DampErr         ....    0.1000
 Fernandez-Rico         CNVRico         .... off

SCF Procedure:
 Maximum # iterations   MaxIter         ....   125
 SCF integral mode      SCFMode         .... Direct
   Integral package                     .... LIBINT
 Reset frequency        DirectResetFreq ....    20
 Integral Threshold     Thresh          ....  2.500e-11 Eh
 Primitive CutOff       TCut            ....  2.500e-12 Eh

Convergence Tolerance:
 Convergence Check Mode ConvCheckMode   .... Total+1el-Energy
 Convergence forced     ConvForced      .... 1
 Energy Change          TolE            ....  1.000e-08 Eh
 1-El. energy change                    ....  1.000e-05 Eh
 Orbital Gradient       TolG            ....  1.000e-05
 Orbital Rotation angle TolX            ....  1.000e-05
 DIIS Error             TolErr          ....  5.000e-07


Diagonalization of the overlap matrix:
Smallest eigenvalue                        ... 9.313e-07
Time for diagonalization                   ...    3.433 sec
Threshold for overlap eigenvalues          ... 1.000e-08
Number of eigenvalues below threshold      ... 0
Time for construction of square roots      ...    1.008 sec
Total time needed                          ...    4.457 sec

-------------------
DFT GRID GENERATION
-------------------

General Integration Accuracy     IntAcc      ...  4.670
Radial Grid Type                 RadialGrid  ... Gauss-Chebyshev
Angular Grid (max. acc.)         AngularGrid ... Lebedev-302
Angular grid pruning method      GridPruning ... 3 (G Style)
Weight generation scheme         WeightScheme... Becke
Basis function cutoff            BFCut       ...    1.0000e-11
Integration weight cutoff        WCut        ...    1.0000e-14
Grids for H and He will be reduced by one unit

# of grid points (after initial pruning)     ... 507204 (   1.0 sec)
# of grid points (after weights+screening)   ... 410623 (  14.8 sec)
nearest neighbour list constructed           ...    0.0 sec
Grid point re-assignment to atoms done       ...    0.1 sec
Grid point division into batches done        ...    1.5 sec
Reduced shell lists constructed in   26.1 sec

Total number of grid points                  ...   410623
Total number of batches                      ...     6462
Average number of points per batch           ...       63
Average number of grid points per atom       ...     4666
Average number of shells per batch           ...   274.39 (31.54%)
Average number of basis functions per batch  ...   708.31 (29.79%)
Average number of large shells per batch     ...   160.35 (58.44%)
Average number of large basis fcns per batch ...   416.16 (58.75%)
Maximum spatial batch extension              ...  21.13, 22.91, 21.35 au
Average spatial batch extension              ...   2.02,  2.01,  2.03 au

Time for grid setup =   41.899 sec

------------------------------
INITIAL GUESS: MODEL POTENTIAL
------------------------------
Loading Hartree-Fock densities                     ... done
Calculating cut-offs                               ... done
Setting up the integral package                    ... done
Initializing the effective Hamiltonian             ... done
Starting the Coulomb interaction                   ... done (  44.0 sec)
Reading the grid                                   ... done
Mapping shells                                     ... done
Starting the XC term evaluation                    ... done (  63.4 sec)
  promolecular density results
     # of electrons  =    461.996006329
     EX              =   -391.883868584
     EC              =    -16.232466865
     EX+EC           =   -408.116335449
Transforming the Hamiltonian                       ... done (   1.0 sec)
Diagonalizing the Hamiltonian                      ... done (   3.2 sec)
Back transforming the eigenvectors                 ... done (   0.4 sec)
Now organizing SCF variables                       ... done
                      ------------------
                      INITIAL GUESS DONE ( 154.6 sec)
                      ------------------
--------------------
COSX GRID GENERATION
--------------------

General Integration Accuracy     IntAcc      ...  3.340
Radial Grid Type                 RadialGrid  ... Gauss-Chebyshev
Angular Grid (max. acc.)         AngularGrid ... Lebedev-50
Angular grid pruning method      GridPruning ... 3 (G Style)
Weight generation scheme         WeightScheme... Becke
Basis function cutoff            BFCut       ...    1.0000e-11
Integration weight cutoff        WCut        ...    1.0000e-14
Grids for H and He will be reduced by one unit

# of grid points (after initial pruning)     ...  47400 (   0.0 sec)
# of grid points (after weights+screening)   ...  40998 (   1.4 sec)
nearest neighbour list constructed           ...    0.0 sec
Grid point re-assignment to atoms done       ...    0.0 sec
Grid point division into batches done        ...    0.0 sec
Reduced shell lists constructed in    3.9 sec

Total number of grid points                  ...    40998
Total number of batches                      ...      677
Average number of points per batch           ...       60
Average number of grid points per atom       ...      466
Average number of shells per batch           ...   335.95 (38.61%)
Average number of basis functions per batch  ...   885.90 (37.25%)
Average number of large shells per batch     ...   196.49 (58.49%)
Average number of large basis fcns per batch ...   516.29 (58.28%)
Maximum spatial batch extension              ...  18.40, 17.85, 17.73 au
Average spatial batch extension              ...   4.05,  4.06,  3.99 au

Overlap Fitting                  UseSFitting ... on
Constructing numerical overlap ... done (      4.9 sec)
Inverting numerical overlap    ... done (      0.3 sec)
Obtaining analytic overlap     ... done (      0.0 sec)
Final contraction and storage  ... done (      0.5 sec)


General Integration Accuracy     IntAcc      ...  3.670
Radial Grid Type                 RadialGrid  ... Gauss-Chebyshev
Angular Grid (max. acc.)         AngularGrid ... Lebedev-50
Angular grid pruning method      GridPruning ... 3 (G Style)
Weight generation scheme         WeightScheme... Becke
Basis function cutoff            BFCut       ...    1.0000e-11
Integration weight cutoff        WCut        ...    1.0000e-14
Grids for H and He will be reduced by one unit

# of grid points (after initial pruning)     ...  58396 (   0.1 sec)
# of grid points (after weights+screening)   ...  50258 (   1.7 sec)
nearest neighbour list constructed           ...    0.0 sec
Grid point re-assignment to atoms done       ...    0.0 sec
Grid point division into batches done        ...    0.0 sec
Reduced shell lists constructed in    4.6 sec

Total number of grid points                  ...    50258
Total number of batches                      ...      826
Average number of points per batch           ...       60
Average number of grid points per atom       ...      571
Average number of shells per batch           ...   328.54 (37.76%)
Average number of basis functions per batch  ...   864.98 (36.37%)
Average number of large shells per batch     ...   192.03 (58.45%)
Average number of large basis fcns per batch ...   503.77 (58.24%)
Maximum spatial batch extension              ...  19.01, 19.77, 18.78 au
Average spatial batch extension              ...   3.80,  3.78,  3.80 au

Overlap Fitting                  UseSFitting ... on
Constructing numerical overlap ... done (      5.9 sec)
Inverting numerical overlap    ... done (      0.3 sec)
Obtaining analytic overlap     ... done (      0.0 sec)
Final contraction and storage  ... done (      0.5 sec)


General Integration Accuracy     IntAcc      ...  4.010
Radial Grid Type                 RadialGrid  ... Gauss-Chebyshev
Angular Grid (max. acc.)         AngularGrid ... Lebedev-110
Angular grid pruning method      GridPruning ... 3 (G Style)
Weight generation scheme         WeightScheme... Becke
Basis function cutoff            BFCut       ...    1.0000e-11
Integration weight cutoff        WCut        ...    1.0000e-14
Grids for H and He will be reduced by one unit

# of grid points (after initial pruning)     ... 117892 (   0.2 sec)
# of grid points (after weights+screening)   ...  99485 (   3.4 sec)
nearest neighbour list constructed           ...    0.0 sec
Grid point re-assignment to atoms done       ...    0.0 sec
Grid point division into batches done        ...    0.1 sec
Reduced shell lists constructed in    8.6 sec

Total number of grid points                  ...    99485
Total number of batches                      ...     1604
Average number of points per batch           ...       62
Average number of grid points per atom       ...     1131
Average number of shells per batch           ...   309.66 (35.59%)
Average number of basis functions per batch  ...   810.67 (34.09%)
Average number of large shells per batch     ...   182.59 (58.96%)
Average number of large basis fcns per batch ...   477.99 (58.96%)
Maximum spatial batch extension              ...  20.29, 20.08, 19.99 au
Average spatial batch extension              ...   3.17,  3.16,  3.19 au

Overlap Fitting                  UseSFitting ... on
Constructing numerical overlap ... done (     10.5 sec)
Inverting numerical overlap    ... done (      0.3 sec)
Obtaining analytic overlap     ... done (      0.0 sec)
Final contraction and storage  ... done (      0.5 sec)

Time for X-Grid setup             =   47.773 sec
--------------
SCF ITERATIONS
--------------
ITER       Energy         Delta-E        Max-DP      RMS-DP      [F,P]     Damp
               ***  Starting incremental Fock matrix formation  ***
  0  -2900.4846703566   0.000000000000 0.11382844  0.00084419  0.2975066 0.7000
  1  -2900.9491199637  -0.464449607100 0.11058319  0.00073256  0.1116479 0.7000
                               ***Turning on DIIS***
  2  -2901.1529480852  -0.203828121437 0.17571469  0.00148616  0.0333908 0.0000
  3  -2901.4976157186  -0.344667633404 0.11339287  0.00053891  0.0526986 0.0000
  4  -2901.5481957863  -0.050580067698 0.03369550  0.00015368  0.0276661 0.0000
                      *** Initiating the SOSCF procedure ***
                           *** Shutting down DIIS ***
                      *** Re-Reading the Fockian *** 
                      *** Removing any level shift *** 
ITER      Energy       Delta-E        Grad      Rot      Max-DP    RMS-DP
  5  -2901.55276377  -0.0045679794  0.001134  0.001134  0.009391  0.000060
               *** Restarting incremental Fock matrix formation ***
  6  -2901.55297823  -0.0002144622  0.001716  0.005427  0.045094  0.000315
  7  -2901.55279199   0.0001862331  0.004222  0.004122  0.005085  0.000023
  8  -2901.55303435  -0.0002423580  0.000127  0.000729  0.002409  0.000017
  9  -2901.55302584   0.0000085080  0.000237  0.000581  0.001074  0.000007
 10  -2901.55303639  -0.0000105478  0.000090  0.000281  0.001013  0.000006
 11  -2901.55303528   0.0000011079  0.000189  0.000189  0.000652  0.000003
 12  -2901.55303690  -0.0000016178  0.000013  0.000079  0.000817  0.000004
 13  -2901.55303645   0.0000004483  0.000033  0.000061  0.000372  0.000002
 14  -2901.55303669  -0.0000002392  0.000003  0.000012  0.002722  0.000008
 15  -2901.55303713  -0.0000004415  0.000005  0.000010  0.000611  0.000002
                  ***Gradient check signals convergence***
              ***Rediagonalizing the Fockian in SOSCF/NRSCF***

               *****************************************************
               *                     SUCCESS                       *
               *           SCF CONVERGED AFTER  16 CYCLES          *
               *****************************************************

Setting up the final grid:

General Integration Accuracy     IntAcc      ...  5.010
Radial Grid Type                 RadialGrid  ... Gauss-Chebyshev
Angular Grid (max. acc.)         AngularGrid ... Lebedev-434
Angular grid pruning method      GridPruning ... 3 (G Style)
Weight generation scheme         WeightScheme... Becke
Basis function cutoff            BFCut       ...    1.0000e-11
Integration weight cutoff        WCut        ...    1.0000e-14
Grids for H and He will be reduced by one unit

# of grid points (after initial pruning)     ... 885628 (   1.2 sec)
# of grid points (after weights+screening)   ... 714302 (  25.7 sec)
nearest neighbour list constructed           ...    0.0 sec
Grid point re-assignment to atoms done       ...    0.1 sec
Grid point division into batches done        ...    4.6 sec
Reduced shell lists constructed in   47.8 sec

Total number of grid points                  ...   714302
Total number of batches                      ...    11208
Average number of points per batch           ...       63
Average number of grid points per atom       ...     8117
Average number of shells per batch           ...   264.34 (30.38%)
Average number of basis functions per batch  ...   678.91 (28.55%)
Average number of large shells per batch     ...   154.03 (58.27%)
Average number of large basis fcns per batch ...   398.70 (58.73%)
Maximum spatial batch extension              ...  22.90, 22.63, 21.53 au
Average spatial batch extension              ...   1.64,  1.64,  1.64 au

Final grid set up in   74.6 sec
Final integration                            ... done ( 155.2 sec)
Change in XC energy                          ...     0.000159774
Integrated number of electrons               ...   462.001241450
Previous integrated no of electrons          ...   462.001519299
Old exchange energy                            =    -79.224762167 Eh
New exchange energy                            =    -79.224116786 Eh
Exchange energy change after final integration =      0.000645381 Eh
Total energy after final integration           =  -2901.552231330 Eh
Final COS-X integration done in                =  2699.668 sec

----------------
TOTAL SCF ENERGY
----------------

Total Energy       :        -2901.55223133 Eh          -78955.25022 eV

Components:
Nuclear Repulsion  :        11811.48820911 Eh          321406.93418 eV
Electronic Energy  :       -14713.04044044 Eh         -400362.18440 eV
One Electron Energy:       -27470.01477830 Eh         -747497.10414 eV
Two Electron Energy:        12756.97433786 Eh          347134.91973 eV

Virial components:
Potential Energy   :        -5791.89110114 Eh         -157605.36936 eV
Kinetic Energy     :         2890.33886981 Eh           78650.11914 eV
Virial Ratio       :            2.00387960


DFT components:
N(Alpha)           :      231.000620724764 electrons
N(Beta)            :      231.000620724764 electrons
N(Total)           :      462.001241449528 electrons
E(X)               :     -314.912174380876 Eh       
E(C)               :      -19.002095474084 Eh       
E(XC)              :     -333.914269854960 Eh       
DFET-embed. en.    :        0.000000000000 Eh       

---------------
SCF CONVERGENCE
---------------

  Last Energy change         ...    6.4988e-07  Tolerance :   1.0000e-08
  Last MAX-Density change    ...    2.3315e-15  Tolerance :   1.0000e-07
  Last RMS-Density change    ...    1.2033e-17  Tolerance :   5.0000e-09
  Last Orbital Gradient      ...    1.3626e-06  Tolerance :   1.0000e-05
  Last Orbital Rotation      ...    7.2304e-06  Tolerance :   1.0000e-05

             **** THE GBW FILE WAS UPDATED (PCBM.gbw) ****
             **** DENSITY FILE WAS UPDATED (PCBM.scfp) ****
             **** ENERGY FILE WAS UPDATED (PCBM.en.tmp) ****
             **** THE GBW FILE WAS UPDATED (PCBM.gbw) ****
             **** DENSITY FILE WAS UPDATED (PCBM.scfp) ****
----------------
ORBITAL ENERGIES
----------------

  NO   OCC          E(Eh)            E(eV) 
   0   2.0000     -19.175430      -521.7900 
   1   2.0000     -19.116175      -520.1776 
   2   2.0000     -10.300919      -280.3023 
   3   2.0000     -10.231586      -278.4156 
   4   2.0000     -10.231283      -278.4074 
   5   2.0000     -10.226818      -278.2859 
   6   2.0000     -10.226426      -278.2752 
   7   2.0000     -10.218089      -278.0483 
   8   2.0000     -10.217874      -278.0425 
   9   2.0000     -10.216085      -277.9938 
  10   2.0000     -10.216011      -277.9918 
  11   2.0000     -10.214558      -277.9522 
  12   2.0000     -10.214460      -277.9496 
  13   2.0000     -10.214121      -277.9404 
  14   2.0000     -10.213805      -277.9318 
  15   2.0000     -10.213787      -277.9313 
  16   2.0000     -10.213685      -277.9285 
  17   2.0000     -10.213678      -277.9283 
  18   2.0000     -10.213610      -277.9265 
  19   2.0000     -10.213589      -277.9259 
  20   2.0000     -10.213493      -277.9233 
  21   2.0000     -10.213413      -277.9211 
  22   2.0000     -10.213343      -277.9192 
  23   2.0000     -10.213279      -277.9175 
  24   2.0000     -10.213218      -277.9158 
  25   2.0000     -10.213101      -277.9126 
  26   2.0000     -10.213078      -277.9120 
  27   2.0000     -10.213017      -277.9103 
  28   2.0000     -10.212977      -277.9092 
  29   2.0000     -10.212891      -277.9069 
  30   2.0000     -10.212875      -277.9064 
  31   2.0000     -10.212819      -277.9049 
  32   2.0000     -10.212814      -277.9048 
  33   2.0000     -10.212741      -277.9028 
  34   2.0000     -10.212697      -277.9016 
  35   2.0000     -10.212609      -277.8992 
  36   2.0000     -10.212577      -277.8983 
  37   2.0000     -10.212539      -277.8973 
  38   2.0000     -10.212475      -277.8956 
  39   2.0000     -10.212450      -277.8949 
  40   2.0000     -10.212383      -277.8931 
  41   2.0000     -10.212331      -277.8916 
  42   2.0000     -10.212291      -277.8906 
  43   2.0000     -10.212265      -277.8899 
  44   2.0000     -10.212228      -277.8889 
  45   2.0000     -10.212134      -277.8863 
  46   2.0000     -10.212113      -277.8857 
  47   2.0000     -10.212062      -277.8843 
  48   2.0000     -10.212050      -277.8840 
  49   2.0000     -10.212010      -277.8829 
  50   2.0000     -10.211958      -277.8815 
  51   2.0000     -10.211952      -277.8813 
  52   2.0000     -10.211807      -277.8774 
  53   2.0000     -10.211566      -277.8708 
  54   2.0000     -10.211467      -277.8681 
  55   2.0000     -10.210922      -277.8533 
  56   2.0000     -10.210817      -277.8505 
  57   2.0000     -10.210702      -277.8473 
  58   2.0000     -10.210674      -277.8466 
  59   2.0000     -10.210177      -277.8330 
  60   2.0000     -10.210162      -277.8326 
  61   2.0000     -10.210025      -277.8289 
  62   2.0000     -10.209881      -277.8250 
  63   2.0000     -10.209282      -277.8087 
  64   2.0000     -10.209057      -277.8026 
  65   2.0000     -10.193373      -277.3758 
  66   2.0000     -10.189405      -277.2678 
  67   2.0000     -10.188109      -277.2325 
  68   2.0000     -10.182645      -277.0839 
  69   2.0000     -10.181489      -277.0524 
  70   2.0000     -10.180928      -277.0371 
  71   2.0000     -10.180212      -277.0177 
  72   2.0000     -10.179655      -277.0025 
  73   2.0000     -10.176681      -276.9216 
  74   2.0000      -1.116252       -30.3748 
  75   2.0000      -1.027086       -27.9484 
  76   2.0000      -0.979243       -26.6466 
  77   2.0000      -0.963487       -26.2178 
  78   2.0000      -0.957246       -26.0480 
  79   2.0000      -0.956434       -26.0259 
  80   2.0000      -0.931682       -25.3524 
  81   2.0000      -0.919598       -25.0235 
  82   2.0000      -0.918260       -24.9871 
  83   2.0000      -0.918192       -24.9853 
  84   2.0000      -0.917869       -24.9765 
  85   2.0000      -0.891183       -24.2503 
  86   2.0000      -0.879471       -23.9316 
  87   2.0000      -0.877929       -23.8897 
  88   2.0000      -0.874885       -23.8068 
  89   2.0000      -0.862153       -23.4604 
  90   2.0000      -0.846030       -23.0216 
  91   2.0000      -0.844837       -22.9892 
  92   2.0000      -0.844537       -22.9810 
  93   2.0000      -0.827695       -22.5227 
  94   2.0000      -0.811479       -22.0815 
  95   2.0000      -0.795860       -21.6564 
  96   2.0000      -0.795168       -21.6376 
  97   2.0000      -0.794562       -21.6211 
  98   2.0000      -0.794262       -21.6130 
  99   2.0000      -0.787048       -21.4167 
 100   2.0000      -0.777077       -21.1453 
 101   2.0000      -0.776868       -21.1396 
 102   2.0000      -0.776511       -21.1299 
 103   2.0000      -0.771371       -20.9901 
 104   2.0000      -0.759887       -20.6776 
 105   2.0000      -0.754931       -20.5427 
 106   2.0000      -0.739713       -20.1286 
 107   2.0000      -0.720763       -19.6130 
 108   2.0000      -0.720198       -19.5976 
 109   2.0000      -0.717665       -19.5287 
 110   2.0000      -0.717521       -19.5247 
 111   2.0000      -0.711882       -19.3713 
 112   2.0000      -0.709885       -19.3170 
 113   2.0000      -0.708464       -19.2783 
 114   2.0000      -0.706617       -19.2280 
 115   2.0000      -0.677999       -18.4493 
 116   2.0000      -0.666671       -18.1410 
 117   2.0000      -0.664864       -18.0919 
 118   2.0000      -0.653257       -17.7760 
 119   2.0000      -0.633927       -17.2500 
 120   2.0000      -0.628416       -17.1001 
 121   2.0000      -0.627355       -17.0712 
 122   2.0000      -0.627132       -17.0651 
 123   2.0000      -0.625601       -17.0235 
 124   2.0000      -0.624893       -17.0042 
 125   2.0000      -0.623206       -16.9583 
 126   2.0000      -0.622554       -16.9406 
 127   2.0000      -0.618734       -16.8366 
 128   2.0000      -0.613602       -16.6970 
 129   2.0000      -0.604724       -16.4554 
 130   2.0000      -0.571106       -15.5406 
 131   2.0000      -0.567741       -15.4490 
 132   2.0000      -0.562664       -15.3109 
 133   2.0000      -0.559300       -15.2193 
 134   2.0000      -0.558747       -15.2043 
 135   2.0000      -0.557881       -15.1807 
 136   2.0000      -0.542508       -14.7624 
 137   2.0000      -0.539394       -14.6777 
 138   2.0000      -0.532948       -14.5023 
 139   2.0000      -0.532130       -14.4800 
 140   2.0000      -0.531812       -14.4714 
 141   2.0000      -0.524460       -14.2713 
 142   2.0000      -0.520348       -14.1594 
 143   2.0000      -0.520063       -14.1516 
 144   2.0000      -0.516783       -14.0624 
 145   2.0000      -0.508855       -13.8467 
 146   2.0000      -0.506585       -13.7849 
 147   2.0000      -0.496506       -13.5106 
 148   2.0000      -0.493744       -13.4355 
 149   2.0000      -0.491597       -13.3770 
 150   2.0000      -0.489292       -13.3143 
 151   2.0000      -0.484823       -13.1927 
 152   2.0000      -0.481800       -13.1105 
 153   2.0000      -0.477670       -12.9981 
 154   2.0000      -0.471545       -12.8314 
 155   2.0000      -0.470815       -12.8115 
 156   2.0000      -0.468957       -12.7610 
 157   2.0000      -0.466275       -12.6880 
 158   2.0000      -0.465089       -12.6557 
 159   2.0000      -0.464178       -12.6309 
 160   2.0000      -0.464073       -12.6281 
 161   2.0000      -0.459032       -12.4909 
 162   2.0000      -0.456375       -12.4186 
 163   2.0000      -0.450780       -12.2663 
 164   2.0000      -0.450051       -12.2465 
 165   2.0000      -0.448183       -12.1957 
 166   2.0000      -0.447336       -12.1726 
 167   2.0000      -0.439777       -11.9669 
 168   2.0000      -0.439188       -11.9509 
 169   2.0000      -0.437329       -11.9003 
 170   2.0000      -0.434732       -11.8297 
 171   2.0000      -0.433500       -11.7961 
 172   2.0000      -0.431891       -11.7523 
 173   2.0000      -0.429228       -11.6799 
 174   2.0000      -0.427327       -11.6282 
 175   2.0000      -0.424809       -11.5596 
 176   2.0000      -0.424576       -11.5533 
 177   2.0000      -0.420723       -11.4485 
 178   2.0000      -0.419249       -11.4083 
 179   2.0000      -0.419163       -11.4060 
 180   2.0000      -0.418809       -11.3964 
 181   2.0000      -0.415641       -11.3102 
 182   2.0000      -0.410044       -11.1579 
 183   2.0000      -0.408687       -11.1209 
 184   2.0000      -0.404606       -11.0099 
 185   2.0000      -0.404129       -10.9969 
 186   2.0000      -0.403319       -10.9749 
 187   2.0000      -0.392765       -10.6877 
 188   2.0000      -0.383696       -10.4409 
 189   2.0000      -0.380791       -10.3619 
 190   2.0000      -0.376470       -10.2443 
 191   2.0000      -0.370763       -10.0890 
 192   2.0000      -0.368038       -10.0148 
 193   2.0000      -0.367481        -9.9997 
 194   2.0000      -0.364392        -9.9156 
 195   2.0000      -0.363851        -9.9009 
 196   2.0000      -0.363237        -9.8842 
 197   2.0000      -0.362499        -9.8641 
 198   2.0000      -0.361567        -9.8387 
 199   2.0000      -0.360595        -9.8123 
 200   2.0000      -0.357199        -9.7199 
 201   2.0000      -0.355085        -9.6624 
 202   2.0000      -0.354202        -9.6383 
 203   2.0000      -0.353782        -9.6269 
 204   2.0000      -0.350913        -9.5488 
 205   2.0000      -0.350072        -9.5260 
 206   2.0000      -0.349733        -9.5167 
 207   2.0000      -0.344134        -9.3644 
 208   2.0000      -0.343369        -9.3436 
 209   2.0000      -0.343111        -9.3365 
 210   2.0000      -0.340923        -9.2770 
 211   2.0000      -0.336452        -9.1553 
 212   2.0000      -0.324318        -8.8251 
 213   2.0000      -0.313782        -8.5385 
 214   2.0000      -0.289174        -7.8688 
 215   2.0000      -0.285545        -7.7701 
 216   2.0000      -0.278693        -7.5836 
 217   2.0000      -0.276216        -7.5162 
 218   2.0000      -0.275224        -7.4892 
 219   2.0000      -0.274504        -7.4696 
 220   2.0000      -0.274441        -7.4679 
 221   2.0000      -0.274065        -7.4577 
 222   2.0000      -0.273467        -7.4414 
 223   2.0000      -0.266429        -7.2499 
 224   2.0000      -0.259939        -7.0733 
 225   2.0000      -0.257028        -6.9941 
 226   2.0000      -0.232316        -6.3216 
 227   2.0000      -0.224661        -6.1133 
 228   2.0000      -0.222915        -6.0658 
 229   2.0000      -0.222787        -6.0623 
 230   2.0000      -0.216813        -5.8998 
 231   0.0000      -0.125382        -3.4118 
 232   0.0000      -0.123379        -3.3573 
 233   0.0000      -0.114307        -3.1104 
 234   0.0000      -0.079264        -2.1569 
 235   0.0000      -0.077492        -2.1087 
 236   0.0000      -0.068459        -1.8629 
 237   0.0000      -0.058284        -1.5860 
 238   0.0000      -0.040257        -1.0955 
 239   0.0000      -0.039237        -1.0677 
 240   0.0000      -0.038995        -1.0611 
 241   0.0000      -0.035262        -0.9595 
 242   0.0000      -0.034400        -0.9361 
 243   0.0000      -0.032968        -0.8971 
 244   0.0000      -0.023712        -0.6452 
 245   0.0000      -0.019114        -0.5201 
 246   0.0000      -0.018224        -0.4959 
 247   0.0000       0.002469         0.0672 
 248   0.0000       0.022094         0.6012 
 249   0.0000       0.024714         0.6725 
 250   0.0000       0.027255         0.7416 
 251   0.0000       0.029224         0.7952 
 252   0.0000       0.029386         0.7996 
 253   0.0000       0.034537         0.9398 
 254   0.0000       0.035431         0.9641 
 255   0.0000       0.044132         1.2009 
 256   0.0000       0.045648         1.2421 
 257   0.0000       0.045931         1.2498 
 258   0.0000       0.047991         1.3059 
 259   0.0000       0.051525         1.4021 
 260   0.0000       0.057300         1.5592 
 261   0.0000       0.060874         1.6565 
 262   0.0000       0.067990         1.8501 
 263   0.0000       0.070454         1.9172 
 264   0.0000       0.076853         2.0913 
 265   0.0000       0.078303         2.1307 
 266   0.0000       0.078888         2.1467 
 267   0.0000       0.079407         2.1608 
 268   0.0000       0.083926         2.2838 
 269   0.0000       0.089101         2.4246 
 270   0.0000       0.090343         2.4584 
 271   0.0000       0.091695         2.4952 
 272   0.0000       0.096497         2.6258 
 273   0.0000       0.098972         2.6932 
 274   0.0000       0.099178         2.6988 
 275   0.0000       0.101280         2.7560 
 276   0.0000       0.102083         2.7778 
 277   0.0000       0.106371         2.8945 
 278   0.0000       0.109311         2.9745 
 279   0.0000       0.115069         3.1312 
 280   0.0000       0.117911         3.2085 
 281   0.0000       0.120890         3.2896 
 282   0.0000       0.121952         3.3185 
 283   0.0000       0.124648         3.3918 
 284   0.0000       0.129516         3.5243 
 285   0.0000       0.130351         3.5470 
 286   0.0000       0.131415         3.5760 
 287   0.0000       0.133299         3.6273 
 288   0.0000       0.135124         3.6769 
 289   0.0000       0.138787         3.7766 
 290   0.0000       0.138999         3.7823 
 291   0.0000       0.143328         3.9002 
 292   0.0000       0.144179         3.9233 
 293   0.0000       0.146640         3.9903 
 294   0.0000       0.147828         4.0226 
 295   0.0000       0.149011         4.0548 
 296   0.0000       0.150940         4.1073 
 297   0.0000       0.151439         4.1209 
 298   0.0000       0.153282         4.1710 
 299   0.0000       0.156862         4.2684 
 300   0.0000       0.157803         4.2940 
 301   0.0000       0.158454         4.3117 
 302   0.0000       0.161562         4.3963 
 303   0.0000       0.161621         4.3979 
 304   0.0000       0.163593         4.4516 
 305   0.0000       0.165085         4.4922 
 306   0.0000       0.167568         4.5598 
 307   0.0000       0.169988         4.6256 
 308   0.0000       0.171720         4.6727 
 309   0.0000       0.174295         4.7428 
 310   0.0000       0.175947         4.7878 
 311   0.0000       0.177833         4.8391 
 312   0.0000       0.179304         4.8791 
 313   0.0000       0.181041         4.9264 
 314   0.0000       0.181784         4.9466 
 315   0.0000       0.187025         5.0892 
 316   0.0000       0.188037         5.1167 
 317   0.0000       0.190770         5.1911 
 318   0.0000       0.191762         5.2181 
 319   0.0000       0.193468         5.2645 
 320   0.0000       0.193719         5.2714 
 321   0.0000       0.196891         5.3577 
 322   0.0000       0.198067         5.3897 
 323   0.0000       0.199383         5.4255 
 324   0.0000       0.200585         5.4582 
 325   0.0000       0.202456         5.5091 
 326   0.0000       0.203281         5.5316 
 327   0.0000       0.205301         5.5865 
 328   0.0000       0.205818         5.6006 
 329   0.0000       0.207808         5.6548 
 330   0.0000       0.208701         5.6790 
 331   0.0000       0.210974         5.7409 
 332   0.0000       0.211857         5.7649 
 333   0.0000       0.214535         5.8378 
 334   0.0000       0.218650         5.9498 
 335   0.0000       0.220535         6.0011 
 336   0.0000       0.221451         6.0260 
 337   0.0000       0.222779         6.0621 
 338   0.0000       0.224388         6.1059 
 339   0.0000       0.225675         6.1409 
 340   0.0000       0.226581         6.1656 
 341   0.0000       0.226663         6.1678 
 342   0.0000       0.228052         6.2056 
 343   0.0000       0.228719         6.2238 
 344   0.0000       0.229167         6.2360 
 345   0.0000       0.229818         6.2537 
 346   0.0000       0.230599         6.2749 
 347   0.0000       0.231548         6.3007 
 348   0.0000       0.232842         6.3359 
 349   0.0000       0.235127         6.3981 
 350   0.0000       0.235936         6.4201 
 351   0.0000       0.239066         6.5053 
 352   0.0000       0.239912         6.5283 
 353   0.0000       0.242882         6.6092 
 354   0.0000       0.244827         6.6621 
 355   0.0000       0.246863         6.7175 
 356   0.0000       0.248727         6.7682 
 357   0.0000       0.250783         6.8242 
 358   0.0000       0.257006         6.9935 
 359   0.0000       0.259400         7.0586 
 360   0.0000       0.265630         7.2282 
 361   0.0000       0.270500         7.3607 
 362   0.0000       0.272508         7.4153 
 363   0.0000       0.275451         7.4954 
 364   0.0000       0.283205         7.7064 
 365   0.0000       0.284693         7.7469 
 366   0.0000       0.285903         7.7798 
 367   0.0000       0.289119         7.8673 
 368   0.0000       0.290417         7.9026 
 369   0.0000       0.292578         7.9615 
 370   0.0000       0.293692         7.9918 
 371   0.0000       0.294663         8.0182 
 372   0.0000       0.295330         8.0363 
 373   0.0000       0.296081         8.0568 
 374   0.0000       0.297779         8.1030 
 375   0.0000       0.299668         8.1544 
 376   0.0000       0.302399         8.2287 
 377   0.0000       0.305401         8.3104 
 378   0.0000       0.311533         8.4772 
 379   0.0000       0.314824         8.5668 
 380   0.0000       0.315429         8.5833 
 381   0.0000       0.317648         8.6436 
 382   0.0000       0.318247         8.6599 
 383   0.0000       0.319012         8.6808 
 384   0.0000       0.323085         8.7916 
 385   0.0000       0.325993         8.8707 
 386   0.0000       0.326619         8.8877 
 387   0.0000       0.328009         8.9256 
 388   0.0000       0.329546         8.9674 
 389   0.0000       0.330991         9.0067 
 390   0.0000       0.332753         9.0547 
 391   0.0000       0.333664         9.0795 
 392   0.0000       0.335232         9.1221 
 393   0.0000       0.335974         9.1423 
 394   0.0000       0.336667         9.1612 
 395   0.0000       0.337421         9.1817 
 396   0.0000       0.338266         9.2047 
 397   0.0000       0.339973         9.2511 
 398   0.0000       0.340824         9.2743 
 399   0.0000       0.341374         9.2893 
 400   0.0000       0.343010         9.3338 
 401   0.0000       0.343868         9.3571 
 402   0.0000       0.345586         9.4039 
 403   0.0000       0.347688         9.4611 
 404   0.0000       0.348198         9.4750 
[...]
Level Shift                                    ...    0.000e+00
Constructing the preconditioner                ... o.k.
Building the initial guess                     ... o.k.
Number of trial vectors determined             ...     15


                       ****Iteration    0****
                <<< Triplet sigma vectors requested >>>

   Memory handling for direct AO based CIS:
   Memory per vector needed      ...   168 MB
   Memory needed                 ...  1514 MB
   Memory available              ...  2000 MB
   Number of vectors per batch   ...    11
   Number of batches             ...     1
   Time for densities:    13.399
   Time for K (COSX):  1648.132
   Time for XC-Integration:   148.482
   Time for Sigma-Completion:   359.535
   Size of expansion space: 9
   Lowest Energy          :     0.064610094238
   Maximum Energy change  :     0.068444695597 (vector 2)
   Maximum residual norm  :     0.000675218156

                       ****Iteration    1****
   Time for densities:     4.460
   Time for K (COSX):  1584.508
   Time for XC-Integration:    52.661
   Time for Sigma-Completion:   119.812
   Size of expansion space: 12
   Lowest Energy          :     0.060241229159
   Maximum Energy change  :     0.004368865078 (vector 0)
   Maximum residual norm  :     0.000042627440

                       ****Iteration    2****
   Time for densities:     4.487
   Time for K (COSX):  1582.570
   Time for XC-Integration:    53.377
   Time for Sigma-Completion:   120.644
   Size of expansion space: 15
   Lowest Energy          :     0.060001539555
   Maximum Energy change  :     0.000494575363 (vector 2)
   Maximum residual norm  :     0.000017279512
   Rebuilding the expansion space

                       ****Iteration    3****
   Time for densities:     9.046
   Time for K (COSX):  1673.095
   Time for XC-Integration:   103.392
   Time for Sigma-Completion:   241.617
   Size of expansion space: 6
   Lowest Energy          :     0.059983053600
   Maximum Energy change  :     0.000096516675 (vector 2)
   Maximum residual norm  :     0.000002587371

                       ****Iteration    4****
   Time for densities:     4.496
   Time for K (COSX):  1623.218
   Time for XC-Integration:    53.596
   Time for Sigma-Completion:   120.712
   Size of expansion space: 9
   Lowest Energy          :     0.059980233564
   Maximum Energy change  :     0.000023037851 (vector 2)
   Maximum residual norm  :     0.000000966868

                       ****Iteration    5****
   Time for densities:     4.508
   Time for K (COSX):  1638.352
   Time for XC-Integration:    53.838
   Time for Sigma-Completion:   120.797
   Size of expansion space: 12
   Lowest Energy          :     0.059979787989
   Maximum Energy change  :     0.000003784174 (vector 2)
   Maximum residual norm  :     0.000000038078

      *** CONVERGENCE OF RESIDUAL NORM REACHED ***

Storing the converged CI vectors               ... PCBM.cis3

                 *** DAVIDSON DONE ***

------------------------------------
TD-DFT/TDA EXCITED STATES (TRIPLETS)
------------------------------------

the weight of the individual excitations are printed if larger than 1.0e-02

STATE  1:  E=   0.059980 au      1.632 eV    13164.0 cm**-1
   227a -> 231a  :     0.083696 (c= -0.28930203)
   228a -> 231a  :     0.072860 (c=  0.26992646)
   230a -> 232a  :     0.782654 (c= -0.88467756)

STATE  2:  E=   0.062709 au      1.706 eV    13763.1 cm**-1
   227a -> 232a  :     0.092413 (c= -0.30399542)
   230a -> 231a  :     0.869199 (c= -0.93230868)

STATE  3:  E=   0.064171 au      1.746 eV    14083.9 cm**-1
   226a -> 232a  :     0.010880 (c=  0.10430749)
   228a -> 233a  :     0.047587 (c=  0.21814491)
   229a -> 231a  :     0.890085 (c= -0.94344307)

------------------------------
TD-DFT/TDA SPIN-ORBIT COUPLING
------------------------------

Calculating the spin-orbit integrals:             

Loading the effective charges         ... done
Entering the SOC calc. section        ... 
------------------------------------------------------------------------------
                         ORCA SPIN-ORBIT COUPLING CALCULATION
------------------------------------------------------------------------------

GBW file                                    ... PCBM.gbw
Input density                               ... PCBM.cisp0
Output integrals                            ... PCBM.cis
Operator type                               ... Mean-field/Effective potential
   One-Electron Terms                       ... 1
   Coulomb Contribution                     ... 2
   Exchange Contribution                    ... 3
   Correlation Contribution                 ... 0
   Maximum number of centers                ... 4
Setting up the integration grid             ... done
Evaluating density on the grid              ... (NumEl=  462.001519) done
Evaluating Coulomb term semi-analytically   ... done
One-Center Exchange (+SOO)                  ... done
Evaluating the spin-orbit operator          ... done
Transforming the SOC integrals              ... done
Constructing the SOC matrix:                ... done
Diagonalizing the SOC matrix:               ... done

      --------------------------------------------------------------------------------
                      CALCULATED SOCME BETWEEN TRIPLETS AND SINGLETS                  
      --------------------------------------------------------------------------------
           Root                          <T|HSO|S>  (Re, Im) cm-1                     
         T      S             Z                     X                     Y           
      --------------------------------------------------------------------------------
         1      0    (   0.00 ,    0.68 )    (   0.00 ,   -1.57 )    (  -0.00 ,   -0.57 )
         1      1    (   0.00 ,    0.07 )    (   0.00 ,    0.00 )    (  -0.00 ,    0.03 )
         1      2    (   0.00 ,   -0.01 )    (   0.00 ,   -0.00 )    (  -0.00 ,   -0.00 )
         1      3    (   0.00 ,    0.03 )    (   0.00 ,    0.01 )    (  -0.00 ,    0.03 )
         2      0    (   0.00 ,    1.85 )    (   0.00 ,    1.04 )    (  -0.00 ,   -3.39 )
         2      1    (   0.00 ,    0.01 )    (   0.00 ,    0.01 )    (  -0.00 ,    0.01 )
         2      2    (   0.00 ,   -0.18 )    (   0.00 ,   -0.05 )    (  -0.00 ,   -0.13 )
         2      3    (   0.00 ,    1.11 )    (   0.00 ,    0.26 )    (  -0.00 ,    0.68 )
         3      0    (   0.00 ,   -2.30 )    (   0.00 ,   -0.47 )    (  -0.00 ,   -1.37 )
         3      1    (   0.00 ,   -0.15 )    (   0.00 ,    0.64 )    (  -0.00 ,    0.03 )
         3      2    (   0.00 ,   -0.06 )    (   0.00 ,    0.02 )    (  -0.00 ,    0.10 )
         3      3    (   0.00 ,    0.36 )    (   0.00 ,    0.17 )    (  -0.00 ,   -0.66 )

SOC stabilization of the ground state:  -0.0019 cm-1
Eigenvalues of the SOC matrix:

   State:        cm-1         eV
     0:          0.00         0.0000
     1:      13164.04         1.6321
     2:      13164.04         1.6321
     3:      13164.04         1.6321
     4:      13763.11         1.7064
     5:      13763.11         1.7064
     6:      13763.11         1.7064
     7:      14083.94         1.7462
     8:      14083.94         1.7462
     9:      14083.94         1.7462
    10:      15127.19         1.8755
    11:      15707.94         1.9475
    12:      16258.96         2.0159

The threshold for printing is 0.0100
Eigenvectors of the SOC matrix:

             E(cm-1)  Weight      Real         Imag     : Root  Spin  Ms
 STATE  0:      0.00
                      1.00000     -0.94675     -0.32197 : 0     0     0
 STATE  1:  13164.04
                      0.16113     -0.17487      0.36131 : 1     1     0
                      0.41943     -0.64620      0.04317 : 1     1    -1
                      0.41943     -0.36705     -0.53358 : 1     1     1
 STATE  2:  13164.04
                      0.17900      0.16843     -0.38811 : 1     1     0
                      0.41050     -0.06273      0.63762 : 1     1    -1
                      0.41050      0.42286     -0.48134 : 1     1     1
 STATE  3:  13164.04
                      0.65987     -0.69336      0.42322 : 1     1     0
                      0.17007      0.06217      0.40768 : 1     1    -1
                      0.17007      0.33417      0.24165 : 1     1     1
 STATE  4:  13763.11
                      0.69779      0.15609      0.82062 : 2     1     0
                      0.15110      0.38380      0.06164 : 2     1    -1
                      0.15110      0.33437     -0.19824 : 2     1     1
 STATE  5:  13763.11
                      0.18819     -0.12428      0.41563 : 2     1     0
                      0.40590     -0.11591     -0.62647 : 2     1    -1
                      0.40590     -0.44078      0.46002 : 2     1     1
 STATE  6:  13763.11
                      0.11401     -0.10767      0.32003 : 2     1     0
                      0.44299     -0.63126      0.21097 : 2     1    -1
                      0.44299     -0.37535     -0.54964 : 2     1     1
 STATE  7:  14083.94
                      0.04768     -0.21823      0.00763 : 3     1     0
                      0.47616      0.68835     -0.04822 : 3     1    -1
                      0.47616     -0.69004      0.00000 : 3     1     1
 STATE  8:  14083.94
                      0.23557      0.07709      0.47919 : 3     1     0
                      0.38221     -0.58704      0.19390 : 3     1    -1
                      0.38221     -0.61823     -0.00000 : 3     1     1
 STATE  9:  14083.94
                      0.71674     -0.27350      0.80121 : 3     1     0
                      0.14163      0.29778      0.23012 : 3     1    -1
                      0.14163      0.37633      0.00000 : 3     1     1
 STATE 10:  15127.19
                      1.00000     -0.04105     -0.99916 : 1     0     0
 STATE 11:  15707.94
                      1.00000     -0.97970     -0.20045 : 2     0     0
 STATE 12:  16258.96
                      1.00000     -0.96875      0.24805 : 3     0     0

-----------------------------
TD-DFT/TDA-EXCITATION SPECTRA
-----------------------------

Center of mass = ( -1.3567, -1.1381, -0.3294)
Calculating the Dipole integrals                  ... done
Transforming integrals                            ... done
Calculating the Linear Momentum integrals         ... done
Transforming integrals                            ... done
Calculating angular momentum integrals            ... done
Transforming integrals                            ... done

-----------------------------------------------------------------------------
         ABSORPTION SPECTRUM VIA TRANSITION ELECTRIC DIPOLE MOMENTS
-----------------------------------------------------------------------------
State   Energy    Wavelength  fosc         T2        TX        TY        TZ  
        (cm-1)      (nm)                 (au**2)    (au)      (au)      (au) 
-----------------------------------------------------------------------------
   1   15127.2    661.1   0.002272527   0.04946  -0.02972   0.12004  -0.18483
   2   15707.9    636.6   0.000005040   0.00011  -0.00496   0.00823  -0.00364
   3   16259.0    615.0   0.000003671   0.00007   0.00689  -0.00272   0.00442
   4   13164.0    759.6   spin forbidden (mult=3)
   5   13763.1    726.6   spin forbidden (mult=3)
   6   14083.9    710.0   spin forbidden (mult=3)

-----------------------------------------------------------------------------
         ABSORPTION SPECTRUM VIA TRANSITION VELOCITY DIPOLE MOMENTS
-----------------------------------------------------------------------------
State   Energy    Wavelength   fosc        P2         PX        PY        PZ  
        (cm-1)      (nm)                 (au**2)     (au)      (au)      (au) 
-----------------------------------------------------------------------------
   1   15127.2    661.1   0.038353631   0.00397  -0.01045   0.03345  -0.05232
   2   15707.9    636.6   0.000018078   0.00000   0.00027  -0.00093  -0.00100
   3   16259.0    615.0   0.000014481   0.00000   0.00013  -0.00054   0.00114
   4   13164.0    759.6   spin forbidden (mult=3)
   5   13763.1    726.6   spin forbidden (mult=3)
   6   14083.9    710.0   spin forbidden (mult=3)

-------------------------------------------------------------------
                             CD SPECTRUM
-------------------------------------------------------------------
State  Energy     Wavelength     R         MX        MY        MZ   
       (cm-1)       (nm)     (1e40*cgs)   (au)      (au)      (au)  
-------------------------------------------------------------------
   1   15127.2    661.1      2.86812   0.16566   0.89198   0.51976
   2   15707.9    636.6     -2.87025   1.19739  -0.18136  -0.36984
   3   16259.0    615.0     -4.01866  -1.44244   0.16440   0.42005
   4   13164.0    759.6 spin forbidden
   5   13763.1    726.6 spin forbidden
   6   14083.9    710.0 spin forbidden

-------------------------------------------
SOC CORRECTED TD-DFT/TDA-EXCITATION SPECTRA
--------------------------------------------

-----------------------------------------------------------------------------
  SOC CORRECTED ABSORPTION SPECTRUM VIA TRANSITION ELECTRIC DIPOLE MOMENTS*  
-----------------------------------------------------------------------------
State   Energy  Wavelength   fosc         T2         TX        TY        TZ  
        (cm-1)    (nm)                  (au**2)     (au)      (au)      (au) 
-----------------------------------------------------------------------------
   1   13164.0    759.6   0.000000000   0.00000   0.00003   0.00003   0.00001
   2   13164.0    759.6   0.000000000   0.00000   0.00010   0.00001   0.00001
   3   13164.0    759.6   0.000000000   0.00000   0.00001   0.00001   0.00001
   4   13763.1    726.6   0.000000000   0.00000   0.00000   0.00000   0.00000
   5   13763.1    726.6   0.000000000   0.00000   0.00010   0.00001   0.00001
   6   13763.1    726.6   0.000000003   0.00000   0.00024   0.00000   0.00005
   7   14083.9    710.0   0.000000001   0.00000   0.00002   0.00007   0.00010
   8   14083.9    710.0   0.000000000   0.00000   0.00000   0.00000   0.00000
   9   14083.9    710.0   0.000000000   0.00000   0.00000   0.00001   0.00001
  10   15127.2    661.1   0.002272526   0.04946   0.02972   0.12004   0.18483
  11   15707.9    636.6   0.000005040   0.00011   0.00496   0.00823   0.00364
  12   16259.0    615.0   0.000003671   0.00007   0.00689   0.00272   0.00442

-----------------------------------------------------------------------------
  SOC CORRECTED ABSORPTION SPECTRUM VIA TRANSITION VELOCITY DIPOLE MOMENTS*  
-----------------------------------------------------------------------------
State   Energy  Wavelength   fosc         P2         PX        PY        PZ  
        (cm-1)    (nm)                  (au**2)     (au)      (au)      (au) 
-----------------------------------------------------------------------------
   1   13164.0    759.6   0.000000000   0.00000   0.00000   0.00000   0.00000
   2   13164.0    759.6   0.000000000   0.00000   0.00000   0.00000   0.00000
   3   13164.0    759.6   0.000000000   0.00000   0.00000   0.00000   0.00000
   4   13763.1    726.6   0.000000000   0.00000   0.00000   0.00000   0.00000
   5   13763.1    726.6   0.000000000   0.00000   0.00000   0.00000   0.00000
   6   13763.1    726.6   0.000000000   0.00000   0.00000   0.00000   0.00000
   7   14083.9    710.0   0.000000016   0.00000   0.00001   0.00002   0.00003
   8   14083.9    710.0   0.000000000   0.00000   0.00000   0.00000   0.00000
   9   14083.9    710.0   0.000000000   0.00000   0.00000   0.00000   0.00000
  10   15127.2    661.1   0.038353605   0.00397   0.01045   0.03345   0.05232
  11   15707.9    636.6   0.000018078   0.00000   0.00027   0.00093   0.00100
  12   16259.0    615.0   0.000014481   0.00000   0.00013   0.00054   0.00114

-------------------------------------------------------------------
                    SOC CORRECTED CD SPECTRUM*                     
-------------------------------------------------------------------
State   Energy Wavelength       R         MX        MY        MZ   
        (cm-1)   (nm)       (1e40*sgs)   (au)      (au)      (au)  
-------------------------------------------------------------------
   1   13164.0    759.6      0.00000   0.00003   0.00009   0.00014
   2   13164.0    759.6      0.00000   0.00001   0.00001   0.00004
   3   13164.0    759.6      0.00000   0.00001   0.00004   0.00002
   4   13763.1    726.6      0.00000   0.00086   0.00011   0.00026
   5   13763.1    726.6      0.00000   0.00000   0.00004   0.00007
   6   13763.1    726.6      0.00000   0.00000   0.00000   0.00001
   7   14083.9    710.0      0.00000   0.00009   0.00056   0.00033
   8   14083.9    710.0      0.00000   0.00053   0.00007   0.00016
   9   14083.9    710.0      0.00000   0.00000   0.00000   0.00000
  10   15127.2    661.1      2.86812   0.16566   0.89198   0.51976
  11   15707.9    636.6      2.87025   1.19739   0.18136   0.36984
  12   16259.0    615.0      4.01865   1.44244   0.16440   0.42005

*The X,Y and Z components are the absolute values of the complex numbers

Total run time:    38717.838 sec

           *** ORCA-CIS/TD-DFT FINISHED WITHOUT ERROR ***

---------------------------
SOC CIS/TD-DFT TOTAL ENERGY
---------------------------

    E(SCF)        =  -2901.552231330 Eh
    E(SOC CIS)    =      0.059979785 Eh (SOC Root  1)
    ----------------------------- ---------
    E(tot)        =  -2901.492251545 Eh


-------------------------   --------------------
FINAL SINGLE POINT ENERGY     -2901.492251544697
-------------------------   --------------------


                            ***************************************
                            *     ORCA property calculations      *
                            ***************************************

                                    ---------------------
                                    Active property flags
                                    ---------------------
   (+) Dipole Moment


------------------------------------------------------------------------------
                       ORCA ELECTRIC PROPERTIES CALCULATION
------------------------------------------------------------------------------

Dipole Moment Calculation                       ... on
Quadrupole Moment Calculation                   ... off
Polarizability Calculation                      ... off
GBWName                                         ... PCBM.gbw
Electron density file                           ... PCBM.scfp
The origin for moment calculation is the CENTER OF MASS  = (-1.356706, -1.138065 -0.329389)

-------------
DIPOLE MOMENT
-------------
                                X             Y             Z
Electronic contribution:    -72.04063      22.04822      13.68477
Nuclear contribution   :     73.42731     -22.32570     -14.49782
                        -----------------------------------------
Total Dipole Moment    :      1.38668      -0.27747      -0.81305
                        -----------------------------------------
Magnitude (a.u.)       :      1.63123
Magnitude (Debye)      :      4.14626



--------------------
Rotational spectrum 
--------------------
 
Rotational constants in cm-1:     0.002214     0.001169     0.001072 
Rotational constants in MHz :    66.386768    35.039189    32.136526 

 Dipole components along the rotational axes: 
x,y,z [a.u.] :     1.505698     0.189878     0.598113 
x,y,z [Debye]:     3.827180     0.482630     1.520282 

 

Timings for individual modules:

Sum of individual times         ...    61661.408 sec (=1027.690 min)
GTO integral calculation        ...        9.924 sec (=   0.165 min)   0.0 %
SCF iterations                  ...    22933.487 sec (= 382.225 min)  37.2 %
CIS module                      ...    38717.998 sec (= 645.300 min)  62.8 %
                             ****ORCA TERMINATED NORMALLY****
TOTAL RUN TIME: 0 days 17 hours 7 minutes 44 seconds 170 msec
