
                                 *****************
                                 * O   R   C   A *
                                 *****************

           --- An Ab Initio, DFT and Semiempirical electronic structure package ---

                  #######################################################
                  #                        -***-                        #
                  #          Department of theory and spectroscopy      #
                  #               Directorship: Frank Neese             #
                  #        Max Planck Institute fuer Kohlenforschung    #
                  #                Kaiser Wilhelm Platz 1               #
                  #                 D-45470 Muelheim/Ruhr               #
                  #                      Germany                        #
                  #                                                     #
                  #                  All rights reserved                #
                  #                        -***-                        #
                  #######################################################


                         Program Version 4.2.0 -  RELEASE  -


 With contributions from (in alphabetic order):
   Daniel Aravena         : Magnetic Suceptibility
   Michael Atanasov       : Ab Initio Ligand Field Theory (pilot matlab implementation)
   Alexander A. Auer      : GIAO ZORA, VPT2
   Ute Becker             : Parallelization
   Giovanni Bistoni       : ED, misc. LED, open-shell LED, HFLED
   Martin Brehm           : Molecular dynamics
   Dmytro Bykov           : SCF Hessian
   Vijay G. Chilkuri      : MRCI spin determinant printing, contributions to CSF-ICE
   Dipayan Datta          : RHF DLPNO-CCSD density
   Achintya Kumar Dutta   : EOM-CC, STEOM-CC
   Dmitry Ganyushin       : Spin-Orbit,Spin-Spin,Magnetic field MRCI
   Miquel Garcia          : C-PCM Hessian, Gaussian charge scheme
   Yang Guo               : DLPNO-NEVPT2, CIM, IAO-localization
   Andreas Hansen         : Spin unrestricted coupled pair/coupled cluster methods
   Benjamin Helmich-Paris : CASSCF linear response (MC-RPA)
   Lee Huntington         : MR-EOM, pCC
   Robert Izsak           : Overlap fitted RIJCOSX, COSX-SCS-MP3, EOM
   Christian Kollmar      : KDIIS, OOCD, Brueckner-CCSD(T), CCSD density
   Simone Kossmann        : Meta GGA functionals, TD-DFT gradient, OOMP2, MP2 Hessian
   Martin Krupicka        : AUTO-CI
   Lucas Lang             : DCDCAS
   Dagmar Lenk            : GEPOL surface, SMD
   Dimitrios Liakos       : Extrapolation schemes; Compound Job, initial MDCI parallelization
   Dimitrios Manganas     : Further ROCIS development; embedding schemes
   Dimitrios Pantazis     : SARC Basis sets
   Taras Petrenko         : DFT Hessian,TD-DFT gradient, ASA, ECA, R-Raman, ABS, FL, XAS/XES, NRVS
   Peter Pinski           : DLPNO-MP2, DLPNO-MP2 Gradient
   Christoph Reimann      : Effective Core Potentials
   Marius Retegan         : Local ZFS, SOC
   Christoph Riplinger    : Optimizer, TS searches, QM/MM, DLPNO-CCSD(T), (RO)-DLPNO pert. Triples
   Tobias Risthaus        : Range-separated hybrids, TD-DFT gradient, RPA, STAB
   Michael Roemelt        : Original ROCIS implementation
   Masaaki Saitow         : Open-shell DLPNO-CCSD energy and density
   Barbara Sandhoefer     : DKH picture change effects
   Avijit Sen             : IP-ROCIS
   Kantharuban Sivalingam : CASSCF convergence, NEVPT2, FIC-MRCI
   Bernardo de Souza      : ESD, SOC TD-DFT
   Georgi Stoychev        : AutoAux, RI-MP2 NMR
   Willem Van den Heuvel  : Paramagnetic NMR
   Boris Wezisla          : Elementary symmetry handling
   Frank Wennmohs         : Technical directorship


 We gratefully acknowledge several colleagues who have allowed us to
 interface, adapt or use parts of their codes:
   Stefan Grimme, W. Hujo, H. Kruse,             : VdW corrections, initial TS optimization,
                  C. Bannwarth                     DFT functionals, gCP, sTDA/sTD-DF
   Ed Valeev, F. Pavosevic, A. Kumar             : LibInt (2-el integral package), F12 methods
   Garnet Chan, S. Sharma, J. Yang, R. Olivares  : DMRG
   Ulf Ekstrom                                   : XCFun DFT Library
   Mihaly Kallay                                 : mrcc  (arbitrary order and MRCC methods)
   Andreas Klamt, Michael Diedenhofen            : otool_cosmo (COSMO solvation model)
   Jiri Pittner, Ondrej Demel                    : Mk-CCSD
   Frank Weinhold                                : gennbo (NPA and NBO analysis)
   Christopher J. Cramer and Donald G. Truhlar   : smd solvation model
   Lars Goerigk                                  : TD-DFT with DH, B97 family of functionals
   V. Asgeirsson, H. Jonsson                     : NEB implementation
   FAccTs GmbH                                   : IRC, NEB, NEB-TS, Multilevel, MM, QM/MM, CI optimization
   S Lehtola, MJT Oliveira, MAL Marques          : LibXC Library


 Your calculation uses the libint2 library for the computation of 2-el integrals
 For citations please refer to: http://libint.valeyev.net

 Your ORCA version has been built with support for libXC version: 4.2.3
 For citations please refer to: https://tddft.org/programs/libxc/

 This ORCA versions uses:
   CBLAS   interface :  Fast vector & matrix operations
   LAPACKE interface :  Fast linear algebra routines
   SCALAPACK package :  Parallel linear algebra routines


----- Orbital basis set information -----
Your calculation utilizes the basis: def2-TZVP
   F. Weigend and R. Ahlrichs, Phys. Chem. Chem. Phys. 7, 3297 (2005).

----- AuxJ basis set information -----
Your calculation utilizes the auxiliary basis: def2/J
   F. Weigend, Phys. Chem. Chem. Phys. 8, 1057 (2006).

================================================================================
                                        WARNINGS
                       Please study these warnings very carefully!
================================================================================

INFO   : Checking CIS options ...

WARNING: (CIS/TDDFT): Spin-orbit needs TRIPLETS set to TRUE
  ===> : ajusting flags

WARNING: CIS/ROCIS methods need fully converged wavefunctions
  ===> : Setting SCFConvForced true
         You can overwrite this default with %scf ConvForced false 


INFO   : the flag for use of LIBINT has been found!

================================================================================
                                       INPUT FILE
================================================================================
NAME = SNBDT1-F.inp
|  1> # ORCA input file
|  2> # SNBDT1-F.out: Geometry 170
|  3> ! B3LYP def2-TZVP def2/J RIJCOSX Grid4 TightSCF
|  4> 
|  5> %maxcore 6000
|  6> %tddft
|  7>   maxdim 5
|  8>   nroots 3
|  9>   dosoc true
| 10>   end
| 11> %pal
| 12>   nprocs 6
| 13>   end
| 14> 
| 15> 
| 16> * xyz 0 1
| 17>    C       -3.02947        -0.81091         0.18491
| 18>    C       -1.97407        -0.21533        -0.53148
| 19>    C       -0.68458        -0.69249        -0.32498
| 20>    C       -0.36290        -1.72726         0.61672
| 21>    C       -1.41665        -2.25157         1.41810
| 22>    C       -2.72276        -1.77071         1.21500
| 23>    S        0.69953         0.01391        -1.15209
| 24>    C        1.75073        -1.02901        -0.24277
| 25>    C        1.07578        -1.91824         0.63522
| 26>    C        3.12978        -1.22518        -0.08882
| 27>    C        3.27602        -2.24751         0.87931
| 28>    N        2.03102        -2.66983         1.31459
| 29>    S        4.66005        -0.65745        -0.66057
| 30>    C        5.50513        -1.81243         0.39360
| 31>    C        4.60857        -2.59314         1.13885
| 32>    S       -4.13158        -2.06215         2.27995
| 33>    C       -5.11036        -0.97651         1.32718
| 34>    C       -4.42500        -0.46594         0.20571
| 35>    C       -6.37937        -0.36164         1.35909
| 36>    C       -6.43507         0.47970         0.21833
| 37>    N       -5.26193         0.38449        -0.50750
| 38>    S       -7.81324        -0.19879         2.31859
| 39>    C       -8.45136         1.03110         1.20461
| 40>    C       -7.59537         1.25205         0.12494
| 41>    O       -1.05712        -3.12846         2.39392
| 42>    O       -2.16552         0.86645        -1.34591
| 43>    C       -2.48747         2.10067        -0.65805
| 44>    C       -1.26840         2.88939        -0.18849
| 45>    C       -0.44804         3.41360        -1.36879
| 46>    C       -1.74799         4.02705         0.72087
| 47>    C       -1.94101        -4.15577         2.84747
| 48>    C       -1.16590        -5.13587         3.72346
| 49>    C       -0.52909        -4.43194         4.92562
| 50>    C       -2.09096        -6.27316         4.16661
| 51>    C       -5.18977         0.76637        -1.91542
| 52>    C       -5.72932        -0.29131        -2.89690
| 53>    C        1.90915        -3.86285         2.14070
| 54>    C        2.28917        -5.15073         1.38695
| 55>    C       -7.16915        -0.72884        -2.61677
| 56>    C       -5.59512         0.25787        -4.32057
| 57>    C        2.56263        -6.28381         2.37931
| 58>    C        1.22904        -5.53834         0.35465
| 59>    C        6.90366        -2.04307         0.35829
| 60>    C        7.95107        -1.38702        -0.24651
| 61>    C        9.17124        -2.18517        -0.58601
| 62>    C        9.92731        -1.35571        -1.56878
| 63>    C        9.26534        -0.12169        -1.75291
| 64>    C        8.11981        -0.05767        -0.81245
| 65>    C       11.08567        -1.69344        -2.25467
| 66>    C       11.56812        -0.75921        -3.17141
| 67>    C       10.92827         0.46402        -3.39452
| 68>    C        9.77493         0.79836        -2.67856
| 69>    C       -9.70380         1.66060         1.44755
| 70>    C      -10.14885         2.86933         0.96159
| 71>    C      -11.62534         3.11677         0.86324
| 72>    C      -11.77266         4.30180        -0.03410
| 73>    C      -10.49420         4.80149        -0.36331
| 74>    C       -9.46992         4.02057         0.37139
| 75>    C      -12.94436         4.85882        -0.53208
| 76>    C      -12.80802         5.93841        -1.40739
| 77>    C      -11.55607         6.44707        -1.76844
| 78>    C      -10.38914         5.88895        -1.24160
| 79>    O      -12.51628         2.45826         1.35735
| 80>    F      -13.89616         6.51131        -1.92954
| 81>    C       -8.17683         4.45446         0.61422
| 82>    C       -7.63279         5.63373         0.01634
| 83>    C       -7.28620         3.82650         1.53851
| 84>    N       -7.15702         6.57434        -0.47389
| 85>    N       -6.52321         3.37772         2.29167
| 86>    O        9.45040        -3.30288        -0.20251
| 87>    F       12.67496        -1.03764        -3.86532
| 88>    C        7.50812         1.10318        -0.37041
| 89>    C        7.72703         2.37004        -0.99409
| 90>    C        6.73029         1.13747         0.82808
| 91>    N        6.14497         1.18656         1.83061
| 92>    N        7.88682         3.39684        -1.51542
| 93>    H        4.94958        -3.36827         1.82462
| 94>    H       -7.83073         1.94773        -0.67755
| 95>    H       -3.15068         1.87701         0.19129
| 96>    H       -3.06027         2.69819        -1.38451
| 97>    H       -0.63842         2.20849         0.40993
| 98>    H       -1.02657         4.16031        -1.93910
| 99>    H       -0.16917         2.60315        -2.05670
|100>    H        0.47693         3.89876        -1.02143
|101>    H       -2.42247         4.71005         0.17657
|102>    H       -0.89831         4.62295         1.08684
|103>    H       -2.29640         3.64291         1.59565
|104>    H       -2.38710        -4.66439         1.97549
|105>    H       -2.75696        -3.72187         3.44840
|106>    H       -0.36621        -5.57350         3.10279
|107>    H       -1.30859        -4.00631         5.57965
|108>    H        0.13202        -3.60972         4.61695
|109>    H        0.06220        -5.14104         5.52647
|110>    H       -2.90975        -5.89532         4.80157
|111>    H       -1.53103        -7.01557         4.75626
|112>    H       -2.54129        -6.79512         3.30704
|113>    H       -4.14440         0.97052        -2.16445
|114>    H       -5.75407         1.70609        -2.02349
|115>    H       -5.07738        -1.17769        -2.79877
|116>    H        0.88530        -3.90679         2.50989
|117>    H        2.57123        -3.72937         3.01056
|118>    H        3.22864        -4.94626         0.84462
|119>    H       -7.49112        -1.47555        -3.35909
|120>    H       -7.86407         0.12513        -2.68437
|121>    H       -7.28542        -1.18067        -1.62145
|122>    H       -6.25427         1.13088        -4.46289
|123>    H       -5.88672        -0.50008        -5.06349
|124>    H       -4.56530         0.57891        -4.54303
|125>    H        1.65618        -6.54532         2.94974
|126>    H        3.34301        -6.00644         3.10546
|127>    H        2.89923        -7.19155         1.85510
|128>    H        0.30217        -5.86866         0.85166
|129>    H        1.58178        -6.36710        -0.27861
|130>    H        0.97454        -4.69495        -0.30554
|131>    H        7.20441        -3.00307         0.79717
|132>    H       11.59241        -2.64453        -2.08456
|133>    H       11.35133         1.15047        -4.13006
|134>    H        9.29301         1.75692        -2.85994
|135>    H      -10.45636         1.09576         2.01313
|136>    H      -13.92265         4.46526        -0.25149
|137>    H      -11.51415         7.28931        -2.46121
|138>    H       -9.42652         6.30462        -1.53106
|139> *
|140> 
|141>                          ****END OF INPUT****
================================================================================

                       ****************************
                       * Single Point Calculation *
                       ****************************

---------------------------------
CARTESIAN COORDINATES (ANGSTROEM)
---------------------------------
  C     -3.029470   -0.810910    0.184910
  C     -1.974070   -0.215330   -0.531480
  C     -0.684580   -0.692490   -0.324980
  C     -0.362900   -1.727260    0.616720
  C     -1.416650   -2.251570    1.418100
  C     -2.722760   -1.770710    1.215000
  S      0.699530    0.013910   -1.152090
  C      1.750730   -1.029010   -0.242770
  C      1.075780   -1.918240    0.635220
  C      3.129780   -1.225180   -0.088820
  C      3.276020   -2.247510    0.879310
  N      2.031020   -2.669830    1.314590
  S      4.660050   -0.657450   -0.660570
  C      5.505130   -1.812430    0.393600
  C      4.608570   -2.593140    1.138850
  S     -4.131580   -2.062150    2.279950
  C     -5.110360   -0.976510    1.327180
  C     -4.425000   -0.465940    0.205710
  C     -6.379370   -0.361640    1.359090
  C     -6.435070    0.479700    0.218330
  N     -5.261930    0.384490   -0.507500
  S     -7.813240   -0.198790    2.318590
  C     -8.451360    1.031100    1.204610
  C     -7.595370    1.252050    0.124940
  O     -1.057120   -3.128460    2.393920
  O     -2.165520    0.866450   -1.345910
  C     -2.487470    2.100670   -0.658050
  C     -1.268400    2.889390   -0.188490
  C     -0.448040    3.413600   -1.368790
  C     -1.747990    4.027050    0.720870
  C     -1.941010   -4.155770    2.847470
  C     -1.165900   -5.135870    3.723460
  C     -0.529090   -4.431940    4.925620
  C     -2.090960   -6.273160    4.166610
  C     -5.189770    0.766370   -1.915420
  C     -5.729320   -0.291310   -2.896900
  C      1.909150   -3.862850    2.140700
  C      2.289170   -5.150730    1.386950
  C     -7.169150   -0.728840   -2.616770
  C     -5.595120    0.257870   -4.320570
  C      2.562630   -6.283810    2.379310
  C      1.229040   -5.538340    0.354650
  C      6.903660   -2.043070    0.358290
  C      7.951070   -1.387020   -0.246510
  C      9.171240   -2.185170   -0.586010
  C      9.927310   -1.355710   -1.568780
  C      9.265340   -0.121690   -1.752910
  C      8.119810   -0.057670   -0.812450
  C     11.085670   -1.693440   -2.254670
  C     11.568120   -0.759210   -3.171410
  C     10.928270    0.464020   -3.394520
  C      9.774930    0.798360   -2.678560
  C     -9.703800    1.660600    1.447550
  C    -10.148850    2.869330    0.961590
  C    -11.625340    3.116770    0.863240
  C    -11.772660    4.301800   -0.034100
  C    -10.494200    4.801490   -0.363310
  C     -9.469920    4.020570    0.371390
  C    -12.944360    4.858820   -0.532080
  C    -12.808020    5.938410   -1.407390
  C    -11.556070    6.447070   -1.768440
  C    -10.389140    5.888950   -1.241600
  O    -12.516280    2.458260    1.357350
  F    -13.896160    6.511310   -1.929540
  C     -8.176830    4.454460    0.614220
  C     -7.632790    5.633730    0.016340
  C     -7.286200    3.826500    1.538510
  N     -7.157020    6.574340   -0.473890
  N     -6.523210    3.377720    2.291670
  O      9.450400   -3.302880   -0.202510
  F     12.674960   -1.037640   -3.865320
  C      7.508120    1.103180   -0.370410
  C      7.727030    2.370040   -0.994090
  C      6.730290    1.137470    0.828080
  N      6.144970    1.186560    1.830610
  N      7.886820    3.396840   -1.515420
  H      4.949580   -3.368270    1.824620
  H     -7.830730    1.947730   -0.677550
  H     -3.150680    1.877010    0.191290
  H     -3.060270    2.698190   -1.384510
  H     -0.638420    2.208490    0.409930
  H     -1.026570    4.160310   -1.939100
  H     -0.169170    2.603150   -2.056700
  H      0.476930    3.898760   -1.021430
  H     -2.422470    4.710050    0.176570
  H     -0.898310    4.622950    1.086840
  H     -2.296400    3.642910    1.595650
  H     -2.387100   -4.664390    1.975490
  H     -2.756960   -3.721870    3.448400
  H     -0.366210   -5.573500    3.102790
  H     -1.308590   -4.006310    5.579650
  H      0.132020   -3.609720    4.616950
  H      0.062200   -5.141040    5.526470
  H     -2.909750   -5.895320    4.801570
  H     -1.531030   -7.015570    4.756260
  H     -2.541290   -6.795120    3.307040
  H     -4.144400    0.970520   -2.164450
  H     -5.754070    1.706090   -2.023490
  H     -5.077380   -1.177690   -2.798770
  H      0.885300   -3.906790    2.509890
  H      2.571230   -3.729370    3.010560
  H      3.228640   -4.946260    0.844620
  H     -7.491120   -1.475550   -3.359090
  H     -7.864070    0.125130   -2.684370
  H     -7.285420   -1.180670   -1.621450
  H     -6.254270    1.130880   -4.462890
  H     -5.886720   -0.500080   -5.063490
  H     -4.565300    0.578910   -4.543030
  H      1.656180   -6.545320    2.949740
  H      3.343010   -6.006440    3.105460
  H      2.899230   -7.191550    1.855100
  H      0.302170   -5.868660    0.851660
  H      1.581780   -6.367100   -0.278610
  H      0.974540   -4.694950   -0.305540
  H      7.204410   -3.003070    0.797170
  H     11.592410   -2.644530   -2.084560
  H     11.351330    1.150470   -4.130060
  H      9.293010    1.756920   -2.859940
  H    -10.456360    1.095760    2.013130
  H    -13.922650    4.465260   -0.251490
  H    -11.514150    7.289310   -2.461210
  H     -9.426520    6.304620   -1.531060

----------------------------
CARTESIAN COORDINATES (A.U.)
----------------------------
  NO LB      ZA    FRAG     MASS         X           Y           Z
   0 C     6.0000    0    12.011   -5.724869   -1.532398    0.349429
   1 C     6.0000    0    12.011   -3.730452   -0.406915   -1.004352
   2 C     6.0000    0    12.011   -1.293669   -1.308616   -0.614123
   3 C     6.0000    0    12.011   -0.685782   -3.264048    1.165432
   4 C     6.0000    0    12.011   -2.677081   -4.254851    2.679821
   5 C     6.0000    0    12.011   -5.145271   -3.346157    2.296017
   6 S    16.0000    0    32.060    1.321920    0.026286   -2.177135
   7 C     6.0000    0    12.011    3.308400   -1.944547   -0.458769
   8 C     6.0000    0    12.011    2.032930   -3.624948    1.200392
   9 C     6.0000    0    12.011    5.914427   -2.315255   -0.167845
  10 C     6.0000    0    12.011    6.190781   -4.247178    1.661655
  11 N     7.0000    0    14.007    3.838072   -5.045248    2.484215
  12 S    16.0000    0    32.060    8.806218   -1.242400   -1.248296
  13 C     6.0000    0    12.011   10.403188   -3.424996    0.743796
  14 C     6.0000    0    12.011    8.708935   -4.900324    2.152115
  15 S    16.0000    0    32.060   -7.807555   -3.896899    4.308481
  16 C     6.0000    0    12.011   -9.657181   -1.845336    2.508007
  17 C     6.0000    0    12.011   -8.362038   -0.880499    0.388736
  18 C     6.0000    0    12.011  -12.055262   -0.683401    2.568308
  19 C     6.0000    0    12.011  -12.160520    0.906502    0.412584
  20 N     7.0000    0    14.007   -9.943607    0.726581   -0.959036
  21 S    16.0000    0    32.060  -14.764884   -0.375659    4.381500
  22 C     6.0000    0    12.011  -15.970756    1.948497    2.276383
  23 C     6.0000    0    12.011  -14.353169    2.366032    0.236102
  24 O     8.0000    0    15.999   -1.997667   -5.911933    4.523853
  25 O     8.0000    0    15.999   -4.092240    1.637353   -2.543401
  26 C     6.0000    0    12.011   -4.700637    3.969691   -1.243534
  27 C     6.0000    0    12.011   -2.396929    5.460156   -0.356194
  28 C     6.0000    0    12.011   -0.846673    6.450769   -2.586638
  29 C     6.0000    0    12.011   -3.303222    7.610022    1.362247
  30 C     6.0000    0    12.011   -3.667977   -7.853267    5.380938
  31 C     6.0000    0    12.011   -2.203232   -9.705388    7.036320
  32 C     6.0000    0    12.011   -0.999835   -8.375153    9.308073
  33 C     6.0000    0    12.011   -3.951342  -11.854554    7.873752
  34 C     6.0000    0    12.011   -9.807244    1.448229   -3.619619
  35 C     6.0000    0    12.011  -10.826846   -0.550496   -5.474348
  36 C     6.0000    0    12.011    3.607771   -7.299729    4.045337
  37 C     6.0000    0    12.011    4.325904   -9.733469    2.620956
  38 C     6.0000    0    12.011  -13.547730   -1.377308   -4.944979
  39 C     6.0000    0    12.011  -10.573244    0.487304   -8.164694
  40 C     6.0000    0    12.011    4.842669  -11.874680    4.496244
  41 C     6.0000    0    12.011    2.322549  -10.465946    0.670191
  42 C     6.0000    0    12.011   13.046027   -3.860843    0.677070
  43 C     6.0000    0    12.011   15.025345   -2.621088   -0.465836
  44 C     6.0000    0    12.011   17.331132   -4.129373   -1.107398
  45 C     6.0000    0    12.011   18.759897   -2.561921   -2.964565
  46 C     6.0000    0    12.011   17.508955   -0.229961   -3.312520
  47 C     6.0000    0    12.011   15.344217   -0.108981   -1.535308
  48 C     6.0000    0    12.011   20.948880   -3.200138   -4.260709
  49 C     6.0000    0    12.011   21.860579   -1.434699   -5.993096
  50 C     6.0000    0    12.011   20.651437    0.876871   -6.414713
  51 C     6.0000    0    12.011   18.471941    1.508682   -5.061745
  52 C     6.0000    0    12.011  -18.337524    3.138079    2.735473
  53 C     6.0000    0    12.011  -19.178547    5.422248    1.817142
  54 C     6.0000    0    12.011  -21.968709    5.889842    1.631287
  55 C     6.0000    0    12.011  -22.247103    8.129224   -0.064440
  56 C     6.0000    0    12.011  -19.831164    9.073501   -0.686556
  57 C     6.0000    0    12.011  -17.895555    7.597776    0.701825
  58 C     6.0000    0    12.011  -24.461295    9.181839   -1.005485
  59 C     6.0000    0    12.011  -24.203650   11.221969   -2.659582
  60 C     6.0000    0    12.011  -21.837807   12.183197   -3.341867
  61 C     6.0000    0    12.011  -19.632629   11.128503   -2.346284
  62 O     8.0000    0    15.999  -23.652341    4.645438    2.565020
  63 F     9.0000    0    18.998  -26.259937   12.304593   -3.646302
  64 C     6.0000    0    12.011  -15.451969    8.417709    1.160708
  65 C     6.0000    0    12.011  -14.423883   10.646207    0.030878
  66 C     6.0000    0    12.011  -13.768923    7.231037    2.907363
  67 N     7.0000    0    14.007  -13.524808   12.423702   -0.895522
  68 N     7.0000    0    14.007  -12.327080    6.382966    4.330629
  69 O     8.0000    0    15.999   17.858668   -6.241539   -0.382688
  70 F     9.0000    0    18.998   23.952203   -1.960855   -7.304396
  71 C     6.0000    0    12.011   14.188291    2.084708   -0.699973
  72 C     6.0000    0    12.011   14.601971    4.478727   -1.878558
  73 C     6.0000    0    12.011   12.718405    2.149507    1.564844
  74 N     7.0000    0    14.007   11.612310    2.242273    3.459352
  75 N     7.0000    0    14.007   14.903930    6.419097   -2.863729
  76 H     1.0000    0     1.008    9.353351   -6.365108    3.448032
  77 H     1.0000    0     1.008  -14.797935    3.680676   -1.280384
  78 H     1.0000    0     1.008   -5.953922    3.547035    0.361486
  79 H     1.0000    0     1.008   -5.783072    5.098840   -2.616345
  80 H     1.0000    0     1.008   -1.206439    4.173441    0.774655
  81 H     1.0000    0     1.008   -1.939936    7.861847   -3.664368
  82 H     1.0000    0     1.008   -0.319685    4.919241   -3.886600
  83 H     1.0000    0     1.008    0.901267    7.367589   -1.930223
  84 H     1.0000    0     1.008   -4.577805    8.900705    0.333669
  85 H     1.0000    0     1.008   -1.697560    8.736109    2.053830
  86 H     1.0000    0     1.008   -4.339567    6.884102    3.015342
  87 H     1.0000    0     1.008   -4.510965   -8.814420    3.733135
  88 H     1.0000    0     1.008   -5.209899   -7.033315    6.516532
  89 H     1.0000    0     1.008   -0.692037  -10.532389    5.863423
  90 H     1.0000    0     1.008   -2.472877   -7.570829   10.544010
  91 H     1.0000    0     1.008    0.249482   -6.821382    8.724771
  92 H     1.0000    0     1.008    0.117541   -9.715158   10.443515
  93 H     1.0000    0     1.008   -5.498631  -11.140540    9.073652
  94 H     1.0000    0     1.008   -2.893227  -13.257506    8.988029
  95 H     1.0000    0     1.008   -4.802342  -12.840916    6.249400
  96 H     1.0000    0     1.008   -7.831781    1.834017   -4.090218
  97 H     1.0000    0     1.008  -10.873616    3.224043   -3.823842
  98 H     1.0000    0     1.008   -9.594858   -2.225512   -5.288909
  99 H     1.0000    0     1.008    1.672975   -7.382763    4.743005
 100 H     1.0000    0     1.008    4.858921   -7.047488    5.689134
 101 H     1.0000    0     1.008    6.101245   -9.347077    1.596100
 102 H     1.0000    0     1.008  -14.156165   -2.788385   -6.347760
 103 H     1.0000    0     1.008  -14.860939    0.236461   -5.072724
 104 H     1.0000    0     1.008  -13.767449   -2.231143   -3.064096
 105 H     1.0000    0     1.008  -11.818857    2.137053   -8.433640
 106 H     1.0000    0     1.008  -11.124289   -0.945014   -9.568609
 107 H     1.0000    0     1.008   -8.627167    1.093981   -8.585083
 108 H     1.0000    0     1.008    3.129727  -12.368862    5.574201
 109 H     1.0000    0     1.008    6.317373  -11.350527    5.868469
 110 H     1.0000    0     1.008    5.478751  -13.590060    3.505631
 111 H     1.0000    0     1.008    0.571019  -11.090160    1.609404
 112 H     1.0000    0     1.008    2.989131  -12.032075   -0.526497
 113 H     1.0000    0     1.008    1.841614   -8.872170   -0.577387
 114 H     1.0000    0     1.008   13.614362   -5.674980    1.506433
 115 H     1.0000    0     1.008   21.906480   -4.997437   -3.939248
 116 H     1.0000    0     1.008   21.450905    2.174073   -7.804682
 117 H     1.0000    0     1.008   17.561244    3.320098   -5.404503
 118 H     1.0000    0     1.008  -19.759657    2.070686    3.804264
 119 H     1.0000    0     1.008  -26.309996    8.438119   -0.475247
 120 H     1.0000    0     1.008  -21.758590   13.774800   -4.651013
 121 H     1.0000    0     1.008  -17.813541   11.914005   -2.893284

--------------------------------
INTERNAL COORDINATES (ANGSTROEM)
--------------------------------
 C      0   0   0     0.000000000000     0.00000000     0.00000000
 C      1   0   0     1.407763946299     0.00000000     0.00000000
 C      2   1   0     1.390362677757   118.32900309     0.00000000
 C      3   2   1     1.435627342070   123.54563152   357.59685902
 C      4   3   2     1.423903066574   117.95361478   357.36708441
 C      5   4   3     1.406555822461   118.68833163     2.38684735
 S      3   2   1     1.760361441352   121.44772275   181.27717930
 C      7   3   2     1.737689969126    89.36596240   175.57435165
 C      8   7   3     1.420265445436   114.31662319     1.76075937
 C      8   7   3     1.401414347686   137.45828069   184.40971800
 C     10   8   7     1.415563655722   106.13403158   177.98271970
 N     11  10   8     1.384863841971   110.01883777   359.85308599
 S     10   8   7     1.729433921345   142.04077079   358.13247716
 C     13  10   8     1.777473880455    90.64793349   180.43353430
 C     11  10   8     1.400896359835   113.77583787   178.78376864
 S      6   5   4     1.789924458881   126.10740985   191.54770327
 C     16   6   5     1.744819523876    90.87831372   174.02670500
 C     17  16   6     1.409998232410   112.76510618     3.04353464
 C     17  16   6     1.410485641579   139.78093767   188.27538422
 C     19  17  16     1.418551678015   106.00264586   176.72256207
 N     20  19  17     1.382805695895   110.36253132     0.77506886
 S     19  17  16     1.732958034518   142.93110999     1.95917795
 C     22  19  17     1.777857695908    90.86301404   173.06630574
 C     23  22  19     1.395430074027   111.97255572     1.98629486
 O      5   4   3     1.360302380135   116.45546144   186.60706448
 O      2   1   3     1.367551569704   122.19267573   184.53253643
 C     26   2   1     1.449172933262   114.96890954    69.17972059
 C     27  26   2     1.526007043529   114.12737327    85.92516827
 C     28  27  26     1.529998282254   111.59516118    66.08985230
 C     28  27  26     1.533366379343   108.42695609   189.62524297
 C     25   5   4     1.429102855186   121.84258306   208.87603415
 C     31  25   5     1.526024246924   109.25154229   168.57164697
 C     32  31  25     1.531741847245   111.50180772    58.47630844
 C     32  31  25     1.531517701563   109.64775088   182.36148562
 C     21  20  19     1.460574587756   121.99774094   159.33822934
 C     35  21  20     1.540488291192   114.66649422   280.20811310
 C     12  11  10     1.456230321549   120.22376612   169.66419592
 C     37  12  11     1.539866603736   112.75865354   293.31800562
 C     36  35  21     1.530691264331   114.14890503    55.61080899
 C     36  35  21     1.531810883007   108.37929207   179.59026727
 C     38  37  12     1.530826256503   110.23210550   162.54578677
 C     38  37  12     1.529627542574   111.79194630   287.73755930
 C     14  13  10     1.417860277531   124.04795539   172.42049013
 C     43  14  13     1.375955068525   133.17531792    11.70600738
 C     44  43  14     1.497036573167   117.76958682   206.49072907
 C     45  44  43     1.491805151285   105.42895077   163.19523275
 C     46  45  44     1.412414067545   109.51977328     3.19815922
 C     44  43  14     1.454624588579   134.03117405    17.47141374
 C     46  45  44     1.387913734567   127.82513946   184.65579253
 C     49  46  45     1.394975240999   116.77247469   177.15090689
 C     50  49  46     1.398383969981   122.16976425     0.23203662
 C     51  50  49     1.398061197802   120.32840398     0.85300385
 C     23  22  19     1.422637004720   121.00355200   181.35643671
 C     53  23  22     1.376682547649   127.79423916   158.21201796
 C     54  53  23     1.500307300589   119.08394648   155.87987657
 C     55  54  53     1.493726333336   105.50264125   195.73188332
 C     56  55  54     1.411569796999   109.36706860   355.49951744
 C     54  53  23     1.461039192664   133.17284236   342.20091081
 C     56  55  54     1.389653284384   128.05575444   174.00428464
 C     59  56  55     1.396520948572   116.88210981   182.81410525
 C     60  59  56     1.398739039492   122.02553800   359.73688043
 C     61  60  59     1.396704673473   120.33979001   359.23387912
 O     55  54  53     1.213076335521   127.34098729    12.69369496
 F     60  59  56     1.336002878777   119.79826832   179.45104947
 C     58  54  53     1.385391168263   127.56818916   331.04302704
 C     65  58  54     1.429726459467   122.69699269   182.64544093
 C     65  58  54     1.428939313827   123.88291709   358.68004334
 N     66  65  58     1.162510093677   178.11264147   218.85340835
 N     67  65  58     1.162242321592   176.39963794   199.96979851
 O     45  44  43     1.214198583305   127.34041773   346.95444994
 F     50  49  46     1.335712970140   119.23488089   180.44366821
 C     48  44  43     1.384607070688   126.20924152    32.82742917
 C     72  48  44     1.428927076551   122.43098351   180.37394183
 C     72  48  44     1.429186339530   121.88876719     7.29903929
 N     74  72  48     1.161927593011   177.10036661    97.79842147
 N     73  72  48     1.162598835798   178.85039696    91.39963285
 H     15  11  10     1.089676479465   126.14105342   181.69977620
 H     24  23  22     1.087821305224   122.63704064   178.09882601
 H     27  26   2     1.100567914897   109.09306849   321.89200718
 H     27  26   2     1.101305644224   105.33888249   206.38580901
 H     28  27  26     1.103904935581   107.69215972   306.65077897
 H     29  28  27     1.103415733575   110.45429169    65.82726018
 H     29  28  27     1.099007664896   111.48548148   305.77886556
 H     29  28  27     1.100730982620   110.98585121   185.31231176
 H     30  28  27     1.103483013191   110.96941745   299.28066255
 H     30  28  27     1.100448523694   110.94637230   179.83134180
 H     30  28  27     1.101615684393   111.58731905    59.33905724
 H     31  25   5     1.103648364698   109.30085216    46.59696419
 H     31  25   5     1.102343175876   110.35673839   287.67705492
 H     32  31  25     1.102839680960   107.46403207   299.30498473
 H     33  32  31     1.102967083734   110.42063336    63.11348663
 H     33  32  31     1.099267633199   111.92499129   303.22811531
 H     33  32  31     1.101574961861   110.81883044   182.38688505
 H     34  32  31     1.102884550304   111.13755413   296.20441459
 H     34  32  31     1.101081893185   110.39506176   177.05127888
 H     34  32  31     1.101862031018   111.89483752    56.95241759
 H     35  21  20     1.093842584790   108.38926305   158.79390499
 H     35  21  20     1.101447816876   106.99785065    42.62075822
 H     36  35  21     1.104683106099   106.71488276   296.34861800
 H     37  12  11     1.089266176010   107.69717103   170.06382774
 H     37  12  11     1.101282550665   107.36593404    54.45540751
 H     38  37  12     1.103872135123   107.19352803    45.62905352
 H     39  36  35     1.101035643111   110.21438815   179.46396109
 H     39  36  35     1.103063156533   111.10567719    60.50201060
 H     39  36  35     1.099241085568   112.50053626   299.42724762
 H     40  36  35     1.103122914729   110.56613312   294.08877871
 H     40  36  35     1.100658388829   110.93015095   175.00444347
 H     40  36  35     1.101401092064   111.97096233    54.03194329
 H     41  38  37     1.102465177455   111.35295653    63.95470882
 H     41  38  37     1.101463065109   111.56381733   303.81026624
 H     41  38  37     1.100948496388   110.86912135   183.70757864
 H     42  38  37     1.102369375210   110.75595553   290.85713309
 H     42  38  37     1.101038996948   110.90687744   171.39892373
 H     42  38  37     1.100875914079   111.76531318    51.06709508
 H     43  14  13     1.097572875439   113.74071014   200.51404931
 H     49  46  45     1.091006428854   121.51522202   357.21673878
 H     51  50  49     1.091426799057   118.70703279   180.39809559
 H     52  51  50     1.088109766706   119.38518686   179.61730451
 H     53  23  22     1.097848585006   117.63217651   332.17551079
 H     59  56  55     1.091178970563   121.27944672     2.63129504
 H     61  60  59     1.091355018727   118.61227157   179.67070333
 H     62  61  60     1.087752685540   119.09753626   180.40173664

---------------------------
INTERNAL COORDINATES (A.U.)
---------------------------
 C      0   0   0     0.000000000000     0.00000000     0.00000000
 C      1   0   0     2.660288319714     0.00000000     0.00000000
 C      2   1   0     2.627404687786   118.32900309     0.00000000
 C      3   2   1     2.712942506882   123.54563152   357.59685902
 C      4   3   2     2.690786837076   117.95361478   357.36708441
 C      5   4   3     2.658005296524   118.68833163     2.38684735
 S      3   2   1     3.326601020871   121.44772275   181.27717930
 C      7   3   2     3.283758147310    89.36596240   175.57435165
 C      8   7   3     2.683912729346   114.31662319     1.76075937
 C      8   7   3     2.648289317274   137.45828069   184.40971800
 C     10   8   7     2.675027634446   106.13403158   177.98271970
 N     11  10   8     2.617013394096   110.01883777   359.85308599
 S     10   8   7     3.268156478056   142.04077079   358.13247716
 C     13  10   8     3.358938844258    90.64793349   180.43353430
 C     11  10   8     2.647310462096   113.77583787   178.78376864
 S      6   5   4     3.382467027692   126.10740985   191.54770327
 C     16   6   5     3.297231053245    90.87831372   174.02670500
 C     17  16   6     2.664510508568   112.76510618     3.04353464
 C     17  16   6     2.665431578412   139.78093767   188.27538422
 C     19  17  16     2.680674178263   106.00264586   176.72256207
 N     20  19  17     2.613124061668   110.36253132     0.77506886
 S     19  17  16     3.274816086817   142.93110999     1.95917795
 C     22  19  17     3.359664150351    90.86301404   173.06630574
 C     23  22  19     2.636980678949   111.97255572     1.98629486
 O      5   4   3     2.570598957776   116.45546144   186.60706448
 O      2   1   3     2.584297940755   122.19267573   184.53253643
 C     26   2   1     2.738539964557   114.96890954    69.17972059
 C     27  26   2     2.883735390705   114.12737327    85.92516827
 C     28  27  26     2.891277738830   111.59516118    66.08985230
 C     28  27  26     2.897642519921   108.42695609   189.62524297
 C     25   5   4     2.700613013506   121.84258306   208.87603415
 C     31  25   5     2.883767900410   109.25154229   168.57164697
 C     32  31  25     2.894572599159   111.50180772    58.47630844
 C     32  31  25     2.894149025206   109.64775088   182.36148562
 C     21  20  19     2.760085969025   121.99774094   159.33822934
 C     35  21  20     2.911100982865   114.66649422   280.20811310
 C     12  11  10     2.751876495641   120.22376612   169.66419592
 C     37  12  11     2.909926163832   112.75865354   293.31800562
 C     36  35  21     2.892587285172   114.14890503    55.61080899
 C     36  35  21     2.894703057844   108.37929207   179.59026727
 C     38  37  12     2.892842383407   110.23210550   162.54578677
 C     38  37  12     2.890577142367   111.79194630   287.73755930
 C     14  13  10     2.679367620699   124.04795539   172.42049013
 C     43  14  13     2.600178252093   133.17531792    11.70600738
 C     44  43  14     2.828989135750   117.76958682   206.49072907
 C     45  44  43     2.819103181101   105.42895077   163.19523275
 C     46  45  44     2.669075775358   109.51977328     3.19815922
 C     44  43  14     2.748842100083   134.03117405    17.47141374
 C     46  45  44     2.622776855840   127.82513946   184.65579253
 C     49  46  45     2.636121169089   116.77247469   177.15090689
 C     50  49  46     2.642562733330   122.16976425     0.23203662
 C     51  50  49     2.641952782308   120.32840398     0.85300385
 C     23  22  19     2.688394326904   121.00355200   181.35643671
 C     53  23  22     2.601552988405   127.79423916   158.21201796
 C     54  53  23     2.835169914835   119.08394648   155.87987657
 C     55  54  53     2.822733689031   105.50264125   195.73188332
 C     56  55  54     2.667480335243   109.36706860   355.49951744
 C     54  53  23     2.760963945060   133.17284236   342.20091081
 C     56  55  54     2.626064128590   128.05575444   174.00428464
 C     59  56  55     2.639042133085   116.88210981   182.81410525
 C     60  59  56     2.643233717465   122.02553800   359.73688043
 C     61  60  59     2.639389322831   120.33979001   359.23387912
 O     55  54  53     2.292382053675   127.34098729    12.69369496
 F     60  59  56     2.524679555019   119.79826832   179.45104947
 C     58  54  53     2.618009896370   127.56818916   331.04302704
 C     65  58  54     2.701791454813   122.69699269   182.64544093
 C     65  58  54     2.700303965126   123.88291709   358.68004334
 N     66  65  58     2.196825704968   178.11264147   218.85340835
 N     67  65  58     2.196319689062   176.39963794   199.96979851
 O     45  44  43     2.294502794642   127.34041773   346.95444994
 F     50  49  46     2.524131707091   119.23488089   180.44366821
 C     48  44  43     2.616528166692   126.20924152    32.82742917
 C     72  48  44     2.700280840026   122.43098351   180.37394183
 C     72  48  44     2.700770776054   121.88876719     7.29903929
 N     74  72  48     2.195724938237   177.10036661    97.79842147
 N     73  72  48     2.196993403275   178.85039696    91.39963285
 H     15  11  10     2.059190120765   126.14105342   181.69977620
 H     24  23  22     2.055684349519   122.63704064   178.09882601
 H     27  26   2     2.079771950935   109.09306849   321.89200718
 H     27  26   2     2.081166057325   105.33888249   206.38580901
 H     28  27  26     2.086078006132   107.69215972   306.65077897
 H     29  28  27     2.085153548316   110.45429169    65.82726018
 H     29  28  27     2.076823505734   111.48548148   305.77886556
 H     29  28  27     2.080080104274   110.98585121   185.31231176
 H     30  28  27     2.085280688364   110.96941745   299.28066255
 H     30  28  27     2.079546334259   110.94637230   179.83134180
 H     30  28  27     2.081751948334   111.58731905    59.33905724
 H     31  25   5     2.085593157429   109.30085216    46.59696419
 H     31  25   5     2.083126708002   110.35673839   287.67705492
 H     32  31  25     2.084064966636   107.46403207   299.30498473
 H     33  32  31     2.084305722986   110.42063336    63.11348663
 H     33  32  31     2.077314774631   111.92499129   303.22811531
 H     33  32  31     2.081674993903   110.81883044   182.38688505
 H     34  32  31     2.084149757408   111.13755413   296.20441459
 H     34  32  31     2.080743229139   110.39506176   177.05127888
 H     34  32  31     2.082217475991   111.89483752    56.95241759
 H     35  21  20     2.067062918874   108.38926305   158.79390499
 H     35  21  20     2.081434724700   106.99785065    42.62075822
 H     36  35  21     2.087548535296   106.71488276   296.34861800
 H     37  12  11     2.058414759603   107.69717103   170.06382774
 H     37  12  11     2.081122416824   107.36593404    54.45540751
 H     38  37  12     2.086016022249   107.19352803    45.62905352
 H     39  36  35     2.080655829165   110.21438815   179.46396109
 H     39  36  35     2.084487274266   111.10567719    60.50201060
 H     39  36  35     2.077264606877   112.50053626   299.42724762
 H     40  36  35     2.084600200891   110.56613312   294.08877871
 H     40  36  35     2.079942921890   110.93015095   175.00444347
 H     40  36  35     2.081346427603   111.97096233    54.03194329
 H     41  38  37     2.083357257574   111.35295653    63.95470882
 H     41  38  37     2.081463539686   111.56381733   303.81026624
 H     41  38  37     2.080491145727   110.86912135   183.70757864
 H     42  38  37     2.083176217568   110.75595553   290.85713309
 H     42  38  37     2.080662166999   110.90687744   171.39892373
 H     42  38  37     2.080353985040   111.76531318    51.06709508
 H     43  14  13     2.074112146601   113.74071014   200.51404931
 H     49  46  45     2.061703360881   121.51522202   357.21673878
 H     51  50  49     2.062497745440   118.70703279   180.39809559
 H     52  51  50     2.056229462718   119.38518686   179.61730451
 H     53  23  22     2.074633162175   117.63217651   332.17551079
 H     59  56  55     2.062029417459   121.27944672     2.63129504
 H     61  60  59     2.062362100274   118.61227157   179.67070333
 H     62  61  60     2.055554677108   119.09753626   180.40173664

---------------------
BASIS SET INFORMATION
---------------------
There are 6 groups of distinct atoms

 Group   1 Type C   : 11s6p2d1f contracted to 5s3p2d1f pattern {62111/411/11/1}
 Group   2 Type S   : 14s9p3d1f contracted to 5s5p2d1f pattern {73211/51111/21/1}
 Group   3 Type N   : 11s6p2d1f contracted to 5s3p2d1f pattern {62111/411/11/1}
 Group   4 Type O   : 11s6p2d1f contracted to 5s3p2d1f pattern {62111/411/11/1}
 Group   5 Type F   : 11s6p2d1f contracted to 5s3p2d1f pattern {62111/411/11/1}
 Group   6 Type H   : 5s1p contracted to 3s1p pattern {311/1}

Atom   0C    basis set group =>   1
Atom   1C    basis set group =>   1
Atom   2C    basis set group =>   1
Atom   3C    basis set group =>   1
Atom   4C    basis set group =>   1
Atom   5C    basis set group =>   1
Atom   6S    basis set group =>   2
Atom   7C    basis set group =>   1
Atom   8C    basis set group =>   1
Atom   9C    basis set group =>   1
Atom  10C    basis set group =>   1
Atom  11N    basis set group =>   3
Atom  12S    basis set group =>   2
Atom  13C    basis set group =>   1
Atom  14C    basis set group =>   1
Atom  15S    basis set group =>   2
Atom  16C    basis set group =>   1
Atom  17C    basis set group =>   1
Atom  18C    basis set group =>   1
Atom  19C    basis set group =>   1
Atom  20N    basis set group =>   3
Atom  21S    basis set group =>   2
Atom  22C    basis set group =>   1
Atom  23C    basis set group =>   1
Atom  24O    basis set group =>   4
Atom  25O    basis set group =>   4
Atom  26C    basis set group =>   1
Atom  27C    basis set group =>   1
Atom  28C    basis set group =>   1
Atom  29C    basis set group =>   1
Atom  30C    basis set group =>   1
Atom  31C    basis set group =>   1
Atom  32C    basis set group =>   1
Atom  33C    basis set group =>   1
Atom  34C    basis set group =>   1
Atom  35C    basis set group =>   1
Atom  36C    basis set group =>   1
Atom  37C    basis set group =>   1
Atom  38C    basis set group =>   1
Atom  39C    basis set group =>   1
Atom  40C    basis set group =>   1
Atom  41C    basis set group =>   1
Atom  42C    basis set group =>   1
Atom  43C    basis set group =>   1
Atom  44C    basis set group =>   1
Atom  45C    basis set group =>   1
Atom  46C    basis set group =>   1
Atom  47C    basis set group =>   1
Atom  48C    basis set group =>   1
Atom  49C    basis set group =>   1
Atom  50C    basis set group =>   1
Atom  51C    basis set group =>   1
Atom  52C    basis set group =>   1
Atom  53C    basis set group =>   1
Atom  54C    basis set group =>   1
Atom  55C    basis set group =>   1
Atom  56C    basis set group =>   1
Atom  57C    basis set group =>   1
Atom  58C    basis set group =>   1
Atom  59C    basis set group =>   1
Atom  60C    basis set group =>   1
Atom  61C    basis set group =>   1
Atom  62O    basis set group =>   4
Atom  63F    basis set group =>   5
Atom  64C    basis set group =>   1
Atom  65C    basis set group =>   1
Atom  66C    basis set group =>   1
Atom  67N    basis set group =>   3
Atom  68N    basis set group =>   3
Atom  69O    basis set group =>   4
Atom  70F    basis set group =>   5
Atom  71C    basis set group =>   1
Atom  72C    basis set group =>   1
Atom  73C    basis set group =>   1
Atom  74N    basis set group =>   3
Atom  75N    basis set group =>   3
Atom  76H    basis set group =>   6
Atom  77H    basis set group =>   6
Atom  78H    basis set group =>   6
Atom  79H    basis set group =>   6
Atom  80H    basis set group =>   6
Atom  81H    basis set group =>   6
Atom  82H    basis set group =>   6
Atom  83H    basis set group =>   6
Atom  84H    basis set group =>   6
Atom  85H    basis set group =>   6
Atom  86H    basis set group =>   6
Atom  87H    basis set group =>   6
Atom  88H    basis set group =>   6
Atom  89H    basis set group =>   6
Atom  90H    basis set group =>   6
Atom  91H    basis set group =>   6
Atom  92H    basis set group =>   6
Atom  93H    basis set group =>   6
Atom  94H    basis set group =>   6
Atom  95H    basis set group =>   6
Atom  96H    basis set group =>   6
Atom  97H    basis set group =>   6
Atom  98H    basis set group =>   6
Atom  99H    basis set group =>   6
Atom 100H    basis set group =>   6
Atom 101H    basis set group =>   6
Atom 102H    basis set group =>   6
Atom 103H    basis set group =>   6
Atom 104H    basis set group =>   6
Atom 105H    basis set group =>   6
Atom 106H    basis set group =>   6
Atom 107H    basis set group =>   6
Atom 108H    basis set group =>   6
Atom 109H    basis set group =>   6
Atom 110H    basis set group =>   6
Atom 111H    basis set group =>   6
Atom 112H    basis set group =>   6
Atom 113H    basis set group =>   6
Atom 114H    basis set group =>   6
Atom 115H    basis set group =>   6
Atom 116H    basis set group =>   6
Atom 117H    basis set group =>   6
Atom 118H    basis set group =>   6
Atom 119H    basis set group =>   6
Atom 120H    basis set group =>   6
Atom 121H    basis set group =>   6
---------------------------------
AUXILIARY/J BASIS SET INFORMATION
---------------------------------
There are 6 groups of distinct atoms

 Group   1 Type C   : 12s5p4d2f1g contracted to 6s4p3d1f1g pattern {711111/2111/211/2/1}
 Group   2 Type S   : 14s5p5d2f1g contracted to 8s4p3d1f1g pattern {71111111/2111/311/2/1}
 Group   3 Type N   : 12s5p4d2f1g contracted to 6s4p3d1f1g pattern {711111/2111/211/2/1}
 Group   4 Type O   : 12s5p4d2f1g contracted to 6s4p3d1f1g pattern {711111/2111/211/2/1}
 Group   5 Type F   : 12s5p4d2f1g contracted to 6s4p3d1f1g pattern {711111/2111/211/2/1}
 Group   6 Type H   : 5s2p1d contracted to 3s1p1d pattern {311/2/1}

Atom   0C    basis set group =>   1
Atom   1C    basis set group =>   1
Atom   2C    basis set group =>   1
Atom   3C    basis set group =>   1
Atom   4C    basis set group =>   1
Atom   5C    basis set group =>   1
Atom   6S    basis set group =>   2
Atom   7C    basis set group =>   1
Atom   8C    basis set group =>   1
Atom   9C    basis set group =>   1
Atom  10C    basis set group =>   1
Atom  11N    basis set group =>   3
Atom  12S    basis set group =>   2
Atom  13C    basis set group =>   1
Atom  14C    basis set group =>   1
Atom  15S    basis set group =>   2
Atom  16C    basis set group =>   1
Atom  17C    basis set group =>   1
Atom  18C    basis set group =>   1
Atom  19C    basis set group =>   1
Atom  20N    basis set group =>   3
Atom  21S    basis set group =>   2
Atom  22C    basis set group =>   1
Atom  23C    basis set group =>   1
Atom  24O    basis set group =>   4
Atom  25O    basis set group =>   4
Atom  26C    basis set group =>   1
Atom  27C    basis set group =>   1
Atom  28C    basis set group =>   1
Atom  29C    basis set group =>   1
Atom  30C    basis set group =>   1
Atom  31C    basis set group =>   1
Atom  32C    basis set group =>   1
Atom  33C    basis set group =>   1
Atom  34C    basis set group =>   1
Atom  35C    basis set group =>   1
Atom  36C    basis set group =>   1
Atom  37C    basis set group =>   1
Atom  38C    basis set group =>   1
Atom  39C    basis set group =>   1
Atom  40C    basis set group =>   1
Atom  41C    basis set group =>   1
Atom  42C    basis set group =>   1
Atom  43C    basis set group =>   1
Atom  44C    basis set group =>   1
Atom  45C    basis set group =>   1
Atom  46C    basis set group =>   1
Atom  47C    basis set group =>   1
Atom  48C    basis set group =>   1
Atom  49C    basis set group =>   1
Atom  50C    basis set group =>   1
Atom  51C    basis set group =>   1
Atom  52C    basis set group =>   1
Atom  53C    basis set group =>   1
Atom  54C    basis set group =>   1
Atom  55C    basis set group =>   1
Atom  56C    basis set group =>   1
Atom  57C    basis set group =>   1
Atom  58C    basis set group =>   1
Atom  59C    basis set group =>   1
Atom  60C    basis set group =>   1
Atom  61C    basis set group =>   1
Atom  62O    basis set group =>   4
Atom  63F    basis set group =>   5
Atom  64C    basis set group =>   1
Atom  65C    basis set group =>   1
Atom  66C    basis set group =>   1
Atom  67N    basis set group =>   3
Atom  68N    basis set group =>   3
Atom  69O    basis set group =>   4
Atom  70F    basis set group =>   5
Atom  71C    basis set group =>   1
Atom  72C    basis set group =>   1
Atom  73C    basis set group =>   1
Atom  74N    basis set group =>   3
Atom  75N    basis set group =>   3
Atom  76H    basis set group =>   6
Atom  77H    basis set group =>   6
Atom  78H    basis set group =>   6
Atom  79H    basis set group =>   6
Atom  80H    basis set group =>   6
Atom  81H    basis set group =>   6
Atom  82H    basis set group =>   6
Atom  83H    basis set group =>   6
Atom  84H    basis set group =>   6
Atom  85H    basis set group =>   6
Atom  86H    basis set group =>   6
Atom  87H    basis set group =>   6
Atom  88H    basis set group =>   6
Atom  89H    basis set group =>   6
Atom  90H    basis set group =>   6
Atom  91H    basis set group =>   6
Atom  92H    basis set group =>   6
Atom  93H    basis set group =>   6
Atom  94H    basis set group =>   6
Atom  95H    basis set group =>   6
Atom  96H    basis set group =>   6
Atom  97H    basis set group =>   6
Atom  98H    basis set group =>   6
Atom  99H    basis set group =>   6
Atom 100H    basis set group =>   6
Atom 101H    basis set group =>   6
Atom 102H    basis set group =>   6
Atom 103H    basis set group =>   6
Atom 104H    basis set group =>   6
Atom 105H    basis set group =>   6
Atom 106H    basis set group =>   6
Atom 107H    basis set group =>   6
Atom 108H    basis set group =>   6
Atom 109H    basis set group =>   6
Atom 110H    basis set group =>   6
Atom 111H    basis set group =>   6
Atom 112H    basis set group =>   6
Atom 113H    basis set group =>   6
Atom 114H    basis set group =>   6
Atom 115H    basis set group =>   6
Atom 116H    basis set group =>   6
Atom 117H    basis set group =>   6
Atom 118H    basis set group =>   6
Atom 119H    basis set group =>   6
Atom 120H    basis set group =>   6
Atom 121H    basis set group =>   6


           ************************************************************
           *        Program running with 6 parallel MPI-processes     *
           *              working on a common directory               *
           ************************************************************
------------------------------------------------------------------------------
                           ORCA GTO INTEGRAL CALCULATION
                           -- RI-GTO INTEGRALS CHOSEN --
------------------------------------------------------------------------------

                         BASIS SET STATISTICS AND STARTUP INFO

Gaussian basis set:
 # of primitive gaussian shells          ... 1824
 # of primitive gaussian functions       ... 3932
 # of contracted shells                  ... 1028
 # of contracted basis functions         ... 2656
 Highest angular momentum                ...    3
 Maximum contraction depth               ...    7
Auxiliary gaussian basis set:
 # of primitive gaussian shells          ... 2204
 # of primitive gaussian functions       ... 6084
 # of contracted shells                  ... 1378
 # of contracted aux-basis functions     ... 4238
 Highest angular momentum                ...    4
 Maximum contraction depth               ...    7
Ratio of auxiliary to basis functions    ...  1.60
Integral package used                  ... LIBINT
 One Electron integrals                  ... done
 Ordering auxiliary basis shells         ... done
 Integral threshhold             Thresh  ...  2.500e-11
 Primitive cut-off               TCut    ...  2.500e-12
 Pre-screening matrix                    ... done
 Shell pair data                         ... 
 Ordering of the shell pairs             ... done (   0.042 sec) 177146 of 528906 pairs
 Determination of significant pairs      ... done (   0.001 sec)
 Creation of shell pair data             ... done (   0.020 sec)
 Storage of shell pair data              ... done (   0.033 sec)
 Shell pair data done in (   0.095 sec)
 Computing two index integrals           ... done
 Cholesky decomposition of the V-matrix  ... done


Timings:
 Total evaluation time                   ...   7.704 sec (  0.128 min)
 One electron matrix time                ...   2.498 sec (  0.042 min) = 32.4%
 Schwartz matrix evaluation time         ...   3.654 sec (  0.061 min) = 47.4%
 Two index repulsion integral time       ...   0.353 sec (  0.006 min) =  4.6%
 Cholesky decomposition of V             ...   1.088 sec (  0.018 min) = 14.1%
 Three index repulsion integral time     ...   0.000 sec (  0.000 min) =  0.0%



           ************************************************************
           *        Program running with 6 parallel MPI-processes     *
           *              working on a common directory               *
           ************************************************************
-------------------------------------------------------------------------------
                                 ORCA SCF
-------------------------------------------------------------------------------

------------
SCF SETTINGS
------------
Hamiltonian:
 Density Functional     Method          .... DFT(GTOs)
 Exchange Functional    Exchange        .... B88
   X-Alpha parameter    XAlpha          ....  0.666667
   Becke's b parameter  XBeta           ....  0.004200
 Correlation Functional Correlation     .... LYP
 LDA part of GGA corr.  LDAOpt          .... VWN-5
 Gradients option       PostSCFGGA      .... off
 Hybrid DFT is turned on
   Fraction HF Exchange ScalHFX         ....  0.200000
   Scaling of DF-GGA-X  ScalDFX         ....  0.720000
   Scaling of DF-GGA-C  ScalDFC         ....  0.810000
   Scaling of DF-LDA-C  ScalLDAC        ....  1.000000
   Perturbative correction              ....  0.000000
   Density functional embedding theory  .... OFF
   NL short-range parameter             ....  4.800000
 RI-approximation to the Coulomb term is turned on
   Number of auxiliary basis functions  .... 4238
   RIJ-COSX (HFX calculated with COS-X)).... on


General Settings:
 Integral files         IntName         .... SNBDT1-F
 Hartree-Fock type      HFTyp           .... RHF
 Total Charge           Charge          ....    0
 Multiplicity           Mult            ....    1
 Number of Electrons    NEL             ....  562
 Basis Dimension        Dim             .... 2656
 Nuclear Repulsion      ENuc            ....  12507.1327462012 Eh

Convergence Acceleration:
 DIIS                   CNVDIIS         .... on
   Start iteration      DIISMaxIt       ....    12
   Startup error        DIISStart       ....  0.200000
   # of expansion vecs  DIISMaxEq       ....     5
   Bias factor          DIISBfac        ....   1.050
   Max. coefficient     DIISMaxC        ....  10.000
 Newton-Raphson         CNVNR           .... off
 SOSCF                  CNVSOSCF        .... on
   Start iteration      SOSCFMaxIt      ....   150
   Startup grad/error   SOSCFStart      ....  0.003300
 Level Shifting         CNVShift        .... on
   Level shift para.    LevelShift      ....    0.2500
   Turn off err/grad.   ShiftErr        ....    0.0010
 Zerner damping         CNVZerner       .... off
 Static damping         CNVDamp         .... on
   Fraction old density DampFac         ....    0.7000
   Max. Damping (<1)    DampMax         ....    0.9800
   Min. Damping (>=0)   DampMin         ....    0.0000
   Turn off err/grad.   DampErr         ....    0.1000
 Fernandez-Rico         CNVRico         .... off

SCF Procedure:
 Maximum # iterations   MaxIter         ....   125
 SCF integral mode      SCFMode         .... Direct
   Integral package                     .... LIBINT
 Reset frequency        DirectResetFreq ....    20
 Integral Threshold     Thresh          ....  2.500e-11 Eh
 Primitive CutOff       TCut            ....  2.500e-12 Eh

Convergence Tolerance:
 Convergence Check Mode ConvCheckMode   .... Total+1el-Energy
 Convergence forced     ConvForced      .... 1
 Energy Change          TolE            ....  1.000e-08 Eh
 1-El. energy change                    ....  1.000e-05 Eh
 Orbital Gradient       TolG            ....  1.000e-05
 Orbital Rotation angle TolX            ....  1.000e-05
 DIIS Error             TolErr          ....  5.000e-07


Diagonalization of the overlap matrix:
Smallest eigenvalue                        ... 3.584e-06
Time for diagonalization                   ...    2.144 sec
Threshold for overlap eigenvalues          ... 1.000e-08
Number of eigenvalues below threshold      ... 0
Time for construction of square roots      ...    1.885 sec
Total time needed                          ...    4.038 sec

-------------------
DFT GRID GENERATION
-------------------

General Integration Accuracy     IntAcc      ...  4.670
Radial Grid Type                 RadialGrid  ... Gauss-Chebyshev
Angular Grid (max. acc.)         AngularGrid ... Lebedev-302
Angular grid pruning method      GridPruning ... 3 (G Style)
Weight generation scheme         WeightScheme... Becke
Basis function cutoff            BFCut       ...    1.0000e-11
Integration weight cutoff        WCut        ...    1.0000e-14
Grids for H and He will be reduced by one unit

# of grid points (after initial pruning)     ... 630892 (   0.0 sec)
# of grid points (after weights+screening)   ... 531406 (   4.9 sec)
nearest neighbour list constructed           ...    0.0 sec
Grid point re-assignment to atoms done       ...    0.1 sec
Grid point division into batches done        ...    1.9 sec
Reduced shell lists constructed in    4.2 sec

Total number of grid points                  ...   531406
Total number of batches                      ...     8365
Average number of points per batch           ...       63
Average number of grid points per atom       ...     4356
Average number of shells per batch           ...   251.07 (24.42%)
Average number of basis functions per batch  ...   608.70 (22.92%)
Average number of large shells per batch     ...   142.35 (56.70%)
Average number of large basis fcns per batch ...   360.76 (59.27%)
Maximum spatial batch extension              ...  10.93, 16.77, 17.14 au
Average spatial batch extension              ...   0.24,  0.28,  0.28 au

Time for grid setup =    9.291 sec

------------------------------
INITIAL GUESS: MODEL POTENTIAL
------------------------------
Loading Hartree-Fock densities                     ... done
Calculating cut-offs                               ... done
Setting up the integral package                    ... done
Initializing the effective Hamiltonian             ... done
Starting the Coulomb interaction                   ... done (   6.1 sec)
Reading the grid                                   ... done
Mapping shells                                     ... done
Starting the XC term evaluation                    ... done (   4.4 sec)
  promolecular density results
     # of electrons  =    561.976123288
     EX              =   -514.622361506
     EC              =    -19.745264877
     EX+EC           =   -534.367626382
Transforming the Hamiltonian                       ... done (   1.7 sec)
Diagonalizing the Hamiltonian                      ... done (   2.2 sec)
Back transforming the eigenvectors                 ... done (   0.9 sec)
Now organizing SCF variables                       ... done
                      ------------------
                      INITIAL GUESS DONE (  24.8 sec)
                      ------------------
--------------------
COSX GRID GENERATION
--------------------

General Integration Accuracy     IntAcc      ...  3.340
Radial Grid Type                 RadialGrid  ... Gauss-Chebyshev
Angular Grid (max. acc.)         AngularGrid ... Lebedev-50
Angular grid pruning method      GridPruning ... 3 (G Style)
Weight generation scheme         WeightScheme... Becke
Basis function cutoff            BFCut       ...    1.0000e-11
Integration weight cutoff        WCut        ...    1.0000e-14
Grids for H and He will be reduced by one unit

# of grid points (after initial pruning)     ...  59220 (   0.0 sec)
# of grid points (after weights+screening)   ...  52170 (   0.5 sec)
nearest neighbour list constructed           ...    0.0 sec
Grid point re-assignment to atoms done       ...    0.0 sec
Grid point division into batches done        ...    0.0 sec
Reduced shell lists constructed in    0.3 sec

Total number of grid points                  ...    52170
Total number of batches                      ...      873
Average number of points per batch           ...       59
Average number of grid points per atom       ...      428
Average number of shells per batch           ...   294.01 (28.60%)
Average number of basis functions per batch  ...   720.57 (27.13%)
Average number of large shells per batch     ...   167.73 (57.05%)
Average number of large basis fcns per batch ...   427.78 (59.37%)
Maximum spatial batch extension              ...   8.54, 14.74, 18.67 au
Average spatial batch extension              ...   0.46,  0.61,  0.65 au

Overlap Fitting                  UseSFitting ... on
Constructing numerical overlap ... done (      0.8 sec)
Inverting numerical overlap    ... done (      0.6 sec)
Obtaining analytic overlap     ... done (      0.0 sec)
Final contraction and storage  ... done (      3.8 sec)


General Integration Accuracy     IntAcc      ...  3.670
Radial Grid Type                 RadialGrid  ... Gauss-Chebyshev
Angular Grid (max. acc.)         AngularGrid ... Lebedev-50
Angular grid pruning method      GridPruning ... 3 (G Style)
Weight generation scheme         WeightScheme... Becke
Basis function cutoff            BFCut       ...    1.0000e-11
Integration weight cutoff        WCut        ...    1.0000e-14
Grids for H and He will be reduced by one unit

# of grid points (after initial pruning)     ...  74464 (   0.0 sec)
# of grid points (after weights+screening)   ...  65272 (   0.6 sec)
nearest neighbour list constructed           ...    0.0 sec
Grid point re-assignment to atoms done       ...    0.0 sec
Grid point division into batches done        ...    0.0 sec
Reduced shell lists constructed in    0.4 sec

Total number of grid points                  ...    65272
Total number of batches                      ...     1081
Average number of points per batch           ...       60
Average number of grid points per atom       ...      535
Average number of shells per batch           ...   289.37 (28.15%)
Average number of basis functions per batch  ...   708.88 (26.69%)
Average number of large shells per batch     ...   163.69 (56.57%)
Average number of large basis fcns per batch ...   417.34 (58.87%)
Maximum spatial batch extension              ...   8.44, 16.09, 18.88 au
Average spatial batch extension              ...   0.44,  0.54,  0.58 au

Overlap Fitting                  UseSFitting ... on
Constructing numerical overlap ... done (      1.0 sec)
Inverting numerical overlap    ... done (      0.6 sec)
Obtaining analytic overlap     ... done (      0.0 sec)
Final contraction and storage  ... done (      3.8 sec)


General Integration Accuracy     IntAcc      ...  4.010
Radial Grid Type                 RadialGrid  ... Gauss-Chebyshev
Angular Grid (max. acc.)         AngularGrid ... Lebedev-110
Angular grid pruning method      GridPruning ... 3 (G Style)
Weight generation scheme         WeightScheme... Becke
Basis function cutoff            BFCut       ...    1.0000e-11
Integration weight cutoff        WCut        ...    1.0000e-14
Grids for H and He will be reduced by one unit

# of grid points (after initial pruning)     ... 142724 (   0.0 sec)
# of grid points (after weights+screening)   ... 124252 (   1.1 sec)
nearest neighbour list constructed           ...    0.0 sec
Grid point re-assignment to atoms done       ...    0.0 sec
Grid point division into batches done        ...    0.1 sec
Reduced shell lists constructed in    0.7 sec

Total number of grid points                  ...   124252
Total number of batches                      ...     2001
Average number of points per batch           ...       62
Average number of grid points per atom       ...     1018
Average number of shells per batch           ...   275.54 (26.80%)
Average number of basis functions per batch  ...   672.96 (25.34%)
Average number of large shells per batch     ...   157.81 (57.27%)
Average number of large basis fcns per batch ...   401.36 (59.64%)
Maximum spatial batch extension              ...  10.58, 16.66, 18.25 au
Average spatial batch extension              ...   0.38,  0.45,  0.46 au

Overlap Fitting                  UseSFitting ... on
Constructing numerical overlap ... done (      1.6 sec)
Inverting numerical overlap    ... done (      0.6 sec)
Obtaining analytic overlap     ... done (      0.0 sec)
Final contraction and storage  ... done (      3.8 sec)

Time for X-Grid setup             =   20.553 sec
--------------
SCF ITERATIONS
--------------
ITER       Energy         Delta-E        Max-DP      RMS-DP      [F,P]     Damp
               ***  Starting incremental Fock matrix formation  ***
  0  -4733.0817048417   0.000000000000 0.17822896  0.00077739  0.3143559 0.7000
  1  -4733.9919501913  -0.910245349658 0.16602528  0.00064909  0.1001948 0.7000
                               ***Turning on DIIS***
  2  -4734.3134813792  -0.321531187888 0.19327955  0.00090214  0.0496885 0.0000
  3  -4734.8657397370  -0.552258357755 0.16254584  0.00059944  0.0563731 0.0000
  4  -4734.9734896150  -0.107749878071 0.05037270  0.00018702  0.0418182 0.0000
  5  -4734.9875181106  -0.014028495540 0.02229686  0.00008787  0.0116570 0.0000
                      *** Initiating the SOSCF procedure ***
                           *** Shutting down DIIS ***
                      *** Re-Reading the Fockian *** 
                      *** Removing any level shift *** 
ITER      Energy       Delta-E        Grad      Rot      Max-DP    RMS-DP
  6  -4734.98857893  -0.0010608224  0.001409  0.001409  0.007240  0.000028
               *** Restarting incremental Fock matrix formation ***
  7  -4734.98871378  -0.0001348482  0.000849  0.010685  0.005784  0.000044
  8  -4734.98874934  -0.0000355601  0.000339  0.008242  0.004210  0.000026
  9  -4734.98876040  -0.0000110599  0.000623  0.006407  0.002983  0.000022
 10  -4734.98877752  -0.0000171183  0.000151  0.001069  0.001098  0.000009
 11  -4734.98877737   0.0000001544  0.000157  0.001100  0.000849  0.000007
 12  -4734.98878064  -0.0000032722  0.000068  0.000684  0.000720  0.000004
 13  -4734.98878022   0.0000004157  0.000075  0.000712  0.000450  0.000003
 14  -4734.98878145  -0.0000012291  0.000049  0.000207  0.000246  0.000002
 15  -4734.98878112   0.0000003282  0.000060  0.000186  0.000199  0.000002
 16  -4734.98878164  -0.0000005165  0.000007  0.000034  0.000173  0.000001
 17  -4734.98878163   0.0000000130  0.000012  0.000038  0.000130  0.000000
                  ***Gradient check signals convergence***
              ***Rediagonalizing the Fockian in SOSCF/NRSCF***

               *****************************************************
               *                     SUCCESS                       *
               *           SCF CONVERGED AFTER  18 CYCLES          *
               *****************************************************

Setting up the final grid:

General Integration Accuracy     IntAcc      ...  5.010
Radial Grid Type                 RadialGrid  ... Gauss-Chebyshev
Angular Grid (max. acc.)         AngularGrid ... Lebedev-434
Angular grid pruning method      GridPruning ... 3 (G Style)
Weight generation scheme         WeightScheme... Becke
Basis function cutoff            BFCut       ...    1.0000e-11
Integration weight cutoff        WCut        ...    1.0000e-14
Grids for H and He will be reduced by one unit

# of grid points (after initial pruning)     ... 1125216 (   0.0 sec)
# of grid points (after weights+screening)   ... 944254 (   8.4 sec)
nearest neighbour list constructed           ...    0.0 sec
Grid point re-assignment to atoms done       ...    0.1 sec
Grid point division into batches done        ...    6.3 sec
Reduced shell lists constructed in   10.1 sec

Total number of grid points                  ...   944254
Total number of batches                      ...    14817
Average number of points per batch           ...       63
Average number of grid points per atom       ...     7740
Average number of shells per batch           ...   244.72 (23.81%)
Average number of basis functions per batch  ...   592.03 (22.29%)
Average number of large shells per batch     ...   138.70 (56.68%)
Average number of large basis fcns per batch ...   351.28 (59.33%)
Maximum spatial batch extension              ...  12.40, 17.33, 17.86 au
Average spatial batch extension              ...   0.20,  0.22,  0.22 au

Final grid set up in   18.8 sec
Final integration                            ... done (  10.5 sec)
Change in XC energy                          ...    -0.000039757
Integrated number of electrons               ...   561.999607713
Previous integrated no of electrons          ...   561.999283412
Old exchange energy                            =   -104.032200362 Eh
New exchange energy                            =   -104.033248721 Eh
Exchange energy change after final integration =     -0.001048358 Eh
Total energy after final integration           =  -4734.989869799 Eh
Final COS-X integration done in                =   313.599 sec

----------------
TOTAL SCF ENERGY
----------------

Total Energy       :        -4734.98986980 Eh         -128845.62474 eV

Components:
Nuclear Repulsion  :        12507.13274620 Eh          340336.38439 eV
Electronic Energy  :       -17242.12261600 Eh         -469182.00913 eV
One Electron Energy:       -31397.94910002 Eh         -854381.63093 eV
Two Electron Energy:        14155.82648401 Eh          385199.62180 eV

Virial components:
Potential Energy   :        -9452.31592550 Eh         -257210.59267 eV
Kinetic Energy     :         4717.32605570 Eh          128364.96792 eV
Virial Ratio       :            2.00374445


DFT components:
N(Alpha)           :      280.999803856338 electrons
N(Beta)            :      280.999803856338 electrons
N(Total)           :      561.999607712676 electrons
E(X)               :     -413.527049056928 Eh       
E(C)               :      -23.197170724368 Eh       
E(XC)              :     -436.724219781296 Eh       
DFET-embed. en.    :        0.000000000000 Eh       

---------------
SCF CONVERGENCE
---------------

  Last Energy change         ...   -5.8453e-08  Tolerance :   1.0000e-08
  Last MAX-Density change    ...    3.3307e-15  Tolerance :   1.0000e-07
  Last RMS-Density change    ...    1.2108e-17  Tolerance :   5.0000e-09
  Last Orbital Gradient      ...    2.2839e-06  Tolerance :   1.0000e-05
  Last Orbital Rotation      ...    1.7318e-05  Tolerance :   1.0000e-05

             **** THE GBW FILE WAS UPDATED (SNBDT1-F.gbw) ****
             **** DENSITY FILE WAS UPDATED (SNBDT1-F.scfp) ****
             **** ENERGY FILE WAS UPDATED (SNBDT1-F.en.tmp) ****
             **** THE GBW FILE WAS UPDATED (SNBDT1-F.gbw) ****
             **** DENSITY FILE WAS UPDATED (SNBDT1-F.scfp) ****
----------------
ORBITAL ENERGIES
----------------

  NO   OCC          E(Eh)            E(eV) 
   0   2.0000     -88.909393     -2419.3476 
   1   2.0000     -88.904910     -2419.2256 
   2   2.0000     -88.903001     -2419.1736 
   3   2.0000     -88.897683     -2419.0289 
   4   2.0000     -24.718887      -672.6351 
   5   2.0000     -24.712333      -672.4568 
   6   2.0000     -19.184759      -522.0438 
   7   2.0000     -19.169760      -521.6357 
   8   2.0000     -19.131912      -520.6058 
   9   2.0000     -19.125091      -520.4202 
  10   2.0000     -14.394502      -391.6943 
  11   2.0000     -14.393774      -391.6745 
  12   2.0000     -14.332357      -390.0033 
  13   2.0000     -14.330986      -389.9660 
  14   2.0000     -14.324555      -389.7910 
  15   2.0000     -14.320567      -389.6824 
  16   2.0000     -10.294264      -280.1212 
  17   2.0000     -10.286685      -279.9149 
  18   2.0000     -10.279154      -279.7100 
  19   2.0000     -10.275781      -279.6182 
  20   2.0000     -10.271656      -279.5060 
  21   2.0000     -10.260743      -279.2090 
  22   2.0000     -10.259657      -279.1795 
  23   2.0000     -10.259493      -279.1750 
  24   2.0000     -10.252822      -278.9935 
  25   2.0000     -10.250865      -278.9402 
  26   2.0000     -10.250786      -278.9381 
  27   2.0000     -10.250231      -278.9230 
  28   2.0000     -10.247759      -278.8557 
  29   2.0000     -10.240629      -278.6617 
  30   2.0000     -10.239189      -278.6225 
  31   2.0000     -10.238894      -278.6145 
  32   2.0000     -10.235929      -278.5338 
  33   2.0000     -10.235675      -278.5269 
  34   2.0000     -10.234926      -278.5065 
  35   2.0000     -10.234840      -278.5042 
  36   2.0000     -10.233826      -278.4766 
  37   2.0000     -10.232955      -278.4529 
  38   2.0000     -10.232652      -278.4446 
  39   2.0000     -10.231753      -278.4202 
  40   2.0000     -10.230925      -278.3976 
  41   2.0000     -10.230019      -278.3730 
  42   2.0000     -10.228529      -278.3324 
  43   2.0000     -10.227465      -278.3035 
  44   2.0000     -10.227204      -278.2964 
  45   2.0000     -10.226817      -278.2858 
  46   2.0000     -10.225927      -278.2616 
  47   2.0000     -10.225903      -278.2610 
  48   2.0000     -10.225056      -278.2379 
  49   2.0000     -10.224397      -278.2200 
  50   2.0000     -10.219885      -278.0972 
  51   2.0000     -10.219848      -278.0962 
  52   2.0000     -10.218541      -278.0606 
  53   2.0000     -10.218335      -278.0550 
  54   2.0000     -10.218121      -278.0492 
  55   2.0000     -10.217177      -278.0235 
  56   2.0000     -10.216047      -277.9928 
  57   2.0000     -10.215992      -277.9913 
  58   2.0000     -10.215857      -277.9876 
  59   2.0000     -10.211342      -277.8647 
  60   2.0000     -10.210712      -277.8476 
  61   2.0000     -10.209067      -277.8028 
  62   2.0000     -10.208531      -277.7882 
  63   2.0000     -10.206541      -277.7341 
  64   2.0000     -10.203693      -277.6566 
  65   2.0000     -10.199741      -277.5491 
  66   2.0000     -10.199287      -277.5367 
  67   2.0000     -10.185376      -277.1582 
  68   2.0000     -10.183499      -277.1071 
  69   2.0000     -10.183189      -277.0987 
  70   2.0000     -10.179798      -277.0064 
  71   2.0000     -10.179708      -277.0039 
  72   2.0000     -10.179680      -277.0032 
  73   2.0000     -10.177637      -276.9476 
  74   2.0000     -10.165630      -276.6208 
  75   2.0000     -10.162378      -276.5324 
  76   2.0000      -7.984561      -217.2710 
  77   2.0000      -7.980413      -217.1581 
  78   2.0000      -7.978667      -217.1106 
  79   2.0000      -7.973636      -216.9737 
  80   2.0000      -5.947414      -161.8374 
  81   2.0000      -5.943654      -161.7351 
  82   2.0000      -5.943513      -161.7312 
  83   2.0000      -5.941511      -161.6767 
  84   2.0000      -5.940653      -161.6534 
  85   2.0000      -5.939891      -161.6326 
  86   2.0000      -5.937752      -161.5744 
  87   2.0000      -5.936658      -161.5447 
  88   2.0000      -5.935766      -161.5204 
  89   2.0000      -5.934665      -161.4904 
  90   2.0000      -5.932924      -161.4431 
  91   2.0000      -5.929180      -161.3412 
  92   2.0000      -1.257169       -34.2093 
[...]
Constructing the preconditioner                ... o.k.
Building the initial guess                     ... o.k.
Number of trial vectors determined             ...     15


                       ****Iteration    0****
                <<< Triplet sigma vectors requested >>>

   Memory handling for direct AO based CIS:
   Memory per vector needed      ...   209 MB
   Memory needed                 ...  1889 MB
   Memory available              ...  6000 MB
   Number of vectors per batch   ...    28
   Number of batches             ...     1
   Time for densities:    15.199
   Time for K (COSX):   385.142
   Time for XC-Integration:    14.281
   Time for Sigma-Completion:    27.317
   Size of expansion space: 9
   Lowest Energy          :     0.046360188828
   Maximum Energy change  :     0.070062058341 (vector 2)
   Maximum residual norm  :     0.000481060693

                       ****Iteration    1****
   Time for densities:     5.066
   Time for K (COSX):   301.458
   Time for XC-Integration:     5.019
   Time for Sigma-Completion:     9.098
   Size of expansion space: 12
   Lowest Energy          :     0.044307484437
   Maximum Energy change  :     0.003546652430 (vector 2)
   Maximum residual norm  :     0.000027378922

                       ****Iteration    2****
   Time for densities:     5.073
   Time for K (COSX):   302.098
   Time for XC-Integration:     4.993
   Time for Sigma-Completion:     9.098
   Size of expansion space: 15
   Lowest Energy          :     0.044211722212
   Maximum Energy change  :     0.000251779546 (vector 2)
   Maximum residual norm  :     0.000004496944
   Rebuilding the expansion space

                       ****Iteration    3****
   Time for densities:    10.196
   Time for K (COSX):   302.990
   Time for XC-Integration:     9.936
   Time for Sigma-Completion:    18.249
   Size of expansion space: 6
   Lowest Energy          :     0.044208451774
   Maximum Energy change  :     0.000030913100 (vector 2)
   Maximum residual norm  :     0.000000772796

                       ****Iteration    4****
   Time for densities:     5.100
   Time for K (COSX):   305.733
   Time for XC-Integration:     5.020
   Time for Sigma-Completion:     9.120
   Size of expansion space: 9
   Lowest Energy          :     0.044208258163
   Maximum Energy change  :     0.000008998186 (vector 2)
   Maximum residual norm  :     0.000000196846

      *** CONVERGENCE OF RESIDUAL NORM REACHED ***

Storing the converged CI vectors               ... SNBDT1-F.cis3

                 *** DAVIDSON DONE ***

------------------------------------
TD-DFT/TDA EXCITED STATES (TRIPLETS)
------------------------------------

the weight of the individual excitations are printed if larger than 1.0e-02

STATE  1:  E=   0.044208 au      1.203 eV     9702.6 cm**-1
   278a -> 281a  :     0.035880 (c= -0.18942081)
   278a -> 282a  :     0.040238 (c= -0.20059441)
   279a -> 281a  :     0.011426 (c= -0.10689396)
   280a -> 281a  :     0.867010 (c= -0.93113385)
   280a -> 282a  :     0.011683 (c=  0.10808857)

STATE  2:  E=   0.052769 au      1.436 eV    11581.4 cm**-1
   278a -> 281a  :     0.164201 (c= -0.40521782)
   278a -> 282a  :     0.019428 (c=  0.13938525)
   279a -> 282a  :     0.040754 (c= -0.20187625)
   280a -> 282a  :     0.724287 (c= -0.85105046)

STATE  3:  E=   0.066224 au      1.802 eV    14534.4 cm**-1
   277a -> 281a  :     0.028432 (c= -0.16861892)
   277a -> 282a  :     0.044419 (c= -0.21075913)
   278a -> 281a  :     0.065229 (c=  0.25539961)
   278a -> 282a  :     0.034565 (c=  0.18591695)
   279a -> 281a  :     0.689027 (c=  0.83007620)
   279a -> 282a  :     0.034382 (c= -0.18542261)
   280a -> 281a  :     0.045632 (c= -0.21361711)

------------------------------
TD-DFT/TDA SPIN-ORBIT COUPLING
------------------------------

Calculating the spin-orbit integrals:             

Loading the effective charges         ... done
Entering the SOC calc. section        ... 
------------------------------------------------------------------------------
                         ORCA SPIN-ORBIT COUPLING CALCULATION
------------------------------------------------------------------------------

GBW file                                    ... SNBDT1-F.gbw
Input density                               ... SNBDT1-F.cisp0
Output integrals                            ... SNBDT1-F.cis
Operator type                               ... Mean-field/Effective potential
   One-Electron Terms                       ... 1
   Coulomb Contribution                     ... 2
   Exchange Contribution                    ... 3
   Correlation Contribution                 ... 0
   Maximum number of centers                ... 4
Setting up the integration grid             ... done
Evaluating density on the grid              ... (NumEl=  561.999283) done
Evaluating Coulomb term semi-analytically   ... done
One-Center Exchange (+SOO)                  ... done
Evaluating the spin-orbit operator          ... done
Transforming the SOC integrals              ... done
Constructing the SOC matrix:                ... done
Diagonalizing the SOC matrix:               ... done

      --------------------------------------------------------------------------------
                      CALCULATED SOCME BETWEEN TRIPLETS AND SINGLETS                  
      --------------------------------------------------------------------------------
           Root                          <T|HSO|S>  (Re, Im) cm-1                     
         T      S             Z                     X                     Y           
      --------------------------------------------------------------------------------
         1      0    (   0.00 ,    1.88 )    (   0.00 ,   -1.24 )    (  -0.00 ,    0.20 )
         1      1    (   0.00 ,    0.65 )    (   0.00 ,   -0.62 )    (  -0.00 ,    0.25 )
         1      2    (   0.00 ,    0.87 )    (   0.00 ,   -0.62 )    (  -0.00 ,    0.56 )
         1      3    (   0.00 ,   -0.06 )    (   0.00 ,   -0.32 )    (  -0.00 ,    0.10 )
         2      0    (   0.00 ,    0.91 )    (   0.00 ,   -2.59 )    (  -0.00 ,   -0.22 )
         2      1    (   0.00 ,    0.39 )    (   0.00 ,    0.09 )    (  -0.00 ,    0.35 )
         2      2    (   0.00 ,    0.01 )    (   0.00 ,   -0.54 )    (  -0.00 ,   -0.26 )
         2      3    (   0.00 ,   -0.42 )    (   0.00 ,   -0.02 )    (  -0.00 ,   -0.24 )
         3      0    (   0.00 ,    3.34 )    (   0.00 ,   -0.34 )    (  -0.00 ,    1.90 )
         3      1    (   0.00 ,   -0.14 )    (   0.00 ,   -0.02 )    (  -0.00 ,    0.04 )
         3      2    (   0.00 ,    0.18 )    (   0.00 ,   -0.02 )    (  -0.00 ,    0.08 )
         3      3    (   0.00 ,    0.24 )    (   0.00 ,    0.03 )    (  -0.00 ,    0.26 )

SOC stabilization of the ground state:  -0.0022 cm-1
Eigenvalues of the SOC matrix:

   State:        cm-1         eV
     0:          0.00         0.0000
     1:       9702.59         1.2030
     2:       9702.59         1.2030
     3:       9702.59         1.2030
     4:      11581.39         1.4359
     5:      11581.39         1.4359
     6:      11581.39         1.4359
     7:      13317.06         1.6511
     8:      14534.43         1.8020
     9:      14534.43         1.8020
    10:      14534.43         1.8020
    11:      15728.09         1.9500
    12:      17114.20         2.1219

The threshold for printing is 0.0100
Eigenvectors of the SOC matrix:

             E(cm-1)  Weight      Real         Imag     : Root  Spin  Ms
 STATE  0:      0.00
                      1.00000     -0.98483      0.17351 : 0     0     0
 STATE  1:   9702.59
                      0.03540     -0.16435      0.09158 : 1     1     0
                      0.48230     -0.54454     -0.43102 : 1     1    -1
                      0.48230     -0.08003     -0.68985 : 1     1     1
 STATE  2:   9702.59
                      0.22881      0.12842      0.46078 : 1     1     0
                      0.38560      0.43192      0.44613 : 1     1    -1
                      0.38560      0.13890     -0.60523 : 1     1     1
 STATE  3:   9702.59
                      0.73579     -0.65485      0.55404 : 1     1     0
                      0.13210      0.26102     -0.25293 : 1     1    -1
                      0.13210     -0.29267      0.21552 : 1     1     1
 STATE  4:  11581.39
                      0.25006     -0.47913      0.14316 : 2     1     0
                      0.37497     -0.30695     -0.52986 : 2     1    -1
                      0.37497     -0.03405     -0.61140 : 2     1     1
 STATE  5:  11581.39
                      0.58121      0.07321      0.75885 : 2     1     0
                      0.20940      0.40337      0.21607 : 2     1    -1
                      0.20940      0.35462     -0.28920 : 2     1     1
 STATE  6:  11581.39
                      0.16873     -0.11623     -0.39398 : 2     1     0
                      0.41564      0.16475      0.62329 : 2     1    -1
                      0.41564     -0.19995     -0.61291 : 2     1     1
 STATE  7:  13317.06
                      1.00000     -0.90873      0.41739 : 1     0     0
 STATE  8:  14534.43
                      0.04311     -0.20603      0.02579 : 3     1     0
                      0.47844      0.67035     -0.17050 : 3     1    -1
                      0.47844     -0.69170      0.00000 : 3     1     1
 STATE  9:  14534.43
                      0.18468      0.09619      0.41885 : 3     1     0
                      0.40766     -0.57451      0.27856 : 3     1    -1
                      0.40766     -0.63848     -0.00000 : 3     1     1
 STATE 10:  14534.43
                      0.77220      0.24029     -0.84526 : 3     1     0
                      0.11390     -0.28702     -0.17754 : 3     1    -1
                      0.11390     -0.33749      0.00000 : 3     1     1
 STATE 11:  15728.09
                      1.00000      0.96076     -0.27739 : 2     0     0
 STATE 12:  17114.20
                      1.00000      0.99241      0.12295 : 3     0     0

-----------------------------
TD-DFT/TDA-EXCITATION SPECTRA
-----------------------------

Center of mass = ( -2.3359,  0.3192,  0.1629)
Calculating the Dipole integrals                  ... done
Transforming integrals                            ... done
Calculating the Linear Momentum integrals         ... done
Transforming integrals                            ... done
Calculating angular momentum integrals            ... done
Transforming integrals                            ... done

-----------------------------------------------------------------------------
         ABSORPTION SPECTRUM VIA TRANSITION ELECTRIC DIPOLE MOMENTS
-----------------------------------------------------------------------------
State   Energy    Wavelength  fosc         T2        TX        TY        TZ  
        (cm-1)      (nm)                 (au**2)    (au)      (au)      (au) 
-----------------------------------------------------------------------------
   1   13317.1    750.9   1.018074124  25.16789   4.81370  -1.31368  -0.52007
   2   15728.1    635.8   0.381768245   7.99097  -2.73428  -0.52325   0.49081
   3   17114.2    584.3   0.529699062  10.18939   2.98893  -1.11425   0.11900
   4    9702.6   1030.7   spin forbidden (mult=3)
   5   11581.4    863.5   spin forbidden (mult=3)
   6   14534.4    688.0   spin forbidden (mult=3)

-----------------------------------------------------------------------------
         ABSORPTION SPECTRUM VIA TRANSITION VELOCITY DIPOLE MOMENTS
-----------------------------------------------------------------------------
State   Energy    Wavelength   fosc        P2         PX        PY        PZ  
        (cm-1)      (nm)                 (au**2)     (au)      (au)      (au) 
-----------------------------------------------------------------------------
   1   13317.1    750.9   0.190411774   0.01733  -0.09332   0.05437  -0.07528
   2   15728.1    635.8   0.088725016   0.00954   0.06638  -0.06810   0.02224
   3   17114.2    584.3   0.280029632   0.03275  -0.15792  -0.02593   0.08451
   4    9702.6   1030.7   spin forbidden (mult=3)
   5   11581.4    863.5   spin forbidden (mult=3)
   6   14534.4    688.0   spin forbidden (mult=3)

-------------------------------------------------------------------
                             CD SPECTRUM
-------------------------------------------------------------------
State  Energy     Wavelength     R         MX        MY        MZ   
       (cm-1)       (nm)     (1e40*cgs)   (au)      (au)      (au)  
-------------------------------------------------------------------
   1   13317.1    750.9    -109.44715   0.14668   0.48480   0.57946
   2   15728.1    635.8    -73.89627   0.03454  -0.08338  -0.21579
   3   17114.2    584.3    107.68629   0.12150   0.16749   0.43601
   4    9702.6   1030.7 spin forbidden
   5   11581.4    863.5 spin forbidden
   6   14534.4    688.0 spin forbidden

-------------------------------------------
SOC CORRECTED TD-DFT/TDA-EXCITATION SPECTRA
--------------------------------------------

-----------------------------------------------------------------------------
  SOC CORRECTED ABSORPTION SPECTRUM VIA TRANSITION ELECTRIC DIPOLE MOMENTS*  
-----------------------------------------------------------------------------
State   Energy  Wavelength   fosc         T2         TX        TY        TZ  
        (cm-1)    (nm)                  (au**2)     (au)      (au)      (au) 
-----------------------------------------------------------------------------
   1    9702.6   1030.7   0.000000002   0.00000   0.00023   0.00005   0.00002
   2    9702.6   1030.7   0.000000002   0.00000   0.00029   0.00002   0.00002
   3    9702.6   1030.7   0.000000068   0.00000   0.00135   0.00070   0.00000
   4   11581.4    863.5   0.000000012   0.00000   0.00056   0.00014   0.00005
   5   11581.4    863.5   0.000000003   0.00000   0.00027   0.00002   0.00013
   6   11581.4    863.5   0.000000041   0.00000   0.00094   0.00055   0.00000
   7   13317.1    750.9   1.018074536  25.16789   4.81370   1.31368   0.52007
   8   14534.4    688.0   0.000000045   0.00000   0.00092   0.00041   0.00003
   9   14534.4    688.0   0.000000003   0.00000   0.00023   0.00007   0.00004
  10   14534.4    688.0   0.000000036   0.00000   0.00065   0.00063   0.00002
  11   15728.1    635.8   0.381767862   7.99096   2.73428   0.52325   0.49081
  12   17114.2    584.3   0.529698995  10.18939   2.98893   1.11425   0.11900

-----------------------------------------------------------------------------
  SOC CORRECTED ABSORPTION SPECTRUM VIA TRANSITION VELOCITY DIPOLE MOMENTS*  
-----------------------------------------------------------------------------
State   Energy  Wavelength   fosc         P2         PX        PY        PZ  
        (cm-1)    (nm)                  (au**2)     (au)      (au)      (au) 
-----------------------------------------------------------------------------
   1    9702.6   1030.7   0.000000002   0.00000   0.00001   0.00000   0.00000
   2    9702.6   1030.7   0.000000002   0.00000   0.00001   0.00000   0.00000
   3    9702.6   1030.7   0.000000015   0.00000   0.00003   0.00001   0.00001
   4   11581.4    863.5   0.000000001   0.00000   0.00001   0.00000   0.00000
   5   11581.4    863.5   0.000000026   0.00000   0.00002   0.00003   0.00003
   6   11581.4    863.5   0.000000004   0.00000   0.00002   0.00001   0.00000
   7   13317.1    750.9   0.190411689   0.01733   0.09332   0.05437   0.07528
   8   14534.4    688.0   0.000000002   0.00000   0.00001   0.00001   0.00000
   9   14534.4    688.0   0.000000001   0.00000   0.00000   0.00000   0.00001
  10   14534.4    688.0   0.000000005   0.00000   0.00001   0.00001   0.00001
  11   15728.1    635.8   0.088724976   0.00954   0.06638   0.06810   0.02224
  12   17114.2    584.3   0.280029527   0.03275   0.15792   0.02593   0.08451

-------------------------------------------------------------------
                    SOC CORRECTED CD SPECTRUM*                     
-------------------------------------------------------------------
State   Energy Wavelength       R         MX        MY        MZ   
        (cm-1)   (nm)       (1e40*sgs)   (au)      (au)      (au)  
-------------------------------------------------------------------
   1    9702.6   1030.7      0.00000   0.00003   0.00007   0.00009
   2    9702.6   1030.7      0.00000   0.00001   0.00002   0.00000
   3    9702.6   1030.7      0.00002   0.00007   0.00017   0.00021
   4   11581.4    863.5      0.00000   0.00001   0.00003   0.00004
   5   11581.4    863.5      0.00001   0.00003   0.00014   0.00015
   6   11581.4    863.5      0.00000   0.00001   0.00000   0.00004
   7   13317.1    750.9    109.44701   0.14668   0.48480   0.57946
   8   14534.4    688.0      0.00000   0.00002   0.00005   0.00008
   9   14534.4    688.0      0.00000   0.00000   0.00002   0.00001
  10   14534.4    688.0      0.00001   0.00002   0.00000   0.00001
  11   15728.1    635.8     73.89624   0.03454   0.08338   0.21579
  12   17114.2    584.3    107.68628   0.12150   0.16749   0.43601

*The X,Y and Z components are the absolute values of the complex numbers

Total run time:     6463.695 sec

           *** ORCA-CIS/TD-DFT FINISHED WITHOUT ERROR ***

---------------------------
SOC CIS/TD-DFT TOTAL ENERGY
---------------------------

    E(SCF)        =  -4734.989869799 Eh
    E(SOC CIS)    =      0.044208256 Eh (SOC Root  1)
    ----------------------------- ---------
    E(tot)        =  -4734.945661543 Eh


-------------------------   --------------------
FINAL SINGLE POINT ENERGY     -4734.945661543165
-------------------------   --------------------


                            ***************************************
                            *     ORCA property calculations      *
                            ***************************************

                                    ---------------------
                                    Active property flags
                                    ---------------------
   (+) Dipole Moment


------------------------------------------------------------------------------
                       ORCA ELECTRIC PROPERTIES CALCULATION
------------------------------------------------------------------------------

Dipole Moment Calculation                       ... on
Quadrupole Moment Calculation                   ... off
Polarizability Calculation                      ... off
GBWName                                         ... SNBDT1-F.gbw
Electron density file                           ... SNBDT1-F.scfp
The origin for moment calculation is the CENTER OF MASS  = (-2.335922,  0.319175  0.162927)

-------------
DIPOLE MOMENT
-------------
                                X             Y             Z
Electronic contribution:     13.72170      55.38782     -12.81598
Nuclear contribution   :    -15.71489     -58.92729      11.75488
                        -----------------------------------------
Total Dipole Moment    :     -1.99319      -3.53947      -1.06110
                        -----------------------------------------
Magnitude (a.u.)       :      4.19840
Magnitude (Debye)      :     10.67149



--------------------
Rotational spectrum 
--------------------
 
Rotational constants in cm-1:     0.001545     0.000288     0.000257 
Rotational constants in MHz :    46.332745     8.647981     7.690798 

 Dipole components along the rotational axes: 
x,y,z [a.u.] :    -1.004255    -2.880505    -2.884571 
x,y,z [Debye]:    -2.552614    -7.321661    -7.331997 

 

Timings for individual modules:

Sum of individual times         ...     9788.654 sec (= 163.144 min)
GTO integral calculation        ...        8.371 sec (=   0.140 min)   0.1 %
SCF iterations                  ...     3315.800 sec (=  55.263 min)  33.9 %
CIS module                      ...     6464.483 sec (= 107.741 min)  66.0 %
                             ****ORCA TERMINATED NORMALLY****
TOTAL RUN TIME: 0 days 2 hours 43 minutes 10 seconds 670 msec
