
                                 *****************
                                 * O   R   C   A *
                                 *****************

           --- An Ab Initio, DFT and Semiempirical electronic structure package ---

                  #######################################################
                  #                        -***-                        #
                  #          Department of theory and spectroscopy      #
                  #               Directorship: Frank Neese             #
                  #        Max Planck Institute fuer Kohlenforschung    #
                  #                Kaiser Wilhelm Platz 1               #
                  #                 D-45470 Muelheim/Ruhr               #
                  #                      Germany                        #
                  #                                                     #
                  #                  All rights reserved                #
                  #                        -***-                        #
                  #######################################################


                         Program Version 4.2.0 -  RELEASE  -


 With contributions from (in alphabetic order):
   Daniel Aravena         : Magnetic Suceptibility
   Michael Atanasov       : Ab Initio Ligand Field Theory (pilot matlab implementation)
   Alexander A. Auer      : GIAO ZORA, VPT2
   Ute Becker             : Parallelization
   Giovanni Bistoni       : ED, misc. LED, open-shell LED, HFLED
   Martin Brehm           : Molecular dynamics
   Dmytro Bykov           : SCF Hessian
   Vijay G. Chilkuri      : MRCI spin determinant printing, contributions to CSF-ICE
   Dipayan Datta          : RHF DLPNO-CCSD density
   Achintya Kumar Dutta   : EOM-CC, STEOM-CC
   Dmitry Ganyushin       : Spin-Orbit,Spin-Spin,Magnetic field MRCI
   Miquel Garcia          : C-PCM Hessian, Gaussian charge scheme
   Yang Guo               : DLPNO-NEVPT2, CIM, IAO-localization
   Andreas Hansen         : Spin unrestricted coupled pair/coupled cluster methods
   Benjamin Helmich-Paris : CASSCF linear response (MC-RPA)
   Lee Huntington         : MR-EOM, pCC
   Robert Izsak           : Overlap fitted RIJCOSX, COSX-SCS-MP3, EOM
   Christian Kollmar      : KDIIS, OOCD, Brueckner-CCSD(T), CCSD density
   Simone Kossmann        : Meta GGA functionals, TD-DFT gradient, OOMP2, MP2 Hessian
   Martin Krupicka        : AUTO-CI
   Lucas Lang             : DCDCAS
   Dagmar Lenk            : GEPOL surface, SMD
   Dimitrios Liakos       : Extrapolation schemes; Compound Job, initial MDCI parallelization
   Dimitrios Manganas     : Further ROCIS development; embedding schemes
   Dimitrios Pantazis     : SARC Basis sets
   Taras Petrenko         : DFT Hessian,TD-DFT gradient, ASA, ECA, R-Raman, ABS, FL, XAS/XES, NRVS
   Peter Pinski           : DLPNO-MP2, DLPNO-MP2 Gradient
   Christoph Reimann      : Effective Core Potentials
   Marius Retegan         : Local ZFS, SOC
   Christoph Riplinger    : Optimizer, TS searches, QM/MM, DLPNO-CCSD(T), (RO)-DLPNO pert. Triples
   Tobias Risthaus        : Range-separated hybrids, TD-DFT gradient, RPA, STAB
   Michael Roemelt        : Original ROCIS implementation
   Masaaki Saitow         : Open-shell DLPNO-CCSD energy and density
   Barbara Sandhoefer     : DKH picture change effects
   Avijit Sen             : IP-ROCIS
   Kantharuban Sivalingam : CASSCF convergence, NEVPT2, FIC-MRCI
   Bernardo de Souza      : ESD, SOC TD-DFT
   Georgi Stoychev        : AutoAux, RI-MP2 NMR
   Willem Van den Heuvel  : Paramagnetic NMR
   Boris Wezisla          : Elementary symmetry handling
   Frank Wennmohs         : Technical directorship


 We gratefully acknowledge several colleagues who have allowed us to
 interface, adapt or use parts of their codes:
   Stefan Grimme, W. Hujo, H. Kruse,             : VdW corrections, initial TS optimization,
                  C. Bannwarth                     DFT functionals, gCP, sTDA/sTD-DF
   Ed Valeev, F. Pavosevic, A. Kumar             : LibInt (2-el integral package), F12 methods
   Garnet Chan, S. Sharma, J. Yang, R. Olivares  : DMRG
   Ulf Ekstrom                                   : XCFun DFT Library
   Mihaly Kallay                                 : mrcc  (arbitrary order and MRCC methods)
   Andreas Klamt, Michael Diedenhofen            : otool_cosmo (COSMO solvation model)
   Jiri Pittner, Ondrej Demel                    : Mk-CCSD
   Frank Weinhold                                : gennbo (NPA and NBO analysis)
   Christopher J. Cramer and Donald G. Truhlar   : smd solvation model
   Lars Goerigk                                  : TD-DFT with DH, B97 family of functionals
   V. Asgeirsson, H. Jonsson                     : NEB implementation
   FAccTs GmbH                                   : IRC, NEB, NEB-TS, Multilevel, MM, QM/MM, CI optimization
   S Lehtola, MJT Oliveira, MAL Marques          : LibXC Library


 Your calculation uses the libint2 library for the computation of 2-el integrals
 For citations please refer to: http://libint.valeyev.net

 Your ORCA version has been built with support for libXC version: 4.2.3
 For citations please refer to: https://tddft.org/programs/libxc/

 This ORCA versions uses:
   CBLAS   interface :  Fast vector & matrix operations
   LAPACKE interface :  Fast linear algebra routines
   SCALAPACK package :  Parallel linear algebra routines


----- Orbital basis set information -----
Your calculation utilizes the basis: def2-TZVP
   F. Weigend and R. Ahlrichs, Phys. Chem. Chem. Phys. 7, 3297 (2005).

----- AuxJ basis set information -----
Your calculation utilizes the auxiliary basis: def2/J
   F. Weigend, Phys. Chem. Chem. Phys. 8, 1057 (2006).

================================================================================
                                        WARNINGS
                       Please study these warnings very carefully!
================================================================================

INFO   : Checking CIS options ...

WARNING: (CIS/TDDFT): Spin-orbit needs TRIPLETS set to TRUE
  ===> : ajusting flags

WARNING: CIS/ROCIS methods need fully converged wavefunctions
  ===> : Setting SCFConvForced true
         You can overwrite this default with %scf ConvForced false 


INFO   : the flag for use of LIBINT has been found!

================================================================================
                                       INPUT FILE
================================================================================
NAME = TPIC.inp
|  1> # ORCA input file
|  2> # TPIC.out
|  3> ! B3LYP def2-TZVP def2/J RIJCOSX Grid4 TightSCF
|  4> 
|  5> %maxcore 2000
|  6> %tddft
|  7>   maxdim 5
|  8>   nroots 3
|  9>   dosoc true
| 10>   end
| 11> 
| 12> 
| 13> 
| 14> * xyz 0 1
| 15>    C        1.84210        -4.74299        -2.19194
| 16>    C        1.25463        -5.61894        -1.32347
| 17>    C        1.71099        -6.26769        -0.11895
| 18>    C        0.52426        -6.70905         0.61372
| 19>    C       -0.60010        -6.55723        -0.21833
| 20>    C       -0.18478        -5.94836        -1.49987
| 21>    C        0.37559        -7.23080         1.88767
| 22>    C       -0.89709        -7.59784         2.30635
| 23>    C       -2.00025        -7.45848         1.47681
| 24>    C       -1.86151        -6.93220         0.19952
| 25>    H       -2.97498        -7.76005         1.82973
| 26>    H       -1.02669        -8.00077         3.29969
| 27>    O       -0.86864        -5.71965        -2.47184
| 28>    C        3.00088        -6.64231         0.16188
| 29>    C        3.38913        -7.33688         1.32353
| 30>    C        4.06639        -6.44450        -0.73696
| 31>    N        3.76472        -7.87866         2.26372
| 32>    N        4.94831        -6.33921        -1.46473
| 33>    C        2.98940        -3.94566        -2.02798
| 34>    S        3.60059        -3.07098        -3.42684
| 35>    C        4.78136        -2.31053        -2.45604
| 36>    C        4.70875        -2.70349        -1.12208
| 37>    C        3.70166        -3.61919        -0.87608
| 38>    C       10.93785         9.05650        -3.24367
| 39>    C       10.78123        10.11007        -4.10253
| 40>    C        9.90501        10.36166        -5.21909
| 41>    C       10.46204        11.49193        -5.96549
| 42>    C       11.50677        12.05860        -5.21367
| 43>    C       11.70973        11.26546        -3.98334
| 44>    C       10.10762        12.05025        -7.18229
| 45>    C       10.79760        13.17337        -7.62071
| 46>    C       11.81589        13.73748        -6.86656
| 47>    C       12.18447        13.17959        -5.64976
| 48>    H       12.32574        14.61669        -7.23061
| 49>    H       10.53032        13.61528        -8.56894
| 50>    O       12.48870        11.47883        -3.08157
| 51>    C        8.65062         9.84174        -5.42410
| 52>    C        7.82296        10.17079        -6.51562
| 53>    C        7.99402         8.96994        -4.53556
| 54>    N        7.11116        10.36149        -7.39676
| 55>    N        7.38307         8.28238        -3.84734
| 56>    C        5.78038        -1.30775        -2.63368
| 57>    C        6.33341        -1.04496        -1.35844
| 58>    C        5.72909        -1.95548        -0.30321
| 59>    C        6.15992        -0.59135        -3.76762
| 60>    C        7.07653         0.41795        -3.59855
| 61>    C        7.58300         0.71814        -2.31196
| 62>    C        7.24845        -0.03237        -1.18841
| 63>    C        7.59699         1.41672        -4.62958
| 64>    C        8.27094         2.42296        -3.72408
| 65>    C        8.30693         1.94403        -2.42385
| 66>    C        8.83964         3.69750        -3.80646
| 67>    C        9.30387         4.14795        -2.54046
| 68>    S        9.04735         3.00042        -1.26777
| 69>    N        9.07492         4.66158        -4.74948
| 70>    C        9.62763         5.73594        -4.10217
| 71>    C        9.80117         5.43295        -2.72656
| 72>    C       10.00709         7.02728        -4.43859
| 73>    C       10.47236         7.73432        -3.33669
| 74>    S       10.48863         6.74955        -1.86865
| 75>    C        5.00345        -1.22372         0.81040
| 76>    C        8.61846         4.68050        -6.11644
| 77>    C        7.29869         5.43517        -6.25124
| 78>    C        6.83456        -2.84567         0.24197
| 79>    C        8.60152         0.72186        -5.53752
| 80>    C        6.43790         2.04545        -5.38193
| 81>    C        7.66039        -2.37591         1.25595
| 82>    C        8.68287        -3.16403         1.74848
| 83>    C        8.91173        -4.43622         1.23981
| 84>    C        8.09112        -4.89413         0.21839
| 85>    C        7.06946        -4.10838        -0.28243
| 86>    C        4.60017         0.09712         0.67917
| 87>    C        3.91070         0.72355         1.70177
| 88>    C        3.59329         0.04612         2.87073
| 89>    C        3.97962        -1.28325         2.98776
| 90>    C        4.67125        -1.91257         1.97109
| 91>    C        5.39494         2.59160        -4.64064
| 92>    C        4.31670         3.18311        -5.26881
| 93>    C        4.24746         3.24649        -6.65551
| 94>    C        5.29238         2.70543        -7.39089
| 95>    C        6.37588         2.11292        -6.76616
| 96>    C        9.92508         1.13400        -5.61632
| 97>    C       10.82088         0.48508        -6.44760
| 98>    C       10.42595        -0.59436        -7.22388
| 99>    C        9.10273        -1.00855        -7.14118
|100>    C        8.20518        -0.36233        -6.31384
|101>    C        9.98183        -5.31726         1.81652
|102>    C        9.40654        -6.18842         2.93524
|103>    C        2.89676         0.74713         4.00085
|104>    C        3.92068         1.39186         4.93761
|105>    C       11.41126        -1.32474        -8.08890
|106>    C       12.08824        -2.44489        -7.29635
|107>    C        3.10229         3.93512        -7.33800
|108>    C        3.43304         5.41058        -7.57327
|109>    H        1.27707        -4.57034        -3.10339
|110>    H        1.21801        -7.34317         2.55151
|111>    H       -2.70794        -6.81364        -0.45927
|112>    H        3.44830        -3.99515         0.09836
|113>    H       11.56812         9.27320        -2.38575
|114>    H        9.32308        11.62817        -7.78959
|115>    H       12.97509        13.60203        -5.04904
|116>    H        5.69362        -0.80108        -4.71752
|117>    H        7.65555         0.21612        -0.22078
|118>    H        9.98911         7.43690        -5.43235
|119>    H        8.50103         3.64824        -6.45126
|120>    H        9.39173         5.16077        -6.72432
|121>    H        6.51541         4.92600        -5.69777
|122>    H        7.00737         5.48913        -7.29538
|123>    H        7.39368         6.44422        -5.85865
|124>    H        7.49135        -1.39476         1.67590
|125>    H        9.31157        -2.78523         2.54196
|126>    H        8.24730        -5.87995        -0.19455
|127>    H        6.44789        -4.49770        -1.07448
|128>    H        4.82746         0.64479        -0.22371
|129>    H        3.61291         1.75601         1.58634
|130>    H        3.73586        -1.83260         3.88603
|131>    H        4.96997        -2.94525         2.08275
|132>    H        5.43170         2.55024        -3.56112
|133>    H        3.51674         3.60091        -4.67487
|134>    H        5.26059         2.74450        -8.47034
|135>    H        7.17128         1.69954        -7.36915
|136>    H       10.27513         1.96757        -5.02638
|137>    H       11.84479         0.82824        -6.49173
|138>    H        8.76827        -1.84711        -7.73502
|139>    H        7.18218        -0.70140        -6.28318
|140>    H       10.79272        -4.70486         2.21633
|141>    H       10.39127        -5.96065         1.03516
|142>    H        9.00857        -5.56524         3.73312
|143>    H       10.17703        -6.83425         3.34995
|144>    H        8.59984        -6.80992         2.55327
|145>    H        2.29280         0.03317         4.56439
|146>    H        2.23410         1.51975         3.60580
|147>    H        4.58299         0.63504         5.35205
|148>    H        3.41932         1.90157         5.75695
|149>    H        4.52541         2.11567         4.39586
|150>    H       12.17201        -0.63042        -8.45168
|151>    H       10.89948        -1.75389        -8.95262
|152>    H       12.61569        -2.03549        -6.43766
|153>    H       12.80166        -2.97572        -7.92221
|154>    H       11.34694        -3.15395        -6.93491
|155>    H        2.20509         3.86143        -6.72073
|156>    H        2.89861         3.45464        -8.29704
|157>    H        3.64545         5.90790        -6.62970
|158>    H        2.59744         5.91530        -8.05170
|159>    H        4.30753         5.50643        -8.21274
|160> *
|161> 
|162>                          ****END OF INPUT****
================================================================================

                       ****************************
                       * Single Point Calculation *
                       ****************************

---------------------------------
CARTESIAN COORDINATES (ANGSTROEM)
---------------------------------
  C      1.842100   -4.742990   -2.191940
  C      1.254630   -5.618940   -1.323470
  C      1.710990   -6.267690   -0.118950
  C      0.524260   -6.709050    0.613720
  C     -0.600100   -6.557230   -0.218330
  C     -0.184780   -5.948360   -1.499870
  C      0.375590   -7.230800    1.887670
  C     -0.897090   -7.597840    2.306350
  C     -2.000250   -7.458480    1.476810
  C     -1.861510   -6.932200    0.199520
  H     -2.974980   -7.760050    1.829730
  H     -1.026690   -8.000770    3.299690
  O     -0.868640   -5.719650   -2.471840
  C      3.000880   -6.642310    0.161880
  C      3.389130   -7.336880    1.323530
  C      4.066390   -6.444500   -0.736960
  N      3.764720   -7.878660    2.263720
  N      4.948310   -6.339210   -1.464730
  C      2.989400   -3.945660   -2.027980
  S      3.600590   -3.070980   -3.426840
  C      4.781360   -2.310530   -2.456040
  C      4.708750   -2.703490   -1.122080
  C      3.701660   -3.619190   -0.876080
  C     10.937850    9.056500   -3.243670
  C     10.781230   10.110070   -4.102530
  C      9.905010   10.361660   -5.219090
  C     10.462040   11.491930   -5.965490
  C     11.506770   12.058600   -5.213670
  C     11.709730   11.265460   -3.983340
  C     10.107620   12.050250   -7.182290
  C     10.797600   13.173370   -7.620710
  C     11.815890   13.737480   -6.866560
  C     12.184470   13.179590   -5.649760
  H     12.325740   14.616690   -7.230610
  H     10.530320   13.615280   -8.568940
  O     12.488700   11.478830   -3.081570
  C      8.650620    9.841740   -5.424100
  C      7.822960   10.170790   -6.515620
  C      7.994020    8.969940   -4.535560
  N      7.111160   10.361490   -7.396760
  N      7.383070    8.282380   -3.847340
  C      5.780380   -1.307750   -2.633680
  C      6.333410   -1.044960   -1.358440
  C      5.729090   -1.955480   -0.303210
  C      6.159920   -0.591350   -3.767620
  C      7.076530    0.417950   -3.598550
  C      7.583000    0.718140   -2.311960
  C      7.248450   -0.032370   -1.188410
  C      7.596990    1.416720   -4.629580
  C      8.270940    2.422960   -3.724080
  C      8.306930    1.944030   -2.423850
  C      8.839640    3.697500   -3.806460
  C      9.303870    4.147950   -2.540460
  S      9.047350    3.000420   -1.267770
  N      9.074920    4.661580   -4.749480
  C      9.627630    5.735940   -4.102170
  C      9.801170    5.432950   -2.726560
  C     10.007090    7.027280   -4.438590
  C     10.472360    7.734320   -3.336690
  S     10.488630    6.749550   -1.868650
  C      5.003450   -1.223720    0.810400
  C      8.618460    4.680500   -6.116440
  C      7.298690    5.435170   -6.251240
  C      6.834560   -2.845670    0.241970
  C      8.601520    0.721860   -5.537520
  C      6.437900    2.045450   -5.381930
  C      7.660390   -2.375910    1.255950
  C      8.682870   -3.164030    1.748480
  C      8.911730   -4.436220    1.239810
  C      8.091120   -4.894130    0.218390
  C      7.069460   -4.108380   -0.282430
  C      4.600170    0.097120    0.679170
  C      3.910700    0.723550    1.701770
  C      3.593290    0.046120    2.870730
  C      3.979620   -1.283250    2.987760
  C      4.671250   -1.912570    1.971090
  C      5.394940    2.591600   -4.640640
  C      4.316700    3.183110   -5.268810
  C      4.247460    3.246490   -6.655510
  C      5.292380    2.705430   -7.390890
  C      6.375880    2.112920   -6.766160
  C      9.925080    1.134000   -5.616320
  C     10.820880    0.485080   -6.447600
  C     10.425950   -0.594360   -7.223880
  C      9.102730   -1.008550   -7.141180
  C      8.205180   -0.362330   -6.313840
  C      9.981830   -5.317260    1.816520
  C      9.406540   -6.188420    2.935240
  C      2.896760    0.747130    4.000850
  C      3.920680    1.391860    4.937610
  C     11.411260   -1.324740   -8.088900
  C     12.088240   -2.444890   -7.296350
  C      3.102290    3.935120   -7.338000
  C      3.433040    5.410580   -7.573270
  H      1.277070   -4.570340   -3.103390
  H      1.218010   -7.343170    2.551510
  H     -2.707940   -6.813640   -0.459270
  H      3.448300   -3.995150    0.098360
  H     11.568120    9.273200   -2.385750
  H      9.323080   11.628170   -7.789590
  H     12.975090   13.602030   -5.049040
  H      5.693620   -0.801080   -4.717520
  H      7.655550    0.216120   -0.220780
  H      9.989110    7.436900   -5.432350
  H      8.501030    3.648240   -6.451260
  H      9.391730    5.160770   -6.724320
  H      6.515410    4.926000   -5.697770
  H      7.007370    5.489130   -7.295380
  H      7.393680    6.444220   -5.858650
  H      7.491350   -1.394760    1.675900
  H      9.311570   -2.785230    2.541960
  H      8.247300   -5.879950   -0.194550
  H      6.447890   -4.497700   -1.074480
  H      4.827460    0.644790   -0.223710
  H      3.612910    1.756010    1.586340
  H      3.735860   -1.832600    3.886030
  H      4.969970   -2.945250    2.082750
  H      5.431700    2.550240   -3.561120
  H      3.516740    3.600910   -4.674870
  H      5.260590    2.744500   -8.470340
  H      7.171280    1.699540   -7.369150
  H     10.275130    1.967570   -5.026380
  H     11.844790    0.828240   -6.491730
  H      8.768270   -1.847110   -7.735020
  H      7.182180   -0.701400   -6.283180
  H     10.792720   -4.704860    2.216330
  H     10.391270   -5.960650    1.035160
  H      9.008570   -5.565240    3.733120
  H     10.177030   -6.834250    3.349950
  H      8.599840   -6.809920    2.553270
  H      2.292800    0.033170    4.564390
  H      2.234100    1.519750    3.605800
  H      4.582990    0.635040    5.352050
  H      3.419320    1.901570    5.756950
  H      4.525410    2.115670    4.395860
  H     12.172010   -0.630420   -8.451680
  H     10.899480   -1.753890   -8.952620
  H     12.615690   -2.035490   -6.437660
  H     12.801660   -2.975720   -7.922210
  H     11.346940   -3.153950   -6.934910
  H      2.205090    3.861430   -6.720730
  H      2.898610    3.454640   -8.297040
  H      3.645450    5.907900   -6.629700
  H      2.597440    5.915300   -8.051700
  H      4.307530    5.506430   -8.212740

----------------------------
CARTESIAN COORDINATES (A.U.)
----------------------------
  NO LB      ZA    FRAG     MASS         X           Y           Z
   0 C     6.0000    0    12.011    3.481065   -8.962952   -4.142166
   1 C     6.0000    0    12.011    2.370907  -10.618258   -2.500996
   2 C     6.0000    0    12.011    3.233303  -11.844218   -0.224783
   3 C     6.0000    0    12.011    0.990708  -12.678267    1.159763
   4 C     6.0000    0    12.011   -1.134025  -12.391369   -0.412584
   5 C     6.0000    0    12.011   -0.349184  -11.240771   -2.834344
   6 C     6.0000    0    12.011    0.709762  -13.664232    3.567179
   7 C     6.0000    0    12.011   -1.695254  -14.357837    4.358370
   8 C     6.0000    0    12.011   -3.779925  -14.094485    2.790766
   9 C     6.0000    0    12.011   -3.517744  -13.099960    0.377038
  10 H     1.0000    0     1.008   -5.621897  -14.664369    3.457689
  11 H     1.0000    0     1.008   -1.940163  -15.119264    6.235510
  12 O     8.0000    0    15.999   -1.641492  -10.808572   -4.671101
  13 C     6.0000    0    12.011    5.670841  -12.552147    0.305909
  14 C     6.0000    0    12.011    6.404528  -13.864694    2.501109
  15 C     6.0000    0    12.011    7.684363  -12.178340   -1.392653
  16 N     7.0000    0    14.007    7.114290  -14.888510    4.277811
  17 N     7.0000    0    14.007    9.350951  -11.979371   -2.767939
  18 C     6.0000    0    12.011    5.649147   -7.456217   -3.832327
  19 S    16.0000    0    32.060    6.804129   -5.803311   -6.475789
  20 C     6.0000    0    12.011    9.035461   -4.366269   -4.641243
  21 C     6.0000    0    12.011    8.898248   -5.108856   -2.120424
  22 C     6.0000    0    12.011    6.995124   -6.839278   -1.655551
  23 C     6.0000    0    12.011   20.669541   17.114305   -6.129648
  24 C     6.0000    0    12.011   20.373572   19.105263   -7.752658
  25 C     6.0000    0    12.011   18.717756   19.580700   -9.862651
  26 C     6.0000    0    12.011   19.770390   21.716600  -11.273142
  27 C     6.0000    0    12.011   21.744644   22.787452   -9.852408
  28 C     6.0000    0    12.011   22.128183   21.288634   -7.527422
  29 C     6.0000    0    12.011   19.100634   22.771672  -13.572561
  30 C     6.0000    0    12.011   20.404507   24.894062  -14.401055
  31 C     6.0000    0    12.011   22.328796   25.960075  -12.975918
  32 C     6.0000    0    12.011   23.025311   24.905816  -10.676499
  33 H     1.0000    0     1.008   23.292273   27.621541  -13.663873
  34 H     1.0000    0     1.008   19.899421   25.729150  -16.192950
  35 O     8.0000    0    15.999   23.600223   21.691845   -5.823323
  36 C     6.0000    0    12.011   16.347303   18.598193  -10.250064
  37 C     6.0000    0    12.011   14.783252   19.220008  -12.312737
  38 C     6.0000    0    12.011   15.106509   16.950730   -8.570966
  39 N     7.0000    0    14.007   13.438145   19.580378  -13.977851
  40 N     7.0000    0    14.007   13.951980   15.651430   -7.270419
  41 C     6.0000    0    12.011   10.923335   -2.471289   -4.976934
  42 C     6.0000    0    12.011   11.968410   -1.974688   -2.567080
  43 C     6.0000    0    12.011   10.826411   -3.695322   -0.572984
  44 C     6.0000    0    12.011   11.640562   -1.117490   -7.119770
  45 C     6.0000    0    12.011   13.372704    0.789811   -6.800274
  46 C     6.0000    0    12.011   14.329793    1.357088   -4.368971
  47 C     6.0000    0    12.011   13.697585   -0.061170   -2.245769
  48 C     6.0000    0    12.011   14.356231    2.677213   -8.748638
  49 C     6.0000    0    12.011   15.629811    4.578731   -7.037491
  50 C     6.0000    0    12.011   15.697823    3.673684   -4.580413
  51 C     6.0000    0    12.011   16.704499    6.987262   -7.193167
  52 C     6.0000    0    12.011   17.581766    7.838490   -4.800774
  53 S    16.0000    0    32.060   17.097014    5.669972   -2.395738
  54 N     7.0000    0    14.007   17.149113    8.809110   -8.975216
  55 C     6.0000    0    12.011   18.193584   10.839356   -7.751978
  56 C     6.0000    0    12.011   18.521527   10.266788   -5.152452
  57 C     6.0000    0    12.011   18.910659   13.279635   -8.387720
  58 C     6.0000    0    12.011   19.789892   14.615747   -6.305430
  59 S    16.0000    0    32.060   19.820638   12.754801   -3.531237
  60 C     6.0000    0    12.011    9.455150   -2.312496    1.531434
  61 C     6.0000    0    12.011   16.286529    8.844863  -11.558397
  62 C     6.0000    0    12.011   13.792525   10.270983  -11.813132
  63 C     6.0000    0    12.011   12.915447   -5.377537    0.457257
  64 C     6.0000    0    12.011   16.254517    1.364118  -10.464396
  65 C     6.0000    0    12.011   12.165868    3.865340  -10.170374
  66 C     6.0000    0    12.011   14.476039   -4.489819    2.373402
  67 C     6.0000    0    12.011   16.408246   -5.979150    3.304148
  68 C     6.0000    0    12.011   16.840729   -8.383241    2.342901
  69 C     6.0000    0    12.011   15.290001   -9.248565    0.412697
  70 C     6.0000    0    12.011   13.359343   -7.763713   -0.533715
  71 C     6.0000    0    12.011    8.693061    0.183530    1.283445
  72 C     6.0000    0    12.011    7.390152    1.367311    3.215879
  73 C     6.0000    0    12.011    6.790334    0.087154    5.424894
  74 C     6.0000    0    12.011    7.520392   -2.424991    5.646048
  75 C     6.0000    0    12.011    8.827383   -3.614234    3.724820
  76 C     6.0000    0    12.011   10.194959    4.897414   -8.769539
  77 C     6.0000    0    12.011    8.157381    6.015206   -9.956608
  78 C     6.0000    0    12.011    8.026536    6.134977  -12.577091
  79 C     6.0000    0    12.011   10.001149    5.112522  -13.966758
  80 C     6.0000    0    12.011   12.048667    3.992840  -12.786189
  81 C     6.0000    0    12.011   18.755683    2.142949  -10.613307
  82 C     6.0000    0    12.011   20.448500    0.916668  -12.184198
  83 C     6.0000    0    12.011   19.702190   -1.123178  -13.651155
  84 C     6.0000    0    12.011   17.201667   -1.905883  -13.494874
  85 C     6.0000    0    12.011   15.505543   -0.684704  -11.931428
  86 C     6.0000    0    12.011   18.862925  -10.048165    3.432725
  87 C     6.0000    0    12.011   17.775784  -11.694419    5.546800
  88 C     6.0000    0    12.011    5.474083    1.411871    7.560511
  89 C     6.0000    0    12.011    7.409011    2.630234    9.330731
  90 C     6.0000    0    12.011   21.564156   -2.503396  -15.285806
  91 C     6.0000    0    12.011   22.843463   -4.620173  -13.788103
  92 C     6.0000    0    12.011    5.862478    7.436299  -13.866810
  93 C     6.0000    0    12.011    6.487505   10.224514  -14.311406
  94 H     1.0000    0     1.008    2.413313   -8.636691   -5.864557
  95 H     1.0000    0     1.008    2.301705  -13.876580    4.821655
  96 H     1.0000    0     1.008   -5.117265  -12.875914   -0.867895
  97 H     1.0000    0     1.008    6.516343   -7.549739    0.185873
  98 H     1.0000    0     1.008   21.860579   17.523808   -4.508414
  99 H     1.0000    0     1.008   17.618068   21.974057  -14.720192
 100 H     1.0000    0     1.008   24.519367   25.704112   -9.541303
 101 H     1.0000    0     1.008   10.759383   -1.513822   -8.914821
 102 H     1.0000    0     1.008   14.466893    0.408408   -0.417214
 103 H     1.0000    0     1.008   18.876682   14.053704  -10.265654
 104 H     1.0000    0     1.008   16.064619    6.894174  -12.191115
 105 H     1.0000    0     1.008   17.747798    9.752442  -12.707123
 106 H     1.0000    0     1.008   12.312341    9.308791  -10.767225
 107 H     1.0000    0     1.008   13.242010   10.372952  -13.786270
 108 H     1.0000    0     1.008   13.972030   12.177811  -11.071244
 109 H     1.0000    0     1.008   14.156600   -2.635714    3.166992
 110 H     1.0000    0     1.008   17.596317   -5.263322    4.803608
 111 H     1.0000    0     1.008   15.585138  -11.111495   -0.367646
 112 H     1.0000    0     1.008   12.184746   -8.499421   -2.030473
 113 H     1.0000    0     1.008    9.122577    1.218477   -0.422751
 114 H     1.0000    0     1.008    6.827410    3.318378    2.997748
 115 H     1.0000    0     1.008    7.059752   -3.463112    7.343532
 116 H     1.0000    0     1.008    9.391882   -5.565716    3.935827
 117 H     1.0000    0     1.008   10.264425    4.819255   -6.729542
 118 H     1.0000    0     1.008    6.645675    6.804734   -8.834224
 119 H     1.0000    0     1.008    9.941074    5.186353  -16.006623
 120 H     1.0000    0     1.008   13.551755    3.211665  -13.925675
 121 H     1.0000    0     1.008   19.417182    3.718168   -9.498482
 122 H     1.0000    0     1.008   22.383409    1.565147  -12.267592
 123 H     1.0000    0     1.008   16.569629   -3.490532  -14.617069
 124 H     1.0000    0     1.008   13.572353   -1.325454  -11.873489
 125 H     1.0000    0     1.008   20.395285   -8.890897    4.188257
 126 H     1.0000    0     1.008   19.636654  -11.263996    1.956169
 127 H     1.0000    0     1.008   17.023730  -10.516779    7.054574
 128 H     1.0000    0     1.008   19.231800  -12.914861    6.330488
 129 H     1.0000    0     1.008   16.251342  -12.868884    4.824981
 130 H     1.0000    0     1.008    4.332764    0.062682    8.625447
 131 H     1.0000    0     1.008    4.221837    2.871911    6.813974
 132 H     1.0000    0     1.008    8.660596    1.200052   10.113909
 133 H     1.0000    0     1.008    6.461578    3.593447   10.879059
 134 H     1.0000    0     1.008    8.551786    3.998037    8.306972
 135 H     1.0000    0     1.008   23.001765   -1.191321  -15.971361
 136 H     1.0000    0     1.008   20.597032   -3.314372  -16.918000
 137 H     1.0000    0     1.008   23.840199   -3.846519  -12.165414
 138 H     1.0000    0     1.008   24.191631   -5.623296  -14.970807
 139 H     1.0000    0     1.008   21.442609   -5.960102  -13.105081
 140 H     1.0000    0     1.008    4.167016    7.297045  -12.700339
 141 H     1.0000    0     1.008    5.477579    6.528323  -15.679133
 142 H     1.0000    0     1.008    6.888902   11.164313  -12.528317
 143 H     1.0000    0     1.008    4.908450   11.178297  -15.215508
 144 H     1.0000    0     1.008    8.140052   10.405645  -15.519829

--------------------------------
INTERNAL COORDINATES (ANGSTROEM)
--------------------------------
 C      0   0   0     0.000000000000     0.00000000     0.00000000
 C      1   0   0     1.366253835969     0.00000000     0.00000000
 C      2   1   0     1.442223783780   133.09648299     0.00000000
 C      3   2   1     1.462850666131   107.29666747   160.57411333
 C      4   3   2     1.406961948490   108.63561020    10.23303046
 C      5   4   3     1.478363335212   109.42568220   357.26783583
 C      4   3   2     1.384656792819   131.42179989   188.95358214
 C      7   4   3     1.389145667812   118.37397752   181.66920868
 C      8   7   4     1.387270632141   121.45081937     0.38462598
 C      5   4   3     1.380708626575   121.45403357   178.16424121
 H      9   8   7     1.079627511784   119.63083790   179.54449147
 H      8   7   4     1.079756037492   119.06718348   180.34009537
 O      6   5   4     1.210247265892   127.97236980   176.79272882
 C      3   2   1     1.372232431259   126.23970863   328.65063410
 C     14   3   2     1.408046970062   124.24254784   183.46175819
 C     14   3   2     1.407960831060   122.84442159   359.09457249
 N     15  14   3     1.148281608579   176.79065123   204.78300910
 N     16  14   3     1.148267409361   177.11804461   232.79459101
 C      1   2   3     1.406739243961   129.79084781   343.40670398
 S     19   1   2     1.759382737809   118.19238504   172.32578748
 C     20  19   1     1.707323822653    90.54957312   175.20236226
 C     21  20  19     1.392529732286   112.51608682   359.78673085
 C     22  21  20     1.383203802084   113.27511281     0.00000000
 C     21  20  19    12.951142851420   133.24359621   207.98168533
 C     24  21  20     1.368276313067   131.26763069     5.51584085
 C     25  24  21     1.441445541843   133.64559820   359.82817561
 C     26  25  24     1.464549641972   107.35417332   195.75239079
 C     27  26  25     1.406345965330   108.72710146   350.33172960
 C     28  27  26     1.477828044835   109.31916259     3.04480816
 C     27  26  25     1.384896024545   131.42049682   172.24184996
 C     30  27  26     1.389130314693   118.43321082   177.37857288
 C     31  30  27     1.387038874257   121.45780644   359.72447163
 C     28  27  26     1.380605069598   121.53102059   182.59107162
 H     32  31  30     1.079578458983   119.64229479   180.64713816
 H     31  30  27     1.079751443342   119.01964075   179.88478832
 O     29  28  27     1.210582566660   127.87426216   182.60082465
 C     26  25  24     1.373258962687   127.21563622    27.59769124
 C     37  26  25     1.408797674792   124.32434422   177.40025065
 C     37  26  25     1.407359986500   124.50226501     1.12199240
 N     38  37  26     1.148665934726   175.68933233   153.22041609
 N     39  37  26     1.148758209764   175.65770529   158.74438045
 C     21  20  19     1.426591973341   136.60134024   184.66384602
 C     42  21  20     1.414615786212   106.98354148   173.96458179
 C     22  21  20     1.507037077381   110.19052295   182.60827113
 C     42  21  20     1.393951037591   130.78481337   358.15483483
 C     45  42  21     1.373843166813   117.33001585   173.55281411
 C     46  45  42     1.414899192558   120.43717051   358.83270420
 C     43  42  21     1.375335199361   120.55197548   185.68148038
 C     46  45  42     1.526906344672   128.67239138   184.56488727
 C     49  46  45     1.512169894589   100.53527002   166.27546045
 C     50  49  46     1.386097860146   110.08192968     8.44731599
 C     50  49  46     1.398090972004   138.81870810   190.18882020
 C     52  50  49     1.421678829905   111.66615518   178.57555179
 S     51  50  49     1.732253611600   115.24097873   180.30604001
 N     52  50  49     1.368975399779   138.80736833   359.47762347
 C     55  52  50     1.370674282899   107.21636658   176.67472956
 C     53  52  50     1.390383220555   106.88371712   182.12178177
 C     56  55  52     1.387345416109   136.49809159   185.17050459
 C     58  56  55     1.389447855985   111.89652380   177.10268136
 S     57  53  52     1.715239452584   141.79629905   177.53630983
 C     44  22  21     1.517284857665   108.32347788   122.85909144
 C     55  52  50     1.441281839059   127.45537578     7.27405052
 C     62  55  52     1.526266916958   111.35294937    93.02423806
 C     44  22  21     1.520435263140   113.35941079   247.19614424
 C     49  46  45     1.521928376797   109.21805672   283.66375275
 C     49  46  45     1.518163879000   110.19890433    48.87854874
 C     64  44  22     1.389541322487   119.72488454   194.99513271
 C     67  64  44     1.381732349516   120.46961021   181.00546012
 C     68  67  64     1.389096636163   120.91522178     0.28241131
 C     69  68  67     1.387941337593   118.30927019     0.32683164
 C     70  69  68     1.382755542567   121.05841142   359.92524622
 C     61  44  22     1.387254258202   121.92393145   265.86353504
 C     72  61  44     1.383291070527   120.40694437   178.35915673
 C     73  72  61     1.387850134056   121.03796722   359.23606169
 C     74  73  72     1.389306116988   118.32095858   359.67315911
 C     75  74  73     1.381308657831   120.87560814     0.49266881
 C     66  49  46     1.391242699244   118.09125029    50.99313434
 C     77  66  49     1.380971805143   120.73708302   179.67523585
 C     78  77  66     1.389873408624   120.81486838     0.02371702
 C     79  78  77     1.387583321606   118.25947686   359.71854976
 C     80  79  78     1.383953728634   121.14931694     0.20799257
 C     65  49  46     1.388481146145   121.83750011   241.41987846
 C     82  65  49     1.383683939634   120.79852480   179.89176296
 C     83  82  65     1.387000741492   121.12379348   359.92329276
 C     84  83  82     1.388993813701   118.03438114   359.87541702
 C     85  84  83     1.381190706058   121.01172744     0.20550968
 C     69  68  67     1.501312730813   120.94561145   182.81665030
 C     87  69  68     1.530167562099   110.30224920    90.94897548
 C     74  73  72     1.501246240761   120.81350151   177.36673896
 C     89  74  73     1.530231432464   110.31124947   271.48566405
 C     84  83  82     1.500849872872   120.95589826   182.09624321
 C     91  84  83     1.530089358632   110.37673301    88.20088850
 C     79  78  77     1.500472660831   120.84790307   182.35530245
 C     93  79  78     1.530271135126   110.33302403    90.59936698
 H      1   2   3     1.086189682284   114.30719385   170.16391859
 H      7   4   3     1.078416440388   121.44922620     2.38682033
 H     10   5   4     1.079122088830   120.13271536   180.49598335
 H     23  22  21     1.074742073616   124.36555075   183.92596140
 H     24  21  20     1.086382018123   113.75516860   174.04210686
 H     30  27  26     1.078178013131   121.55344930   356.80662489
 H     33  28  27     1.079073702951   120.11103561   179.30170348
 H     45  42  21     1.078764280508   119.91324330   357.11437036
 H     48  43  42     1.078788907525   122.11017835   177.44360133
 H     58  56  55     1.075021284626   125.04738160   354.72870900
 H     62  55  52     1.091537880653   108.21486430   331.59622451
 H     62  55  52     1.094588443297   107.98316378   214.10237968
 H     63  62  55     1.085868633031   110.29635483   296.32851401
 H     63  62  55     1.085360476340   109.97696282   176.49257692
 H     63  62  55     1.086890937813   110.58334541    56.11714185
 H     67  64  44     1.080549789043   119.84120554     2.15369547
 H     68  67  64     1.080908710484   119.48494317   180.40580299
 H     70  69  68     1.080163278583   119.79886180   180.03626518
 H     71  70  69     1.079473264977   119.09438315   180.23730544
 H     72  61  44     1.080183071243   120.04255246   358.10187711
 H     73  72  61     1.080729670454   119.40700269   179.39197987
 H     75  74  73     1.080783675395   119.58108665   180.49744471
 H     76  75  74     1.080800433198   119.84541570   179.55272179
 H     77  66  49     1.080937268115   119.44661625   359.63264149
 H     78  77  66     1.080396947978   119.58349734   179.96706899
 H     80  79  78     1.080624528456   119.54746899   180.07960580
 H     81  80  79     1.080343058709   119.22726138   179.86589041
 H     82  65  49     1.079538397187   120.48286382     0.04207898
 H     83  82  65     1.080785793115   119.27209672   179.83868914
 H     85  84  83     1.080598126410   119.57355750   180.01029511
 H     86  85  84     1.078163948804   119.10967621   179.20151348
 H     87  69  68     1.091981862578   109.92745313   330.33271623
 H     87  69  68     1.091840306684   109.76726915   211.30570502
 H     88  87  69     1.087817046980   110.34308909   299.70942740
 H     88  87  69     1.087536488169   110.51932735   179.52232557
 H     88  87  69     1.087625036904   110.32965317    59.31630328
 H     89  74  73     1.091825945286   109.86784652   150.98544410
 H     89  74  73     1.091844513885   109.85530500    31.96072051
 H     90  89  74     1.087746092661   110.33535468   300.11429517
 H     90  89  74     1.087420879559   110.50186334   179.93707540
 H     90  89  74     1.087700487956   110.33362827    59.76733204
 H     91  84  83     1.091984502317   109.84124503   327.70283388
 H     91  84  83     1.091833654592   109.84583375   208.70724389
 H     92  91  84     1.087731758569   110.35962699   300.11460484
 H     92  91  84     1.087404857861   110.45848382   179.93620134
 H     92  91  84     1.087626152315   110.35541577    59.74346578
 H     93  79  78     1.091522014895   109.82365553   330.11261276
 H     93  79  78     1.091835287211   109.87311928   211.10907220
 H     94  93  79     1.087552083994   110.47075241   301.22105834
 H     94  93  79     1.087136101553   110.43640807   181.00904792
 H     94  93  79     1.087585336192   110.43599596    60.91665588

---------------------------
INTERNAL COORDINATES (A.U.)
---------------------------
 C      0   0   0     0.000000000000     0.00000000     0.00000000
 C      1   0   0     2.581845579401     0.00000000     0.00000000
 C      2   1   0     2.725407975171   133.09648299     0.00000000
 C      3   2   1     2.764387133812   107.29666747   160.57411333
 C      4   3   2     2.658772763495   108.63561020    10.23303046
 C      5   4   3     2.793701829982   109.42568220   357.26783583
 C      4   3   2     2.616622127902   131.42179989   188.95358214
 C      7   4   3     2.625104872287   118.37397752   181.66920868
 C      8   7   4     2.621561568378   121.45081937     0.38462598
 C      5   4   3     2.609161174970   121.45403357   178.16424121
 H      9   8   7     2.040200323918   119.63083790   179.54449147
 H      8   7   4     2.040443202308   119.06718348   180.34009537
 O      6   5   4     2.287035886864   127.97236980   176.79272882
 C      3   2   1     2.593143487165   126.23970863   328.65063410
 C     14   3   2     2.660823157114   124.24254784   183.46175819
 C     14   3   2     2.660660377992   122.84442159   359.09457249
 N     15  14   3     2.169937764832   176.79065123   204.78300910
 N     16  14   3     2.169910932199   177.11804461   232.79459101
 C      1   2   3     2.658351912926   129.79084781   343.40670398
 S     19   1   2     3.324751539207   118.19238504   172.32578748
 C     20  19   1     3.226374446735    90.54957312   175.20236226
 C     21  20  19     2.631499827363   112.51608682   359.78673085
 C     22  21  20     2.613876373338   113.27511281     0.00000000
 C     21  20  19    24.474113110477   133.24359621   207.98168533
 C     24  21  20     2.585667507228   131.26763069     5.51584085
 C     25  24  21     2.723937311046   133.64559820   359.82817561
 C     26  25  24     2.767597732859   107.35417332   195.75239079
 C     27  26  25     2.657608724019   108.72710146   350.33172960
 C     28  27  26     2.792690277766   109.31916259     3.04480816
 C     27  26  25     2.617074210346   131.42049682   172.24184996
 C     30  27  26     2.625075859098   118.43321082   177.37857288
 C     31  30  27     2.621123609448   121.45780644   359.72447163
 C     28  27  26     2.608965480644   121.53102059   182.59107162
 H     32  31  30     2.040107627559   119.64229479   180.64713816
 H     31  30  27     2.040434520623   119.01964075   179.88478832
 O     29  28  27     2.287669513486   127.87426216   182.60082465
 C     26  25  24     2.595083350431   127.21563622    27.59769124
 C     37  26  25     2.662241783462   124.32434422   177.40025065
 C     37  26  25     2.659524946323   124.50226501     1.12199240
 N     38  37  26     2.170664035997   175.68933233   153.22041609
 N     39  37  26     2.170838410547   175.65770529   158.74438045
 C     21  20  19     2.695868134464   136.60134024   184.66384602
 C     42  21  20     2.673236420662   106.98354148   173.96458179
 C     22  21  20     2.847887349915   110.19052295   182.60827113
 C     42  21  20     2.634185705142   130.78481337   358.15483483
 C     45  42  21     2.596187336237   117.33001585   173.55281411
 C     46  45  42     2.673771981040   120.43717051   358.83270420
 C     43  42  21     2.599006869133   120.55197548   185.68148038
 C     46  45  42     2.885434823577   128.67239138   184.56488727
 C     49  46  45     2.857586968733   100.53527002   166.27546045
 C     50  49  46     2.619345350489   110.08192968     8.44731599
 C     50  49  46     2.642009047396   138.81870810   190.18882020
 C     52  50  49     2.686583638914   111.66615518   178.57555179
 S     51  50  49     3.273484920419   115.24097873   180.30604001
 N     52  50  49     2.586988589658   138.80736833   359.47762347
 C     55  52  50     2.590199013488   107.21636658   176.67472956
 C     53  52  50     2.627443508048   106.88371712   182.12178177
 C     56  55  52     2.621702889598   136.49809159   185.17050459
 C     58  56  55     2.625675925175   111.89652380   177.10268136
 S     57  53  52     3.241332819480   141.79629905   177.53630983
 C     44  22  21     2.867252848133   108.32347788   122.85909144
 C     55  52  50     2.723627957615   127.45537578     7.27405052
 C     62  55  52     2.884226480315   111.35294937    93.02423806
 C     44  22  21     2.873206251691   113.35941079   247.19614424
 C     49  46  45     2.876027827590   109.21805672   283.66375275
 C     49  46  45     2.868913957721   110.19890433    48.87854874
 C     64  44  22     2.625852551268   119.72488454   194.99513271
 C     67  64  44     2.611095730965   120.46961021   181.00546012
 C     68  67  64     2.625012215900   120.91522178     0.28241131
 C     69  68  67     2.622829017999   118.30927019     0.32683164
 C     70  69  68     2.613029285613   121.05841142   359.92524622
 C     61  44  22     2.621530626118   121.92393145   265.86353504
 C     72  61  44     2.614041286795   120.40694437   178.35915673
 C     73  72  61     2.622656668292   121.03796722   359.23606169
 C     74  73  72     2.625408077289   118.32095858   359.67315911
 C     75  74  73     2.610295069716   120.87560814     0.49266881
 C     66  49  46     2.629067687389   118.09125029    50.99313434
 C     77  66  49     2.609658510387   120.73708302   179.67523585
 C     78  77  66     2.626480103119   120.81486838     0.02371702
 C     79  78  77     2.622152465833   118.25947686   359.71854976
 C     80  79  78     2.615293529137   121.14931694     0.20799257
 C     65  49  46     2.623849108327   121.83750011   241.41987846
 C     82  65  49     2.614783701813   120.79852480   179.89176296
 C     83  82  65     2.621051548966   121.12379348   359.92329276
 C     84  83  82     2.624817909606   118.03438114   359.87541702
 C     85  84  83     2.610072173166   121.01172744     0.20550968
 C     69  68  67     2.837069902605   120.94561145   182.81665030
 C     87  69  68     2.891597631377   110.30224920    90.94897548
 C     74  73  72     2.836944254618   120.81350151   177.36673896
 C     89  74  73     2.891718328874   110.31124947   271.48566405
 C     84  83  82     2.836195227859   120.95589826   182.09624321
 C     91  84  83     2.891449848242   110.37673301    88.20088850
 C     79  78  77     2.835482400406   120.84790307   182.35530245
 C     93  79  78     2.891793356033   110.33302403    90.59936698
 H      1   2   3     2.052601029008   114.30719385   170.16391859
 H      7   4   3     2.037911730652   121.44922620     2.38682033
 H     10   5   4     2.039245212953   120.13271536   180.49598335
 H     23  22  21     2.030968183737   124.36555075   183.92596140
 H     24  21  20     2.052964491068   113.75516860   174.04210686
 H     30  27  26     2.037461168434   121.55344930   356.80662489
 H     33  28  27     2.039153776893   120.11103561   179.30170348
 H     45  42  21     2.038569053217   119.91324330   357.11437036
 H     48  43  42     2.038615591535   122.11017835   177.44360133
 H     58  56  55     2.031495816080   125.04738160   354.72870900
 H     62  55  52     2.062707659235   108.21486430   331.59622451
 H     62  55  52     2.068472387187   107.98316378   214.10237968
 H     63  62  55     2.051994333843   110.29635483   296.32851401
 H     63  62  55     2.051034056864   109.97696282   176.49257692
 H     63  62  55     2.053926209907   110.58334541    56.11714185
 H     67  64  44     2.041943175357   119.84120554     2.15369547
 H     68  67  64     2.042621438585   119.48494317   180.40580299
 H     70  69  68     2.041212776441   119.79886180   180.03626518
 H     71  70  69     2.039908839696   119.09438315   180.23730544
 H     72  61  44     2.041250179147   120.04255246   358.10187711
 H     73  72  61     2.042283101961   119.40700269   179.39197987
 H     75  74  73     2.042385156509   119.58108665   180.49744471
 H     76  75  74     2.042416824167   119.84541570   179.55272179
 H     77  66  49     2.042675404686   119.44661625   359.63264149
 H     78  77  66     2.041654347603   119.58349734   179.96706899
 H     80  79  78     2.042084412379   119.54746899   180.07960580
 H     81  80  79     2.041552511642   119.22726138   179.86589041
 H     82  65  49     2.040031921735   120.48286382     0.04207898
 H     83  82  65     2.042389158421   119.27209672   179.83868914
 H     85  84  83     2.042034519743   119.57355750   180.01029511
 H     86  85  84     2.037434590706   119.10967621   179.20151348
 H     87  69  68     2.063546663482   109.92745313   330.33271623
 H     87  69  68     2.063279161610   109.76726915   211.30570502
 H     88  87  69     2.055676302603   110.34308909   299.70942740
 H     88  87  69     2.055146123287   110.51932735   179.52232557
 H     88  87  69     2.055313456144   110.32965317    59.31630328
 H     89  74  73     2.063252022501   109.86784652   150.98544410
 H     89  74  73     2.063287112066   109.85530500    31.96072051
 H     90  89  74     2.055542218373   110.33535468   300.11429517
 H     90  89  74     2.054927654674   110.50186334   179.93707540
 H     90  89  74     2.055456037970   110.33362827    59.76733204
 H     91  84  83     2.063551651865   109.84124503   327.70283388
 H     91  84  83     2.063266590977   109.84583375   208.70724389
 H     92  91  84     2.055515130864   110.35962699   300.11460484
 H     92  91  84     2.054897378053   110.45848382   179.93620134
 H     92  91  84     2.055315563966   110.35541577    59.74346578
 H     93  79  78     2.062677677297   109.82365553   330.11261276
 H     93  79  78     2.063269676181   109.87311928   211.10907220
 H     94  93  79     2.055175595124   110.47075241   301.22105834
 H     94  93  79     2.054389502234   110.43640807   181.00904792
 H     94  93  79     2.055238432672   110.43599596    60.91665588

---------------------
BASIS SET INFORMATION
---------------------
There are 5 groups of distinct atoms

 Group   1 Type C   : 11s6p2d1f contracted to 5s3p2d1f pattern {62111/411/11/1}
 Group   2 Type H   : 5s1p contracted to 3s1p pattern {311/1}
 Group   3 Type O   : 11s6p2d1f contracted to 5s3p2d1f pattern {62111/411/11/1}
 Group   4 Type N   : 11s6p2d1f contracted to 5s3p2d1f pattern {62111/411/11/1}
 Group   5 Type S   : 14s9p3d1f contracted to 5s5p2d1f pattern {73211/51111/21/1}

Atom   0C    basis set group =>   1
Atom   1C    basis set group =>   1
Atom   2C    basis set group =>   1
Atom   3C    basis set group =>   1
Atom   4C    basis set group =>   1
Atom   5C    basis set group =>   1
Atom   6C    basis set group =>   1
Atom   7C    basis set group =>   1
Atom   8C    basis set group =>   1
Atom   9C    basis set group =>   1
Atom  10H    basis set group =>   2
Atom  11H    basis set group =>   2
Atom  12O    basis set group =>   3
Atom  13C    basis set group =>   1
Atom  14C    basis set group =>   1
Atom  15C    basis set group =>   1
Atom  16N    basis set group =>   4
Atom  17N    basis set group =>   4
Atom  18C    basis set group =>   1
Atom  19S    basis set group =>   5
Atom  20C    basis set group =>   1
Atom  21C    basis set group =>   1
Atom  22C    basis set group =>   1
Atom  23C    basis set group =>   1
Atom  24C    basis set group =>   1
Atom  25C    basis set group =>   1
Atom  26C    basis set group =>   1
Atom  27C    basis set group =>   1
Atom  28C    basis set group =>   1
Atom  29C    basis set group =>   1
Atom  30C    basis set group =>   1
Atom  31C    basis set group =>   1
Atom  32C    basis set group =>   1
Atom  33H    basis set group =>   2
Atom  34H    basis set group =>   2
Atom  35O    basis set group =>   3
Atom  36C    basis set group =>   1
Atom  37C    basis set group =>   1
Atom  38C    basis set group =>   1
Atom  39N    basis set group =>   4
Atom  40N    basis set group =>   4
Atom  41C    basis set group =>   1
Atom  42C    basis set group =>   1
Atom  43C    basis set group =>   1
Atom  44C    basis set group =>   1
Atom  45C    basis set group =>   1
Atom  46C    basis set group =>   1
Atom  47C    basis set group =>   1
Atom  48C    basis set group =>   1
Atom  49C    basis set group =>   1
Atom  50C    basis set group =>   1
Atom  51C    basis set group =>   1
Atom  52C    basis set group =>   1
Atom  53S    basis set group =>   5
Atom  54N    basis set group =>   4
Atom  55C    basis set group =>   1
Atom  56C    basis set group =>   1
Atom  57C    basis set group =>   1
Atom  58C    basis set group =>   1
Atom  59S    basis set group =>   5
Atom  60C    basis set group =>   1
Atom  61C    basis set group =>   1
Atom  62C    basis set group =>   1
Atom  63C    basis set group =>   1
Atom  64C    basis set group =>   1
Atom  65C    basis set group =>   1
Atom  66C    basis set group =>   1
Atom  67C    basis set group =>   1
Atom  68C    basis set group =>   1
Atom  69C    basis set group =>   1
Atom  70C    basis set group =>   1
Atom  71C    basis set group =>   1
Atom  72C    basis set group =>   1
Atom  73C    basis set group =>   1
Atom  74C    basis set group =>   1
Atom  75C    basis set group =>   1
Atom  76C    basis set group =>   1
Atom  77C    basis set group =>   1
Atom  78C    basis set group =>   1
Atom  79C    basis set group =>   1
Atom  80C    basis set group =>   1
Atom  81C    basis set group =>   1
Atom  82C    basis set group =>   1
Atom  83C    basis set group =>   1
Atom  84C    basis set group =>   1
Atom  85C    basis set group =>   1
Atom  86C    basis set group =>   1
Atom  87C    basis set group =>   1
Atom  88C    basis set group =>   1
Atom  89C    basis set group =>   1
Atom  90C    basis set group =>   1
Atom  91C    basis set group =>   1
Atom  92C    basis set group =>   1
Atom  93C    basis set group =>   1
Atom  94H    basis set group =>   2
Atom  95H    basis set group =>   2
Atom  96H    basis set group =>   2
Atom  97H    basis set group =>   2
Atom  98H    basis set group =>   2
Atom  99H    basis set group =>   2
Atom 100H    basis set group =>   2
Atom 101H    basis set group =>   2
Atom 102H    basis set group =>   2
Atom 103H    basis set group =>   2
Atom 104H    basis set group =>   2
Atom 105H    basis set group =>   2
Atom 106H    basis set group =>   2
Atom 107H    basis set group =>   2
Atom 108H    basis set group =>   2
Atom 109H    basis set group =>   2
Atom 110H    basis set group =>   2
Atom 111H    basis set group =>   2
Atom 112H    basis set group =>   2
Atom 113H    basis set group =>   2
Atom 114H    basis set group =>   2
Atom 115H    basis set group =>   2
Atom 116H    basis set group =>   2
Atom 117H    basis set group =>   2
Atom 118H    basis set group =>   2
Atom 119H    basis set group =>   2
Atom 120H    basis set group =>   2
Atom 121H    basis set group =>   2
Atom 122H    basis set group =>   2
Atom 123H    basis set group =>   2
Atom 124H    basis set group =>   2
Atom 125H    basis set group =>   2
Atom 126H    basis set group =>   2
Atom 127H    basis set group =>   2
Atom 128H    basis set group =>   2
Atom 129H    basis set group =>   2
Atom 130H    basis set group =>   2
Atom 131H    basis set group =>   2
Atom 132H    basis set group =>   2
Atom 133H    basis set group =>   2
Atom 134H    basis set group =>   2
Atom 135H    basis set group =>   2
Atom 136H    basis set group =>   2
Atom 137H    basis set group =>   2
Atom 138H    basis set group =>   2
Atom 139H    basis set group =>   2
Atom 140H    basis set group =>   2
Atom 141H    basis set group =>   2
Atom 142H    basis set group =>   2
Atom 143H    basis set group =>   2
Atom 144H    basis set group =>   2
---------------------------------
AUXILIARY/J BASIS SET INFORMATION
---------------------------------
There are 5 groups of distinct atoms

 Group   1 Type C   : 12s5p4d2f1g contracted to 6s4p3d1f1g pattern {711111/2111/211/2/1}
 Group   2 Type H   : 5s2p1d contracted to 3s1p1d pattern {311/2/1}
 Group   3 Type O   : 12s5p4d2f1g contracted to 6s4p3d1f1g pattern {711111/2111/211/2/1}
 Group   4 Type N   : 12s5p4d2f1g contracted to 6s4p3d1f1g pattern {711111/2111/211/2/1}
 Group   5 Type S   : 14s5p5d2f1g contracted to 8s4p3d1f1g pattern {71111111/2111/311/2/1}

Atom   0C    basis set group =>   1
Atom   1C    basis set group =>   1
Atom   2C    basis set group =>   1
Atom   3C    basis set group =>   1
Atom   4C    basis set group =>   1
Atom   5C    basis set group =>   1
Atom   6C    basis set group =>   1
Atom   7C    basis set group =>   1
Atom   8C    basis set group =>   1
Atom   9C    basis set group =>   1
Atom  10H    basis set group =>   2
Atom  11H    basis set group =>   2
Atom  12O    basis set group =>   3
Atom  13C    basis set group =>   1
Atom  14C    basis set group =>   1
Atom  15C    basis set group =>   1
Atom  16N    basis set group =>   4
Atom  17N    basis set group =>   4
Atom  18C    basis set group =>   1
Atom  19S    basis set group =>   5
Atom  20C    basis set group =>   1
Atom  21C    basis set group =>   1
Atom  22C    basis set group =>   1
Atom  23C    basis set group =>   1
Atom  24C    basis set group =>   1
Atom  25C    basis set group =>   1
Atom  26C    basis set group =>   1
Atom  27C    basis set group =>   1
Atom  28C    basis set group =>   1
Atom  29C    basis set group =>   1
Atom  30C    basis set group =>   1
Atom  31C    basis set group =>   1
Atom  32C    basis set group =>   1
Atom  33H    basis set group =>   2
Atom  34H    basis set group =>   2
Atom  35O    basis set group =>   3
Atom  36C    basis set group =>   1
Atom  37C    basis set group =>   1
Atom  38C    basis set group =>   1
Atom  39N    basis set group =>   4
Atom  40N    basis set group =>   4
Atom  41C    basis set group =>   1
Atom  42C    basis set group =>   1
Atom  43C    basis set group =>   1
Atom  44C    basis set group =>   1
Atom  45C    basis set group =>   1
Atom  46C    basis set group =>   1
Atom  47C    basis set group =>   1
Atom  48C    basis set group =>   1
Atom  49C    basis set group =>   1
Atom  50C    basis set group =>   1
Atom  51C    basis set group =>   1
Atom  52C    basis set group =>   1
Atom  53S    basis set group =>   5
Atom  54N    basis set group =>   4
Atom  55C    basis set group =>   1
Atom  56C    basis set group =>   1
Atom  57C    basis set group =>   1
Atom  58C    basis set group =>   1
Atom  59S    basis set group =>   5
Atom  60C    basis set group =>   1
Atom  61C    basis set group =>   1
Atom  62C    basis set group =>   1
Atom  63C    basis set group =>   1
Atom  64C    basis set group =>   1
Atom  65C    basis set group =>   1
Atom  66C    basis set group =>   1
Atom  67C    basis set group =>   1
Atom  68C    basis set group =>   1
Atom  69C    basis set group =>   1
Atom  70C    basis set group =>   1
Atom  71C    basis set group =>   1
Atom  72C    basis set group =>   1
Atom  73C    basis set group =>   1
Atom  74C    basis set group =>   1
Atom  75C    basis set group =>   1
Atom  76C    basis set group =>   1
Atom  77C    basis set group =>   1
Atom  78C    basis set group =>   1
Atom  79C    basis set group =>   1
Atom  80C    basis set group =>   1
Atom  81C    basis set group =>   1
Atom  82C    basis set group =>   1
Atom  83C    basis set group =>   1
Atom  84C    basis set group =>   1
Atom  85C    basis set group =>   1
Atom  86C    basis set group =>   1
Atom  87C    basis set group =>   1
Atom  88C    basis set group =>   1
Atom  89C    basis set group =>   1
Atom  90C    basis set group =>   1
Atom  91C    basis set group =>   1
Atom  92C    basis set group =>   1
Atom  93C    basis set group =>   1
Atom  94H    basis set group =>   2
Atom  95H    basis set group =>   2
Atom  96H    basis set group =>   2
Atom  97H    basis set group =>   2
Atom  98H    basis set group =>   2
Atom  99H    basis set group =>   2
Atom 100H    basis set group =>   2
Atom 101H    basis set group =>   2
Atom 102H    basis set group =>   2
Atom 103H    basis set group =>   2
Atom 104H    basis set group =>   2
Atom 105H    basis set group =>   2
Atom 106H    basis set group =>   2
Atom 107H    basis set group =>   2
Atom 108H    basis set group =>   2
Atom 109H    basis set group =>   2
Atom 110H    basis set group =>   2
Atom 111H    basis set group =>   2
Atom 112H    basis set group =>   2
Atom 113H    basis set group =>   2
Atom 114H    basis set group =>   2
Atom 115H    basis set group =>   2
Atom 116H    basis set group =>   2
Atom 117H    basis set group =>   2
Atom 118H    basis set group =>   2
Atom 119H    basis set group =>   2
Atom 120H    basis set group =>   2
Atom 121H    basis set group =>   2
Atom 122H    basis set group =>   2
Atom 123H    basis set group =>   2
Atom 124H    basis set group =>   2
Atom 125H    basis set group =>   2
Atom 126H    basis set group =>   2
Atom 127H    basis set group =>   2
Atom 128H    basis set group =>   2
Atom 129H    basis set group =>   2
Atom 130H    basis set group =>   2
Atom 131H    basis set group =>   2
Atom 132H    basis set group =>   2
Atom 133H    basis set group =>   2
Atom 134H    basis set group =>   2
Atom 135H    basis set group =>   2
Atom 136H    basis set group =>   2
Atom 137H    basis set group =>   2
Atom 138H    basis set group =>   2
Atom 139H    basis set group =>   2
Atom 140H    basis set group =>   2
Atom 141H    basis set group =>   2
Atom 142H    basis set group =>   2
Atom 143H    basis set group =>   2
Atom 144H    basis set group =>   2
------------------------------------------------------------------------------
                           ORCA GTO INTEGRAL CALCULATION
                           -- RI-GTO INTEGRALS CHOSEN --
------------------------------------------------------------------------------

                         BASIS SET STATISTICS AND STARTUP INFO

Gaussian basis set:
 # of primitive gaussian shells          ... 2151
 # of primitive gaussian functions       ... 4631
 # of contracted shells                  ... 1216
 # of contracted basis functions         ... 3138
 Highest angular momentum                ...    3
 Maximum contraction depth               ...    7
Auxiliary gaussian basis set:
 # of primitive gaussian shells          ... 2609
 # of primitive gaussian functions       ... 7201
 # of contracted shells                  ... 1631
 # of contracted aux-basis functions     ... 5021
 Highest angular momentum                ...    4
 Maximum contraction depth               ...    7
Ratio of auxiliary to basis functions    ...  1.60
Integral package used                  ... LIBINT
 One Electron integrals                  ... done
 Ordering auxiliary basis shells         ... done
 Integral threshhold             Thresh  ...  2.500e-11
 Primitive cut-off               TCut    ...  2.500e-12
 Pre-screening matrix                    ... done
 Shell pair data                         ... 
 Ordering of the shell pairs             ... done (   0.057 sec) 239794 of 739936 pairs
 Determination of significant pairs      ... done (   0.002 sec)
 Creation of shell pair data             ... done (   0.028 sec)
 Storage of shell pair data              ... done (   0.040 sec)
 Shell pair data done in (   0.127 sec)
 Computing two index integrals           ... done
 Cholesky decomposition of the V-matrix  ... done


Timings:
 Total evaluation time                   ...  11.681 sec (  0.195 min)
 One electron matrix time                ...   4.521 sec (  0.075 min) = 38.7%
 Schwartz matrix evaluation time         ...   5.476 sec (  0.091 min) = 46.9%
 Two index repulsion integral time       ...   0.604 sec (  0.010 min) =  5.2%
 Cholesky decomposition of V             ...   0.935 sec (  0.016 min) =  8.0%
 Three index repulsion integral time     ...   0.000 sec (  0.000 min) =  0.0%

-------------------------------------------------------------------------------
                                 ORCA SCF
-------------------------------------------------------------------------------

------------
SCF SETTINGS
------------
Hamiltonian:
 Density Functional     Method          .... DFT(GTOs)
 Exchange Functional    Exchange        .... B88
   X-Alpha parameter    XAlpha          ....  0.666667
   Becke's b parameter  XBeta           ....  0.004200
 Correlation Functional Correlation     .... LYP
 LDA part of GGA corr.  LDAOpt          .... VWN-5
 Gradients option       PostSCFGGA      .... off
 Hybrid DFT is turned on
   Fraction HF Exchange ScalHFX         ....  0.200000
   Scaling of DF-GGA-X  ScalDFX         ....  0.720000
   Scaling of DF-GGA-C  ScalDFC         ....  0.810000
   Scaling of DF-LDA-C  ScalLDAC        ....  1.000000
   Perturbative correction              ....  0.000000
   Density functional embedding theory  .... OFF
   NL short-range parameter             ....  4.800000
 RI-approximation to the Coulomb term is turned on
   Number of auxiliary basis functions  .... 5021
   RIJ-COSX (HFX calculated with COS-X)).... on


General Settings:
 Integral files         IntName         .... TPIC
 Hartree-Fock type      HFTyp           .... RHF
 Total Charge           Charge          ....    0
 Multiplicity           Mult            ....    1
 Number of Electrons    NEL             ....  634
 Basis Dimension        Dim             .... 3138
 Nuclear Repulsion      ENuc            ....  15509.8014859172 Eh

Convergence Acceleration:
 DIIS                   CNVDIIS         .... on
   Start iteration      DIISMaxIt       ....    12
   Startup error        DIISStart       ....  0.200000
   # of expansion vecs  DIISMaxEq       ....     5
   Bias factor          DIISBfac        ....   1.050
   Max. coefficient     DIISMaxC        ....  10.000
 Newton-Raphson         CNVNR           .... off
 SOSCF                  CNVSOSCF        .... on
   Start iteration      SOSCFMaxIt      ....   150
   Startup grad/error   SOSCFStart      ....  0.003300
 Level Shifting         CNVShift        .... on
   Level shift para.    LevelShift      ....    0.2500
   Turn off err/grad.   ShiftErr        ....    0.0010
 Zerner damping         CNVZerner       .... off
 Static damping         CNVDamp         .... on
   Fraction old density DampFac         ....    0.7000
   Max. Damping (<1)    DampMax         ....    0.9800
   Min. Damping (>=0)   DampMin         ....    0.0000
   Turn off err/grad.   DampErr         ....    0.1000
 Fernandez-Rico         CNVRico         .... off

SCF Procedure:
 Maximum # iterations   MaxIter         ....   125
 SCF integral mode      SCFMode         .... Direct
   Integral package                     .... LIBINT
 Reset frequency        DirectResetFreq ....    20
 Integral Threshold     Thresh          ....  2.500e-11 Eh
 Primitive CutOff       TCut            ....  2.500e-12 Eh

Convergence Tolerance:
 Convergence Check Mode ConvCheckMode   .... Total+1el-Energy
 Convergence forced     ConvForced      .... 1
 Energy Change          TolE            ....  1.000e-08 Eh
 1-El. energy change                    ....  1.000e-05 Eh
 Orbital Gradient       TolG            ....  1.000e-05
 Orbital Rotation angle TolX            ....  1.000e-05
 DIIS Error             TolErr          ....  5.000e-07


Diagonalization of the overlap matrix:
Smallest eigenvalue                        ... 1.369e-06
Time for diagonalization                   ...    6.593 sec
Threshold for overlap eigenvalues          ... 1.000e-08
Number of eigenvalues below threshold      ... 0
Time for construction of square roots      ...    2.019 sec
Total time needed                          ...    8.639 sec

-------------------
DFT GRID GENERATION
-------------------

General Integration Accuracy     IntAcc      ...  4.670
Radial Grid Type                 RadialGrid  ... Gauss-Chebyshev
Angular Grid (max. acc.)         AngularGrid ... Lebedev-302
Angular grid pruning method      GridPruning ... 3 (G Style)
Weight generation scheme         WeightScheme... Becke
Basis function cutoff            BFCut       ...    1.0000e-11
Integration weight cutoff        WCut        ...    1.0000e-14
Grids for H and He will be reduced by one unit

# of grid points (after initial pruning)     ... 747652 (   2.6 sec)
# of grid points (after weights+screening)   ... 622852 (  52.8 sec)
nearest neighbour list constructed           ...    0.0 sec
Grid point re-assignment to atoms done       ...    0.1 sec
Grid point division into batches done        ...    2.0 sec
Reduced shell lists constructed in   27.1 sec

Total number of grid points                  ...   622852
Total number of batches                      ...     9802
Average number of points per batch           ...       63
Average number of grid points per atom       ...     4296
Average number of shells per batch           ...   200.53 (16.49%)
Average number of basis functions per batch  ...   484.41 (15.44%)
Average number of large shells per batch     ...   112.66 (56.18%)
Average number of large basis fcns per batch ...   279.50 (57.70%)
Maximum spatial batch extension              ...  21.10, 21.00, 21.51 au
Average spatial batch extension              ...   2.05,  2.03,  2.05 au

Time for grid setup =   82.627 sec

------------------------------
INITIAL GUESS: MODEL POTENTIAL
------------------------------
Loading Hartree-Fock densities                     ... done
Calculating cut-offs                               ... done
Setting up the integral package                    ... done
Initializing the effective Hamiltonian             ... done
Starting the Coulomb interaction                   ... done (  58.4 sec)
Reading the grid                                   ... done
Mapping shells                                     ... done
Starting the XC term evaluation                    ... done (  41.5 sec)
  promolecular density results
     # of electrons  =    633.972835593
     EX              =   -552.429935684
     EC              =    -21.945422580
     EX+EC           =   -574.375358264
Transforming the Hamiltonian                       ... done (   2.0 sec)
Diagonalizing the Hamiltonian                      ... done (   6.8 sec)
Back transforming the eigenvectors                 ... done (   0.9 sec)
Now organizing SCF variables                       ... done
                      ------------------
                      INITIAL GUESS DONE ( 193.5 sec)
                      ------------------
--------------------
COSX GRID GENERATION
--------------------

General Integration Accuracy     IntAcc      ...  3.340
Radial Grid Type                 RadialGrid  ... Gauss-Chebyshev
Angular Grid (max. acc.)         AngularGrid ... Lebedev-50
Angular grid pruning method      GridPruning ... 3 (G Style)
Weight generation scheme         WeightScheme... Becke
Basis function cutoff            BFCut       ...    1.0000e-11
Integration weight cutoff        WCut        ...    1.0000e-14
Grids for H and He will be reduced by one unit

# of grid points (after initial pruning)     ...  70108 (   0.1 sec)
# of grid points (after weights+screening)   ...  61351 (   4.9 sec)
nearest neighbour list constructed           ...    0.0 sec
Grid point re-assignment to atoms done       ...    0.0 sec
Grid point division into batches done        ...    0.0 sec
Reduced shell lists constructed in    3.8 sec

Total number of grid points                  ...    61351
Total number of batches                      ...     1035
Average number of points per batch           ...       59
Average number of grid points per atom       ...      423
Average number of shells per batch           ...   245.69 (20.20%)
Average number of basis functions per batch  ...   599.55 (19.11%)
Average number of large shells per batch     ...   137.83 (56.10%)
Average number of large basis fcns per batch ...   346.59 (57.81%)
Maximum spatial batch extension              ...  20.14, 21.53, 18.11 au
Average spatial batch extension              ...   4.20,  4.23,  4.21 au

Overlap Fitting                  UseSFitting ... on
Constructing numerical overlap ... done (      3.9 sec)
Inverting numerical overlap    ... done (      0.6 sec)
Obtaining analytic overlap     ... done (      0.0 sec)
Final contraction and storage  ... done (      1.0 sec)


General Integration Accuracy     IntAcc      ...  3.670
Radial Grid Type                 RadialGrid  ... Gauss-Chebyshev
Angular Grid (max. acc.)         AngularGrid ... Lebedev-50
Angular grid pruning method      GridPruning ... 3 (G Style)
Weight generation scheme         WeightScheme... Becke
Basis function cutoff            BFCut       ...    1.0000e-11
Integration weight cutoff        WCut        ...    1.0000e-14
Grids for H and He will be reduced by one unit

# of grid points (after initial pruning)     ...  88060 (   0.2 sec)
# of grid points (after weights+screening)   ...  76707 (   6.2 sec)
nearest neighbour list constructed           ...    0.0 sec
Grid point re-assignment to atoms done       ...    0.0 sec
Grid point division into batches done        ...    0.0 sec
Reduced shell lists constructed in    4.7 sec

Total number of grid points                  ...    76707
Total number of batches                      ...     1269
Average number of points per batch           ...       60
Average number of grid points per atom       ...      529
Average number of shells per batch           ...   239.46 (19.69%)
Average number of basis functions per batch  ...   583.55 (18.60%)
Average number of large shells per batch     ...   134.21 (56.04%)
Average number of large basis fcns per batch ...   337.23 (57.79%)
Maximum spatial batch extension              ...  22.02, 19.96, 19.59 au
Average spatial batch extension              ...   3.96,  3.94,  4.00 au

Overlap Fitting                  UseSFitting ... on
Constructing numerical overlap ... done (      4.7 sec)
Inverting numerical overlap    ... done (      0.6 sec)
Obtaining analytic overlap     ... done (      0.0 sec)
Final contraction and storage  ... done (      1.0 sec)


General Integration Accuracy     IntAcc      ...  4.010
Radial Grid Type                 RadialGrid  ... Gauss-Chebyshev
Angular Grid (max. acc.)         AngularGrid ... Lebedev-110
Angular grid pruning method      GridPruning ... 3 (G Style)
Weight generation scheme         WeightScheme... Becke
Basis function cutoff            BFCut       ...    1.0000e-11
Integration weight cutoff        WCut        ...    1.0000e-14
Grids for H and He will be reduced by one unit

# of grid points (after initial pruning)     ... 169260 (   0.3 sec)
# of grid points (after weights+screening)   ... 146104 (  12.0 sec)
nearest neighbour list constructed           ...    0.0 sec
Grid point re-assignment to atoms done       ...    0.0 sec
Grid point division into batches done        ...    0.1 sec
Reduced shell lists constructed in    7.9 sec

Total number of grid points                  ...   146104
Total number of batches                      ...     2352
Average number of points per batch           ...       62
Average number of grid points per atom       ...     1008
Average number of shells per batch           ...   227.17 (18.68%)
Average number of basis functions per batch  ...   553.25 (17.63%)
Average number of large shells per batch     ...   128.24 (56.45%)
Average number of large basis fcns per batch ...   321.50 (58.11%)
Maximum spatial batch extension              ...  26.17, 24.57, 21.17 au
Average spatial batch extension              ...   3.27,  3.26,  3.30 au

Overlap Fitting                  UseSFitting ... on
Constructing numerical overlap ... done (      7.9 sec)
Inverting numerical overlap    ... done (      0.6 sec)
Obtaining analytic overlap     ... done (      0.0 sec)
Final contraction and storage  ... done (      1.0 sec)

Time for X-Grid setup             =   61.841 sec
--------------
SCF ITERATIONS
--------------
ITER       Energy         Delta-E        Max-DP      RMS-DP      [F,P]     Damp
               ***  Starting incremental Fock matrix formation  ***
  0  -4696.9541682529   0.000000000000 0.52899740  0.00089368  0.2840939 0.7000
  1  -4698.0479935605  -1.093825307569 0.34464939  0.00071269  0.1050880 0.7000
                               ***Turning on DIIS***
  2  -4698.4655359110  -0.417542350473 0.31924002  0.00105840  0.0435861 0.0000
  3  -4699.1367556325  -0.671219721498 0.30392370  0.00066913  0.0563117 0.0000
  4  -4699.2833241246  -0.146568492175 0.05823013  0.00021816  0.0330277 0.0000
  5  -4699.2971131511  -0.013789026501 0.02562171  0.00009112  0.0127366 0.0000
                      *** Initiating the SOSCF procedure ***
                           *** Shutting down DIIS ***
                      *** Re-Reading the Fockian *** 
                      *** Removing any level shift *** 
ITER      Energy       Delta-E        Grad      Rot      Max-DP    RMS-DP
  6  -4699.29856923  -0.0014560753  0.000830  0.000830  0.017078  0.000032
               *** Restarting incremental Fock matrix formation ***
  7  -4699.29868144  -0.0001122126  0.000893  0.008524  0.044154  0.000102
  8  -4699.29866963   0.0000118077  0.000498  0.003865  0.020917  0.000043
  9  -4699.29872785  -0.0000582206  0.000202  0.002397  0.027715  0.000047
 10  -4699.29872734   0.0000005083  0.000164  0.000405  0.003380  0.000008
 11  -4699.29873262  -0.0000052804  0.000079  0.000652  0.009256  0.000019
 12  -4699.29873210   0.0000005211  0.000054  0.000122  0.000738  0.000003
 13  -4699.29873332  -0.0000012124  0.000031  0.000472  0.007257  0.000008
 14  -4699.29873313   0.0000001849  0.000057  0.000201  0.001830  0.000003
 15  -4699.29873358  -0.0000004448  0.000012  0.000138  0.002506  0.000004
 16  -4699.29873340   0.0000001752  0.000018  0.000061  0.001412  0.000002
 17  -4699.29873338   0.0000000242  0.000003  0.000057  0.001531  0.000003
 18  -4699.29873354  -0.0000001667  0.000006  0.000033  0.002382  0.000002
                  ***Gradient check signals convergence***
              ***Rediagonalizing the Fockian in SOSCF/NRSCF***

               *****************************************************
               *                     SUCCESS                       *
               *           SCF CONVERGED AFTER  19 CYCLES          *
               *****************************************************

Setting up the final grid:

General Integration Accuracy     IntAcc      ...  5.010
Radial Grid Type                 RadialGrid  ... Gauss-Chebyshev
Angular Grid (max. acc.)         AngularGrid ... Lebedev-434
Angular grid pruning method      GridPruning ... 3 (G Style)
[...]
   Maximum Energy change  :     0.004434563315 (vector 2)
   Maximum residual norm  :     0.000044362351

                       ****Iteration    2****
   Time for densities:    15.246
   Time for K (COSX):  5119.303
   Time for XC-Integration:    47.222
   Time for Sigma-Completion:   259.352
   Size of expansion space: 15
   Lowest Energy          :     0.044335823312
   Maximum Energy change  :     0.000443907527 (vector 2)
   Maximum residual norm  :     0.000008369869
   Rebuilding the expansion space

                       ****Iteration    3****
   Time for densities:    31.119
   Time for K (COSX):  5506.836
   Time for XC-Integration:    89.504
   Time for Sigma-Completion:   468.580
   Size of expansion space: 6
   Lowest Energy          :     0.044332520764
   Maximum Energy change  :     0.000067632629 (vector 2)
   Maximum residual norm  :     0.000001858120

                       ****Iteration    4****
   Time for densities:    14.561
   Time for K (COSX):  5154.050
   Time for XC-Integration:    47.816
   Time for Sigma-Completion:   232.019
   Size of expansion space: 9
   Lowest Energy          :     0.044332315248
   Maximum Energy change  :     0.000024014876 (vector 2)
   Maximum residual norm  :     0.000000728767

                       ****Iteration    5****
   Time for densities:    15.070
   Time for K (COSX):  5398.533
   Time for XC-Integration:    48.083
   Time for Sigma-Completion:   245.620
   Size of expansion space: 12
   Lowest Energy          :     0.044332306671
   Maximum Energy change  :     0.000001826786 (vector 2)
   Maximum residual norm  :     0.000000565549

                       ****Iteration    6****
   Time for densities:    14.315
   Time for K (COSX):  5029.606
   Time for XC-Integration:    46.983
   Time for Sigma-Completion:   232.783
   Size of expansion space: 15
   Lowest Energy          :     0.044332306477
   Maximum Energy change  :     0.000005967213 (vector 2)
   Maximum residual norm  :     0.000000498256
   Rebuilding the expansion space

                       ****Iteration    7****
   Time for densities:    29.529
   Time for K (COSX):  5211.708
   Time for XC-Integration:    94.557
   Time for Sigma-Completion:   481.661
   Size of expansion space: 6
   Lowest Energy          :     0.044332304841
   Maximum Energy change  :     0.000001946252 (vector 2)
   Maximum residual norm  :     0.000000228843

      *** CONVERGENCE OF RESIDUAL NORM REACHED ***

Storing the converged CI vectors               ... TPIC.cis3

                 *** DAVIDSON DONE ***

------------------------------------
TD-DFT/TDA EXCITED STATES (TRIPLETS)
------------------------------------

the weight of the individual excitations are printed if larger than 1.0e-02

STATE  1:  E=   0.044332 au      1.206 eV     9729.8 cm**-1
   315a -> 318a  :     0.055405 (c=  0.23538206)
   316a -> 317a  :     0.866797 (c= -0.93101919)
   316a -> 318a  :     0.042322 (c=  0.20572392)

STATE  2:  E=   0.053543 au      1.457 eV    11751.3 cm**-1
   315a -> 317a  :     0.222025 (c= -0.47119476)
   316a -> 317a  :     0.028062 (c=  0.16751656)
   316a -> 318a  :     0.695120 (c=  0.83373840)
   316a -> 320a  :     0.014002 (c=  0.11833123)

STATE  3:  E=   0.073473 au      1.999 eV    16125.4 cm**-1
   308a -> 317a  :     0.011092 (c= -0.10531718)
   312a -> 317a  :     0.019039 (c= -0.13798353)
   315a -> 317a  :     0.169615 (c= -0.41184286)
   315a -> 318a  :     0.107468 (c= -0.32782327)
   315a -> 319a  :     0.010008 (c= -0.10004238)
   315a -> 320a  :     0.018649 (c=  0.13656227)
   316a -> 318a  :     0.077828 (c= -0.27897694)
   316a -> 319a  :     0.339536 (c= -0.58269731)
   316a -> 320a  :     0.148146 (c=  0.38489679)
   316a -> 321a  :     0.019092 (c=  0.13817445)

------------------------------
TD-DFT/TDA SPIN-ORBIT COUPLING
------------------------------

Calculating the spin-orbit integrals:             

Loading the effective charges         ... done
Entering the SOC calc. section        ... 
------------------------------------------------------------------------------
                         ORCA SPIN-ORBIT COUPLING CALCULATION
------------------------------------------------------------------------------

GBW file                                    ... TPIC.gbw
Input density                               ... TPIC.cisp0
Output integrals                            ... TPIC.cis
Operator type                               ... Mean-field/Effective potential
   One-Electron Terms                       ... 1
   Coulomb Contribution                     ... 2
   Exchange Contribution                    ... 3
   Correlation Contribution                 ... 0
   Maximum number of centers                ... 4
Setting up the integration grid             ... done
Evaluating density on the grid              ... (NumEl=  633.999747) done
Evaluating Coulomb term semi-analytically   ... done
One-Center Exchange (+SOO)                  ... done
Evaluating the spin-orbit operator          ... done
Transforming the SOC integrals              ... done
Constructing the SOC matrix:                ... done
Diagonalizing the SOC matrix:               ... done

      --------------------------------------------------------------------------------
                      CALCULATED SOCME BETWEEN TRIPLETS AND SINGLETS                  
      --------------------------------------------------------------------------------
           Root                          <T|HSO|S>  (Re, Im) cm-1                     
         T      S             Z                     X                     Y           
      --------------------------------------------------------------------------------
         1      0    (   0.00 ,    1.19 )    (   0.00 ,   -0.11 )    (  -0.00 ,   -0.67 )
         1      1    (   0.00 ,   -0.26 )    (   0.00 ,   -0.35 )    (  -0.00 ,    0.22 )
         1      2    (   0.00 ,    0.64 )    (   0.00 ,    0.15 )    (  -0.00 ,   -0.34 )
         1      3    (   0.00 ,   -1.78 )    (   0.00 ,   -1.04 )    (  -0.00 ,    0.08 )
         2      0    (   0.00 ,   -0.27 )    (   0.00 ,    1.41 )    (  -0.00 ,   -2.20 )
         2      1    (   0.00 ,    0.10 )    (   0.00 ,    0.09 )    (  -0.00 ,   -0.05 )
         2      2    (   0.00 ,    0.66 )    (   0.00 ,    0.53 )    (  -0.00 ,   -0.20 )
         2      3    (   0.00 ,    0.20 )    (   0.00 ,    0.09 )    (  -0.00 ,    0.30 )
         3      0    (   0.00 ,    0.20 )    (   0.00 ,    0.05 )    (  -0.00 ,   -0.08 )
         3      1    (   0.00 ,   -0.58 )    (   0.00 ,   -0.34 )    (  -0.00 ,    0.09 )
         3      2    (   0.00 ,    0.35 )    (   0.00 ,    0.27 )    (  -0.00 ,   -0.11 )
         3      3    (   0.00 ,    0.81 )    (   0.00 ,    0.39 )    (  -0.00 ,   -0.20 )

SOC stabilization of the ground state:  -0.0008 cm-1
Eigenvalues of the SOC matrix:

   State:        cm-1         eV
     0:          0.00         0.0000
     1:       9729.82         1.2063
     2:       9729.82         1.2063
     3:       9729.82         1.2063
     4:      11751.26         1.4570
     5:      11751.26         1.4570
     6:      11751.26         1.4570
     7:      14299.82         1.7730
     8:      16125.41         1.9993
     9:      16125.42         1.9993
    10:      16125.42         1.9993
    11:      16141.21         2.0013
    12:      19037.26         2.3603

The threshold for printing is 0.0100
Eigenvectors of the SOC matrix:

             E(cm-1)  Weight      Real         Imag     : Root  Spin  Ms
 STATE  0:      0.00
                      1.00000     -0.86848      0.49573 : 0     0     0
 STATE  1:   9729.82
                      0.41918      0.64056     -0.09412 : 1     1     0
                      0.29041      0.19118     -0.50385 : 1     1    -1
                      0.29041     -0.32804     -0.42756 : 1     1     1
 STATE  2:   9729.82
                      0.09264      0.08557     -0.29209 : 1     1     0
                      0.45368     -0.33388      0.58498 : 1     1    -1
                      0.45368      0.03456     -0.67267 : 1     1     1
 STATE  3:   9729.82
                      0.48818      0.46595      0.52065 : 1     1     0
                      0.25591     -0.34743      0.36769 : 1     1    -1
                      0.25591     -0.40385      0.30465 : 1     1     1
 STATE  4:  11751.26
                      0.79682     -0.60647     -0.65500 : 2     1     0
                      0.10159     -0.24851     -0.19957 : 2     1    -1
                      0.10159      0.17989      0.26311 : 2     1     1
 STATE  5:  11751.26
                      0.16677     -0.19660     -0.35793 : 2     1     0
                      0.41662      0.58425      0.27436 : 2     1    -1
                      0.41662      0.08188     -0.64024 : 2     1     1
 STATE  6:  11751.26
                      0.03641     -0.16297      0.09926 : 2     1     0
                      0.48179      0.61524      0.32136 : 2     1    -1
                      0.48179      0.00322      0.69411 : 2     1     1
 STATE  7:  14299.82
                      1.00000      0.24313     -0.96999 : 1     0     0
 STATE  8:  16125.41
                      0.59026      0.71269      0.28692 : 3     1     0
                      0.20445      0.32603      0.31330 : 3     1    -1
                      0.20445     -0.45216      0.00000 : 3     1     1
 STATE  9:  16125.42
                      0.34700     -0.58477      0.07106 : 3     1     0
                      0.32650      0.55477     -0.13686 : 3     1    -1
                      0.32650     -0.57140      0.00000 : 3     1     1
 STATE 10:  16125.42
                      0.06225     -0.01696      0.24892 : 3     1     0
                      0.46887      0.67842      0.09285 : 3     1    -1
                      0.46887      0.68474      0.00000 : 3     1     1
 STATE 11:  16141.21
                      0.99916     -0.36599      0.93017 : 2     0     0
 STATE 12:  19037.26
                      1.00000      0.45042     -0.89282 : 3     0     0

-----------------------------
TD-DFT/TDA-EXCITATION SPECTRA
-----------------------------

Center of mass = ( 12.5149,  2.2411, -4.9717)
Calculating the Dipole integrals                  ... done
Transforming integrals                            ... done
Calculating the Linear Momentum integrals         ... done
Transforming integrals                            ... done
Calculating angular momentum integrals            ... done
Transforming integrals                            ... done

-----------------------------------------------------------------------------
         ABSORPTION SPECTRUM VIA TRANSITION ELECTRIC DIPOLE MOMENTS
-----------------------------------------------------------------------------
State   Energy    Wavelength  fosc         T2        TX        TY        TZ  
        (cm-1)      (nm)                 (au**2)    (au)      (au)      (au) 
-----------------------------------------------------------------------------
   1   14299.8    699.3   2.184587721  50.29381   2.89398   6.17794  -1.93695
   2   16141.2    619.5   0.040409932   0.82419   0.37342  -0.80777   0.17963
   3   19037.3    525.3   0.663217113  11.46903  -1.80372  -2.80330   0.59760
   4    9729.8   1027.8   spin forbidden (mult=3)
   5   11751.3    851.0   spin forbidden (mult=3)
   6   16125.4    620.1   spin forbidden (mult=3)

-----------------------------------------------------------------------------
         ABSORPTION SPECTRUM VIA TRANSITION VELOCITY DIPOLE MOMENTS
-----------------------------------------------------------------------------
State   Energy    Wavelength   fosc        P2         PX        PY        PZ  
        (cm-1)      (nm)                 (au**2)     (au)      (au)      (au) 
-----------------------------------------------------------------------------
   1   14299.8    699.3   0.285678501   0.02792  -0.08541  -0.11249   0.08928
   2   16141.2    619.5   0.031663965   0.00349   0.04971   0.02574   0.01896
   3   19037.3    525.3   0.200970507   0.02615   0.00726   0.11747  -0.11089
   4    9729.8   1027.8   spin forbidden (mult=3)
   5   11751.3    851.0   spin forbidden (mult=3)
   6   16125.4    620.1   spin forbidden (mult=3)

-------------------------------------------------------------------
                             CD SPECTRUM
-------------------------------------------------------------------
State  Energy     Wavelength     R         MX        MY        MZ   
       (cm-1)       (nm)     (1e40*cgs)   (au)      (au)      (au)  
-------------------------------------------------------------------
   1   14299.8    699.3    -422.56494   0.00852  -0.04614   0.32831
   2   16141.2    619.5    -53.70815   0.02540   0.16560   0.05766
   3   19037.3    525.3    -235.04348   0.10214   0.05087  -0.28734
   4    9729.8   1027.8 spin forbidden
   5   11751.3    851.0 spin forbidden
   6   16125.4    620.1 spin forbidden

-------------------------------------------
SOC CORRECTED TD-DFT/TDA-EXCITATION SPECTRA
--------------------------------------------

-----------------------------------------------------------------------------
  SOC CORRECTED ABSORPTION SPECTRUM VIA TRANSITION ELECTRIC DIPOLE MOMENTS*  
-----------------------------------------------------------------------------
State   Energy  Wavelength   fosc         T2         TX        TY        TZ  
        (cm-1)    (nm)                  (au**2)     (au)      (au)      (au) 
-----------------------------------------------------------------------------
   1    9729.8   1027.8   0.000000002   0.00000   0.00004   0.00025   0.00010
   2    9729.8   1027.8   0.000000010   0.00000   0.00029   0.00048   0.00011
   3    9729.8   1027.8   0.000000011   0.00000   0.00028   0.00052   0.00011
   4   11751.3    851.0   0.000000015   0.00000   0.00036   0.00052   0.00016
   5   11751.3    851.0   0.000000013   0.00000   0.00026   0.00053   0.00014
   6   11751.3    851.0   0.000000001   0.00000   0.00017   0.00001   0.00001
   7   14299.8    699.3   2.184587717  50.29381   2.89398   6.17794   1.93695
   8   16125.4    620.1   0.000031943   0.00065   0.01123   0.02242   0.00485
   9   16125.4    620.1   0.000000005   0.00000   0.00027   0.00017   0.00000
  10   16125.4    620.1   0.000000008   0.00000   0.00005   0.00034   0.00020
  11   16141.2    619.5   0.040378009   0.82354   0.37325   0.80746   0.17956
  12   19037.3    525.3   0.663217099  11.46903   1.80372   2.80330   0.59760

-----------------------------------------------------------------------------
  SOC CORRECTED ABSORPTION SPECTRUM VIA TRANSITION VELOCITY DIPOLE MOMENTS*  
-----------------------------------------------------------------------------
State   Energy  Wavelength   fosc         P2         PX        PY        PZ  
        (cm-1)    (nm)                  (au**2)     (au)      (au)      (au) 
-----------------------------------------------------------------------------
   1    9729.8   1027.8   0.000000010   0.00000   0.00000   0.00002   0.00002
   2    9729.8   1027.8   0.000000003   0.00000   0.00001   0.00001   0.00000
   3    9729.8   1027.8   0.000000004   0.00000   0.00001   0.00000   0.00001
   4   11751.3    851.0   0.000000001   0.00000   0.00000   0.00000   0.00001
   5   11751.3    851.0   0.000000001   0.00000   0.00000   0.00001   0.00000
   6   11751.3    851.0   0.000000001   0.00000   0.00000   0.00001   0.00001
   7   14299.8    699.3   0.285678503   0.02792   0.08541   0.11249   0.08928
   8   16125.4    620.1   0.000025938   0.00000   0.00141   0.00075   0.00054
   9   16125.4    620.1   0.000000001   0.00000   0.00000   0.00001   0.00001
  10   16125.4    620.1   0.000000001   0.00000   0.00000   0.00001   0.00001
  11   16141.2    619.5   0.031638022   0.00349   0.04969   0.02573   0.01895
  12   19037.3    525.3   0.200970444   0.02615   0.00726   0.11747   0.11089

-------------------------------------------------------------------
                    SOC CORRECTED CD SPECTRUM*                     
-------------------------------------------------------------------
State   Energy Wavelength       R         MX        MY        MZ   
        (cm-1)   (nm)       (1e40*sgs)   (au)      (au)      (au)  
-------------------------------------------------------------------
   1    9729.8   1027.8      0.00000   0.00002   0.00000   0.00005
   2    9729.8   1027.8      0.00000   0.00000   0.00000   0.00002
   3    9729.8   1027.8      0.00000   0.00001   0.00001   0.00002
   4   11751.3    851.0      0.00001   0.00001   0.00003   0.00003
   5   11751.3    851.0      0.00000   0.00000   0.00000   0.00001
   6   11751.3    851.0      0.00000   0.00000   0.00001   0.00003
   7   14299.8    699.3    422.56499   0.00852   0.04614   0.32831
   8   16125.4    620.1      0.04263   0.00078   0.00478   0.00166
   9   16125.4    620.1      0.00000   0.00000   0.00002   0.00003
  10   16125.4    620.1      0.00000   0.00001   0.00003   0.00005
  11   16141.2    619.5     53.66546   0.02539   0.16553   0.05763
  12   19037.3    525.3    235.04343   0.10214   0.05087   0.28734

*The X,Y and Z components are the absolute values of the complex numbers

Total run time:   160375.861 sec

           *** ORCA-CIS/TD-DFT FINISHED WITHOUT ERROR ***

---------------------------
SOC CIS/TD-DFT TOTAL ENERGY
---------------------------

    E(SCF)        =  -4699.299497836 Eh
    E(SOC CIS)    =      0.044332302 Eh (SOC Root  1)
    ----------------------------- ---------
    E(tot)        =  -4699.255165534 Eh


-------------------------   --------------------
FINAL SINGLE POINT ENERGY     -4699.255165534119
-------------------------   --------------------


                            ***************************************
                            *     ORCA property calculations      *
                            ***************************************

                                    ---------------------
                                    Active property flags
                                    ---------------------
   (+) Dipole Moment


------------------------------------------------------------------------------
                       ORCA ELECTRIC PROPERTIES CALCULATION
------------------------------------------------------------------------------

Dipole Moment Calculation                       ... on
Quadrupole Moment Calculation                   ... off
Polarizability Calculation                      ... off
GBWName                                         ... TPIC.gbw
Electron density file                           ... TPIC.scfp
The origin for moment calculation is the CENTER OF MASS  = (12.514942,  2.241103 -4.971739)

-------------
DIPOLE MOMENT
-------------
                                X             Y             Z
Electronic contribution:     -2.77626      22.93740       2.83498
Nuclear contribution   :      3.13068     -22.65156      -3.69770
                        -----------------------------------------
Total Dipole Moment    :      0.35442       0.28584      -0.86272
                        -----------------------------------------
Magnitude (a.u.)       :      0.97550
Magnitude (Debye)      :      2.47952



--------------------
Rotational spectrum 
--------------------
 
Rotational constants in cm-1:     0.001139     0.000264     0.000262 
Rotational constants in MHz :    34.159522     7.927884     7.857281 

 Dipole components along the rotational axes: 
x,y,z [a.u.] :     0.677082    -0.529584    -0.461191 
x,y,z [Debye]:     1.721005    -1.346096    -1.172255 

 

Timings for individual modules:

Sum of individual times         ...   190855.156 sec (=3180.919 min)
GTO integral calculation        ...       11.727 sec (=   0.195 min)   0.0 %
SCF iterations                  ...    30467.362 sec (= 507.789 min)  16.0 %
CIS module                      ...   160376.068 sec (=2672.934 min)  84.0 %
                             ****ORCA TERMINATED NORMALLY****
TOTAL RUN TIME: 2 days 5 hours 0 minutes 57 seconds 481 msec
