
                                 *****************
                                 * O   R   C   A *
                                 *****************

           --- An Ab Initio, DFT and Semiempirical electronic structure package ---

                  #######################################################
                  #                        -***-                        #
                  #          Department of theory and spectroscopy      #
                  #               Directorship: Frank Neese             #
                  #        Max Planck Institute fuer Kohlenforschung    #
                  #                Kaiser Wilhelm Platz 1               #
                  #                 D-45470 Muelheim/Ruhr               #
                  #                      Germany                        #
                  #                                                     #
                  #                  All rights reserved                #
                  #                        -***-                        #
                  #######################################################


                         Program Version 4.2.0 -  RELEASE  -


 With contributions from (in alphabetic order):
   Daniel Aravena         : Magnetic Suceptibility
   Michael Atanasov       : Ab Initio Ligand Field Theory (pilot matlab implementation)
   Alexander A. Auer      : GIAO ZORA, VPT2
   Ute Becker             : Parallelization
   Giovanni Bistoni       : ED, misc. LED, open-shell LED, HFLED
   Martin Brehm           : Molecular dynamics
   Dmytro Bykov           : SCF Hessian
   Vijay G. Chilkuri      : MRCI spin determinant printing, contributions to CSF-ICE
   Dipayan Datta          : RHF DLPNO-CCSD density
   Achintya Kumar Dutta   : EOM-CC, STEOM-CC
   Dmitry Ganyushin       : Spin-Orbit,Spin-Spin,Magnetic field MRCI
   Miquel Garcia          : C-PCM Hessian, Gaussian charge scheme
   Yang Guo               : DLPNO-NEVPT2, CIM, IAO-localization
   Andreas Hansen         : Spin unrestricted coupled pair/coupled cluster methods
   Benjamin Helmich-Paris : CASSCF linear response (MC-RPA)
   Lee Huntington         : MR-EOM, pCC
   Robert Izsak           : Overlap fitted RIJCOSX, COSX-SCS-MP3, EOM
   Christian Kollmar      : KDIIS, OOCD, Brueckner-CCSD(T), CCSD density
   Simone Kossmann        : Meta GGA functionals, TD-DFT gradient, OOMP2, MP2 Hessian
   Martin Krupicka        : AUTO-CI
   Lucas Lang             : DCDCAS
   Dagmar Lenk            : GEPOL surface, SMD
   Dimitrios Liakos       : Extrapolation schemes; Compound Job, initial MDCI parallelization
   Dimitrios Manganas     : Further ROCIS development; embedding schemes
   Dimitrios Pantazis     : SARC Basis sets
   Taras Petrenko         : DFT Hessian,TD-DFT gradient, ASA, ECA, R-Raman, ABS, FL, XAS/XES, NRVS
   Peter Pinski           : DLPNO-MP2, DLPNO-MP2 Gradient
   Christoph Reimann      : Effective Core Potentials
   Marius Retegan         : Local ZFS, SOC
   Christoph Riplinger    : Optimizer, TS searches, QM/MM, DLPNO-CCSD(T), (RO)-DLPNO pert. Triples
   Tobias Risthaus        : Range-separated hybrids, TD-DFT gradient, RPA, STAB
   Michael Roemelt        : Original ROCIS implementation
   Masaaki Saitow         : Open-shell DLPNO-CCSD energy and density
   Barbara Sandhoefer     : DKH picture change effects
   Avijit Sen             : IP-ROCIS
   Kantharuban Sivalingam : CASSCF convergence, NEVPT2, FIC-MRCI
   Bernardo de Souza      : ESD, SOC TD-DFT
   Georgi Stoychev        : AutoAux, RI-MP2 NMR
   Willem Van den Heuvel  : Paramagnetic NMR
   Boris Wezisla          : Elementary symmetry handling
   Frank Wennmohs         : Technical directorship


 We gratefully acknowledge several colleagues who have allowed us to
 interface, adapt or use parts of their codes:
   Stefan Grimme, W. Hujo, H. Kruse,             : VdW corrections, initial TS optimization,
                  C. Bannwarth                     DFT functionals, gCP, sTDA/sTD-DF
   Ed Valeev, F. Pavosevic, A. Kumar             : LibInt (2-el integral package), F12 methods
   Garnet Chan, S. Sharma, J. Yang, R. Olivares  : DMRG
   Ulf Ekstrom                                   : XCFun DFT Library
   Mihaly Kallay                                 : mrcc  (arbitrary order and MRCC methods)
   Andreas Klamt, Michael Diedenhofen            : otool_cosmo (COSMO solvation model)
   Jiri Pittner, Ondrej Demel                    : Mk-CCSD
   Frank Weinhold                                : gennbo (NPA and NBO analysis)
   Christopher J. Cramer and Donald G. Truhlar   : smd solvation model
   Lars Goerigk                                  : TD-DFT with DH, B97 family of functionals
   V. Asgeirsson, H. Jonsson                     : NEB implementation
   FAccTs GmbH                                   : IRC, NEB, NEB-TS, Multilevel, MM, QM/MM, CI optimization
   S Lehtola, MJT Oliveira, MAL Marques          : LibXC Library


 Your calculation uses the libint2 library for the computation of 2-el integrals
 For citations please refer to: http://libint.valeyev.net

 Your ORCA version has been built with support for libXC version: 4.2.3
 For citations please refer to: https://tddft.org/programs/libxc/

 This ORCA versions uses:
   CBLAS   interface :  Fast vector & matrix operations
   LAPACKE interface :  Fast linear algebra routines
   SCALAPACK package :  Parallel linear algebra routines


----- Orbital basis set information -----
Your calculation utilizes the basis: def2-TZVP
   F. Weigend and R. Ahlrichs, Phys. Chem. Chem. Phys. 7, 3297 (2005).

----- AuxJ basis set information -----
Your calculation utilizes the auxiliary basis: def2/J
   F. Weigend, Phys. Chem. Chem. Phys. 8, 1057 (2006).

================================================================================
                                        WARNINGS
                       Please study these warnings very carefully!
================================================================================

INFO   : Checking CIS options ...

WARNING: (CIS/TDDFT): Spin-orbit needs TRIPLETS set to TRUE
  ===> : ajusting flags

WARNING: CIS/ROCIS methods need fully converged wavefunctions
  ===> : Setting SCFConvForced true
         You can overwrite this default with %scf ConvForced false 


INFO   : the flag for use of LIBINT has been found!

================================================================================
                                       INPUT FILE
================================================================================
NAME = Y15.inp
|  1> # ORCA input file
|  2> # Y15.out
|  3> ! B3LYP def2-TZVP def2/J RIJCOSX Grid4 TightSCF
|  4> 
|  5> %maxcore 2000
|  6> %tddft
|  7>   maxdim 5
|  8>   nroots 3
|  9>   dosoc true
| 10>   end
| 11> 
| 12> 
| 13> 
| 14> * xyz 0 1
| 15>    C        4.80123         3.56747         0.79132
| 16>    O        6.00162         3.68995         0.61660
| 17>    C        3.85957         4.64994         1.13971
| 18>    C        4.12006         5.99036         1.33294
| 19>    C        3.05910         6.82546         1.66139
| 20>   Cl        3.34002         8.50131         1.91118
| 21>    C        1.76723         6.30556         1.78877
| 22>   Cl        0.46413         7.34795         2.19539
| 23>    C        1.51062         4.95205         1.59252
| 24>    C        2.56523         4.11666         1.26549
| 25>    C        2.62142         2.67784         1.00425
| 26>    C        1.54517         1.82764         1.05133
| 27>    C        1.57771         0.43856         0.81068
| 28>    N        1.51848        -0.69508         0.63207
| 29>    C        0.22962         2.23448         1.35868
| 30>    N       -0.86236         2.49418         1.59907
| 31>    C        3.99995         2.34666         0.70822
| 32>    C        4.46588         1.08669         0.40603
| 33>    C        5.75357         0.62728         0.12545
| 34>    S        7.20304         1.63366         0.09494
| 35>    C        8.16619         0.25257        -0.27180
| 36>    C        7.39315        -0.92019        -0.37189
| 37>    C        6.03910        -0.72518        -0.15054
| 38>    C        5.03366        -1.82429        -0.25731
| 39>    C        4.38810        -1.83632        -1.64603
| 40>    S        8.33309        -2.35516        -0.73693
| 41>    C        9.76362        -1.37871        -0.75188
| 42>    C        9.51681        -0.01309        -0.49024
| 43>    N       10.68799         0.68073        -0.53725
| 44>    C       10.77719         2.09846        -0.29499
| 45>    C       10.56125         2.42912         1.18003
| 46>    C       11.69391        -0.20698        -0.84760
| 47>    C       11.12727        -1.51868        -0.98185
| 48>    C       11.96068        -2.64338        -1.22637
| 49>    N       11.69649        -3.94870        -1.20287
| 50>    N       12.83628        -4.51966        -1.49010
| 51>    C       13.01474        -5.94710        -1.48103
| 52>    C       11.67815        -6.66602        -1.50197
| 53>    N       13.84640        -3.70681        -1.71478
| 54>    C       13.33593        -2.49514        -1.53677
| 55>    C       13.87884        -1.16284        -1.67335
| 56>    C       13.04642        -0.04549        -1.13751
| 57>    N       14.15011         0.70298        -0.84935
| 58>    C       14.44276         2.05984        -0.48294
| 59>    C       14.39412         2.26461         1.02938
| 60>    C       15.05897        -0.33107        -1.15198
| 61>    C       14.67089        -0.79547        -2.92755
| 62>    S       14.33384         0.75598        -3.72639
| 63>    C       16.01066         0.92178        -3.18828
| 64>    C       16.00416        -0.27673        -2.35737
| 65>    S       17.48758        -1.21990        -2.01176
| 66>    C       17.13388         0.30464        -5.02709
| 67>    C       17.00397         1.32766        -4.21002
| 68>    C       17.56241         2.70188        -4.29805
| 69>    C       18.42095         2.89140        -5.54093
| 70>    C       16.75325        -0.87702        -5.39497
| 71>    C       16.26827        -2.01011        -5.62267
| 72>    C       14.98629        -5.22562        -5.15606
| 73>    C       15.21723        -6.57281        -4.99651
| 74>    C       14.18935        -7.46953        -4.67027
| 75>    N       13.36756        -8.21825        -4.37895
| 76>    C       16.50626        -7.12165        -5.13656
| 77>    N       17.54967        -7.58348        -5.25471
| 78>    C       13.75673        -4.48208        -5.05060
| 79>    C       12.46410        -4.82603        -4.67575
| 80>    C       11.53894        -3.80847        -4.51943
| 81>   Cl        9.94437        -4.18256        -3.99483
| 82>    C       11.88842        -2.46872        -4.76322
| 83>   Cl       10.73430        -1.22836        -4.47224
| 84>    C       13.14818        -2.12450        -5.21165
| 85>    C       14.08758        -3.14067        -5.34406
| 86>    C       15.50348        -3.10616        -5.55256
| 87>    O       15.99821        -4.38029        -5.43553
| 88>    H        5.12152         6.37759         1.23182
| 89>    H        0.50146         4.59021         1.70005
| 90>    H        3.72002         0.30434         0.38300
| 91>    H        4.25691        -1.72304         0.50196
| 92>    H        5.54816        -2.77369        -0.09596
| 93>    H        3.87124        -0.89924        -1.83941
| 94>    H        3.66693        -2.64602        -1.70851
| 95>    H        5.14468        -1.98117        -2.41369
| 96>    H       10.00945         2.60058        -0.89274
| 97>    H       11.75658         2.43833        -0.62921
| 98>    H       11.22336         1.83827         1.80946
| 99>    H        9.53489         2.21992         1.46835
|100>    H       10.75659         3.48339         1.35266
|101>    H       13.58004        -6.21552        -0.58146
|102>    H       13.62357        -6.21172        -2.34859
|103>    H       11.12116        -6.45766        -0.59326
|104>    H       11.84680        -7.73525        -1.58626
|105>    H       11.08037        -6.33818        -2.34678
|106>    H       13.75068         2.73718        -0.99287
|107>    H       15.45252         2.27280        -0.84649
|108>    H       13.41200         2.01851         1.42169
|109>    H       14.61775         3.30029         1.26890
|110>    H       15.12949         1.62601         1.51245
|111>    H       18.15153         2.89368        -3.39474
|112>    H       16.73107         3.41447        -4.29500
|113>    H       19.25172         2.18913        -5.53875
|114>    H       18.82118         3.90131        -5.57336
|115>    H       17.83104         2.72256        -6.43903
|116>    H       17.96920        -1.21602        -3.25338
|117>    H       12.18422        -5.84991        -4.48914
|118>    H       13.39608        -1.10080        -5.43566
|119> *
|120> 
|121>                          ****END OF INPUT****
================================================================================

                       ****************************
                       * Single Point Calculation *
                       ****************************

---------------------------------
CARTESIAN COORDINATES (ANGSTROEM)
---------------------------------
  C      4.801230    3.567470    0.791320
  O      6.001620    3.689950    0.616600
  C      3.859570    4.649940    1.139710
  C      4.120060    5.990360    1.332940
  C      3.059100    6.825460    1.661390
  Cl     3.340020    8.501310    1.911180
  C      1.767230    6.305560    1.788770
  Cl     0.464130    7.347950    2.195390
  C      1.510620    4.952050    1.592520
  C      2.565230    4.116660    1.265490
  C      2.621420    2.677840    1.004250
  C      1.545170    1.827640    1.051330
  C      1.577710    0.438560    0.810680
  N      1.518480   -0.695080    0.632070
  C      0.229620    2.234480    1.358680
  N     -0.862360    2.494180    1.599070
  C      3.999950    2.346660    0.708220
  C      4.465880    1.086690    0.406030
  C      5.753570    0.627280    0.125450
  S      7.203040    1.633660    0.094940
  C      8.166190    0.252570   -0.271800
  C      7.393150   -0.920190   -0.371890
  C      6.039100   -0.725180   -0.150540
  C      5.033660   -1.824290   -0.257310
  C      4.388100   -1.836320   -1.646030
  S      8.333090   -2.355160   -0.736930
  C      9.763620   -1.378710   -0.751880
  C      9.516810   -0.013090   -0.490240
  N     10.687990    0.680730   -0.537250
  C     10.777190    2.098460   -0.294990
  C     10.561250    2.429120    1.180030
  C     11.693910   -0.206980   -0.847600
  C     11.127270   -1.518680   -0.981850
  C     11.960680   -2.643380   -1.226370
  N     11.696490   -3.948700   -1.202870
  N     12.836280   -4.519660   -1.490100
  C     13.014740   -5.947100   -1.481030
  C     11.678150   -6.666020   -1.501970
  N     13.846400   -3.706810   -1.714780
  C     13.335930   -2.495140   -1.536770
  C     13.878840   -1.162840   -1.673350
  C     13.046420   -0.045490   -1.137510
  N     14.150110    0.702980   -0.849350
  C     14.442760    2.059840   -0.482940
  C     14.394120    2.264610    1.029380
  C     15.058970   -0.331070   -1.151980
  C     14.670890   -0.795470   -2.927550
  S     14.333840    0.755980   -3.726390
  C     16.010660    0.921780   -3.188280
  C     16.004160   -0.276730   -2.357370
  S     17.487580   -1.219900   -2.011760
  C     17.133880    0.304640   -5.027090
  C     17.003970    1.327660   -4.210020
  C     17.562410    2.701880   -4.298050
  C     18.420950    2.891400   -5.540930
  C     16.753250   -0.877020   -5.394970
  C     16.268270   -2.010110   -5.622670
  C     14.986290   -5.225620   -5.156060
  C     15.217230   -6.572810   -4.996510
  C     14.189350   -7.469530   -4.670270
  N     13.367560   -8.218250   -4.378950
  C     16.506260   -7.121650   -5.136560
  N     17.549670   -7.583480   -5.254710
  C     13.756730   -4.482080   -5.050600
  C     12.464100   -4.826030   -4.675750
  C     11.538940   -3.808470   -4.519430
  Cl     9.944370   -4.182560   -3.994830
  C     11.888420   -2.468720   -4.763220
  Cl    10.734300   -1.228360   -4.472240
  C     13.148180   -2.124500   -5.211650
  C     14.087580   -3.140670   -5.344060
  C     15.503480   -3.106160   -5.552560
  O     15.998210   -4.380290   -5.435530
  H      5.121520    6.377590    1.231820
  H      0.501460    4.590210    1.700050
  H      3.720020    0.304340    0.383000
  H      4.256910   -1.723040    0.501960
  H      5.548160   -2.773690   -0.095960
  H      3.871240   -0.899240   -1.839410
  H      3.666930   -2.646020   -1.708510
  H      5.144680   -1.981170   -2.413690
  H     10.009450    2.600580   -0.892740
  H     11.756580    2.438330   -0.629210
  H     11.223360    1.838270    1.809460
  H      9.534890    2.219920    1.468350
  H     10.756590    3.483390    1.352660
  H     13.580040   -6.215520   -0.581460
  H     13.623570   -6.211720   -2.348590
  H     11.121160   -6.457660   -0.593260
  H     11.846800   -7.735250   -1.586260
  H     11.080370   -6.338180   -2.346780
  H     13.750680    2.737180   -0.992870
  H     15.452520    2.272800   -0.846490
  H     13.412000    2.018510    1.421690
  H     14.617750    3.300290    1.268900
  H     15.129490    1.626010    1.512450
  H     18.151530    2.893680   -3.394740
  H     16.731070    3.414470   -4.295000
  H     19.251720    2.189130   -5.538750
  H     18.821180    3.901310   -5.573360
  H     17.831040    2.722560   -6.439030
  H     17.969200   -1.216020   -3.253380
  H     12.184220   -5.849910   -4.489140
  H     13.396080   -1.100800   -5.435660

----------------------------
CARTESIAN COORDINATES (A.U.)
----------------------------
  NO LB      ZA    FRAG     MASS         X           Y           Z
   0 C     6.0000    0    12.011    9.073010    6.741541    1.495378
   1 O     8.0000    0    15.999   11.341418    6.972995    1.165205
   2 C     6.0000    0    12.011    7.293530    8.787113    2.153740
   3 C     6.0000    0    12.011    7.785785   11.320140    2.518892
   4 C     6.0000    0    12.011    5.780861   12.898250    3.139572
   5 Cl   17.0000    0    35.453    6.311723   16.065148    3.611607
   6 C     6.0000    0    12.011    3.339581   11.915782    3.380285
   7 Cl   17.0000    0    35.453    0.877079   13.885613    4.148686
   8 C     6.0000    0    12.011    2.854658    9.358018    3.009427
   9 C     6.0000    0    12.011    4.847582    7.779360    2.391430
  10 C     6.0000    0    12.011    4.953766    5.060384    1.897757
  11 C     6.0000    0    12.011    2.919948    3.453739    1.986726
  12 C     6.0000    0    12.011    2.981440    0.828758    1.531963
  13 N     7.0000    0    14.007    2.869511   -1.313511    1.194439
  14 C     6.0000    0    12.011    0.433919    4.222555    2.567533
  15 N     7.0000    0    14.007   -1.629624    4.713317    3.021804
  16 C     6.0000    0    12.011    7.558810    4.434545    1.338342
  17 C     6.0000    0    12.011    8.439290    2.053546    0.767286
  18 C     6.0000    0    12.011   10.872672    1.185387    0.237066
  19 S    16.0000    0    32.060   13.611773    3.087170    0.179411
  20 C     6.0000    0    12.011   15.431863    0.477288   -0.513628
  21 C     6.0000    0    12.011   13.971029   -1.738907   -0.702770
  22 C     6.0000    0    12.011   11.412245   -1.370392   -0.284479
  23 C     6.0000    0    12.011    9.512239   -3.447408   -0.486245
  24 C     6.0000    0    12.011    8.292307   -3.470142   -3.110546
  25 S    16.0000    0    32.060   15.747258   -4.450607   -1.392596
  26 C     6.0000    0    12.011   18.450568   -2.605384   -1.420847
  27 C     6.0000    0    12.011   17.984165   -0.024737   -0.926419
  28 N     7.0000    0    14.007   20.197374    1.286393   -1.015255
  29 C     6.0000    0    12.011   20.365938    3.965515   -0.557450
  30 C     6.0000    0    12.011   19.957870    4.590372    2.229934
  31 C     6.0000    0    12.011   22.098287   -0.391136   -1.601732
  32 C     6.0000    0    12.011   21.027493   -2.869889   -1.855428
  33 C     6.0000    0    12.011   22.602410   -4.995264   -2.317503
  34 N     7.0000    0    14.007   22.103163   -7.461962   -2.273095
  35 N     7.0000    0    14.007   24.257054   -8.540920   -2.815881
  36 C     6.0000    0    12.011   24.594294  -11.238390   -2.798741
  37 C     6.0000    0    12.011   22.068505  -12.596952   -2.838312
  38 N     7.0000    0    14.007   26.165904   -7.004856   -3.240465
  39 C     6.0000    0    12.011   25.201255   -4.715131   -2.904074
  40 C     6.0000    0    12.011   26.227207   -2.197449   -3.162173
  41 C     6.0000    0    12.011   24.654161   -0.085964   -2.149582
  42 N     7.0000    0    14.007   26.739833    1.328440   -1.605039
  43 C     6.0000    0    12.011   27.292861    3.892533   -0.912624
  44 C     6.0000    0    12.011   27.200945    4.279493    1.945246
  45 C     6.0000    0    12.011   28.457329   -0.625632   -2.176927
  46 C     6.0000    0    12.011   27.723964   -1.503220   -5.532268
  47 S    16.0000    0    32.060   27.087032    1.428595   -7.041857
  48 C     6.0000    0    12.011   30.255763    1.741912   -6.024976
  49 C     6.0000    0    12.011   30.243479   -0.522944   -4.454784
  50 S    16.0000    0    32.060   33.046737   -2.305277   -3.801675
  51 C     6.0000    0    12.011   32.378341    0.575686   -9.499823
  52 C     6.0000    0    12.011   32.132846    2.508914   -7.955785
  53 C     6.0000    0    12.011   33.188145    5.105813   -8.122137
  54 C     6.0000    0    12.011   34.810551    5.463954  -10.470840
  55 C     6.0000    0    12.011   31.659054   -1.657328  -10.195016
  56 C     6.0000    0    12.011   30.742575   -3.798557  -10.625306
  57 C     6.0000    0    12.011   28.319984   -9.874991   -9.743541
  58 C     6.0000    0    12.011   28.756397  -12.420811   -9.442036
  59 C     6.0000    0    12.011   26.813986  -14.115366   -8.825531
  60 N     7.0000    0    14.007   25.261027  -15.530242   -8.275016
  61 C     6.0000    0    12.011   31.192311  -13.457968   -9.706692
  62 N     7.0000    0    14.007   33.164070  -14.330700   -9.929963
  63 C     6.0000    0    12.011   25.996452   -8.469904   -9.544251
  64 C     6.0000    0    12.011   23.553736   -9.119875   -8.835887
  65 C     6.0000    0    12.011   21.805436   -7.196965   -8.540485
  66 Cl   17.0000    0    35.453   18.792136   -7.903893   -7.549135
  67 C     6.0000    0    12.011   22.465858   -4.665205   -9.001181
  68 Cl   17.0000    0    35.453   20.284887   -2.321264   -8.451309
  69 C     6.0000    0    12.011   24.846459   -4.014723   -9.848591
  70 C     6.0000    0    12.011   26.621668   -5.935006  -10.098810
  71 C     6.0000    0    12.011   29.297331   -5.869792  -10.492818
  72 O     8.0000    0    15.999   30.232236   -8.277548  -10.271663
  73 H     1.0000    0     1.008    9.678270   12.051898    2.327802
  74 H     1.0000    0     1.008    0.947622    8.674240    3.212629
  75 H     1.0000    0     1.008    7.029819    0.575119    0.723765
  76 H     1.0000    0     1.008    8.044394   -3.256074    0.948567
  77 H     1.0000    0     1.008   10.484503   -5.241514   -0.181338
  78 H     1.0000    0     1.008    7.315583   -1.699317   -3.475981
  79 H     1.0000    0     1.008    6.929493   -5.000253   -3.228616
  80 H     1.0000    0     1.008    9.722036   -3.743869   -4.561213
  81 H     1.0000    0     1.008   18.915119    4.914384   -1.687034
  82 H     1.0000    0     1.008   22.216716    4.607776   -1.189035
  83 H     1.0000    0     1.008   21.209077    3.473827    3.419384
  84 H     1.0000    0     1.008   18.018331    4.195041    2.774779
  85 H     1.0000    0     1.008   20.327009    6.582653    2.556157
  86 H     1.0000    0     1.008   25.662556  -11.745631   -1.098800
  87 H     1.0000    0     1.008   25.744816  -11.738450   -4.438192
  88 H     1.0000    0     1.008   21.015947  -12.203209   -1.121099
  89 H     1.0000    0     1.008   22.387208  -14.617504   -2.997597
  90 H     1.0000    0     1.008   20.938865  -11.977424   -4.434771
  91 H     1.0000    0     1.008   25.985019    5.172521   -1.876252
  92 H     1.0000    0     1.008   29.201031    4.294970   -1.599634
  93 H     1.0000    0     1.008   25.345007    3.814431    2.686605
  94 H     1.0000    0     1.008   27.623544    6.236644    2.397873
  95 H     1.0000    0     1.008   28.590593    3.072714    2.858116
  96 H     1.0000    0     1.008   34.301421    5.468263   -6.415129
  97 H     1.0000    0     1.008   31.617140    6.452413   -8.116374
  98 H     1.0000    0     1.008   36.380478    4.136856  -10.466721
  99 H     1.0000    0     1.008   35.566876    7.372407  -10.532124
 100 H     1.0000    0     1.008   33.695782    5.144893  -12.168003
 101 H     1.0000    0     1.008   33.956867   -2.297945   -6.147997
 102 H     1.0000    0     1.008   23.024839  -11.054728   -8.483245
 103 H     1.0000    0     1.008   25.314922   -2.080211  -10.271909

--------------------------------
INTERNAL COORDINATES (ANGSTROEM)
--------------------------------
 C      0   0   0     0.000000000000     0.00000000     0.00000000
 O      1   0   0     1.219206537425     0.00000000     0.00000000
 C      1   2   0     1.476428274113   126.02336708     0.00000000
 C      3   1   2     1.379100666884   128.69665513     0.22983178
 C      4   3   1     1.389570989227   118.23070981   180.17406270
 Cl     5   4   3     1.717493613671   119.72901266   179.97787437
 C      5   4   3     1.398373974050   120.22913088     0.00000000
 Cl     7   5   4     1.717552429040   119.79093025   179.99076689
 C      7   5   4     1.391528682672   121.27511407     0.00000000
 C      9   7   5     1.384567558879   118.66728327     0.00000000
 C     10   9   7     1.463422921134   131.65353508   179.83601239
 C     11  10   9     1.372359511535   124.95032483   359.45146558
 C     12  11  10     1.410146985424   125.89562394   180.37049985
 N     13  12  11     1.149151589043   175.63474304   178.36152467
 C     12  11  10     1.410905599464   124.06023794     0.11892673
 N     15  12  11     1.147890135205   176.24864599   179.07204587
 C     11  10   9     1.448329698031   107.32863340   179.93598325
 C     17  11  10     1.376929178244   125.18185941   180.07100281
 C     18  17  11     1.395681991214   131.11148873   181.18315920
 S     19  18  17     1.764849808171   124.99635775     0.22379250
 C     20  19  18     1.723242797229    90.32677055   178.79023961
 C     21  20  19     1.408181404259   112.07147086     0.37993624
 C     22  21  20     1.385812442252   114.06890620   359.65645665
 C     23  22  21     1.493436379160   122.87622594   177.69221842
 C     24  23  22     1.531481528749   110.75653279   264.62634220
 S     22  21  20     1.753818778010   113.70285399   180.27654698
 C     26  22  21     1.732077996483    89.03601752     0.09484627
 C     21  20  19     1.393723664720   136.69830306   180.78433950
 N     28  21  20     1.362078824775   137.86532073   358.70059904
 C     29  28  21     1.441042990511   123.26858322     1.65589130
 C     30  29  28     1.526974171229   111.51121755    71.58083443
 C     29  28  21     1.377033482890   107.90979964   181.77283090
 C     27  26  22     1.389970907717   139.01866939   182.00150134
 C     33  27  26     1.421025104810   133.12165350   354.34342264
 N     34  33  27     1.331994335010   131.01531443   353.69684067
 N     35  34  33     1.306758446921   104.55455474   180.69170951
 C     36  35  34     1.438580964041   122.70822530   175.66209591
 C     37  36  35     1.517813321229   111.14065656    16.37079983
 N     36  35  34     1.315883216437   115.92429645   359.54587847
 C     39  36  35     1.326804947948   104.23343250     1.20034834
 C     40  39  36     1.445139666088   133.21200400   182.70877088
 C     32  29  28     1.392627060020   132.97018162   173.46013252
 N     42  32  29     1.364322228288   143.64015936    34.09626117
 C     43  42  32     1.435607665834   137.50407075   327.91624959
 C     44  43  42     1.526895014367   111.90398354    88.34850257
 C     43  42  32     1.409564052819    94.23268499   152.91455844
 C     41  40  39     1.528175892821   119.59769359    47.49730267
 S     47  41  40     1.777285894447   118.71470108   134.94484652
 C     48  47  41     1.768835019017    76.42656335   116.24152059
 C     49  48  47     1.458382630931    95.28273506   349.26917565
 S     50  49  48     1.791521927692   122.60696715   152.59510393
 C     49  48  47     2.241362791718   101.51798695    94.83106831
 C     52  49  48     1.315693700449    39.37090275   121.26238214
 C     53  52  49     1.485962692297   130.17946940   186.98040431
 C     54  53  52     1.522418949041   112.05025110   359.31847590
 C     52  49  48     1.294810892331   109.69752328   304.15611461
 C     56  52  49     1.253373782437   172.05168594     4.61780987
 C     57  56  52     3.492950353584   161.79993171   315.46061253
 C     58  57  56     1.376121499796   148.77217097   274.71348632
 C     59  58  57     1.402525076567   121.99850255   172.11048583
 N     60  59  58     1.149255317543   178.28091391   226.49088397
 C     59  58  57     1.407990656574   121.58187789   352.92235015
 N     62  59  58     1.147148987490   179.16728854   205.59108518
 C     58  57  56     1.440760679919    81.25209068    89.04433097
 C     64  58  57     1.389138741055   133.32160276   189.17702559
 C     65  64  58     1.384118969453   118.06170391   171.74924232
 Cl    66  65  64     1.719826146155   119.62153568   182.45948995
 C     66  65  64     1.405880470381   120.98716226     1.46389595
 Cl    68  66  65     1.719056504132   119.42945176   183.39997149
 C     68  66  65     1.380786779666   121.37778511     2.33488879
 C     70  68  66     1.390182087714   117.72440623   356.48147778
 C     57  56  52     1.338336564060   162.16996994     1.57041823
 O     58  57  56     1.347838408786    28.28449913   263.50961078
 H      4   3   1     1.078468571123   120.74672674     0.13810004
 H      9   7   5     1.077448278155   119.03219347   179.98950391
 H     18  17  11     1.081160969976   115.68282660     0.79368106
 H     24  23  22     1.090909280325   111.17975745   142.80432547
 H     24  23  22     1.091835350454   108.18815190    24.05013037
 H     25  24  23     1.087501269149   110.78216474   299.25339344
 H     25  24  23     1.086095764332   109.74990903   179.51529871
 H     25  24  23     1.087518595013   110.35734606    59.63567282
 H     30  29  28     1.094922035809   108.42054551   311.32424086
 H     30  29  28     1.089228808561   108.12272415   193.69519385
 H     31  30  29     1.087968519535   110.80502522    52.48566559
 H     31  30  29     1.086419767861   110.38074882   292.30573957
 H     31  30  29     1.086022129333   109.77493645   172.94619783
 H     37  36  35     1.095828258123   108.19309249   254.93062360
 H     37  36  35     1.092409294587   107.72749595   138.68493242
 H     38  37  36     1.086004426234   110.43988228   295.38509395
 H     38  37  36     1.085725757040   109.31384095   174.86570767
 H     38  37  36     1.085598420273   110.64622981    55.04654660
 H     44  43  42     1.094437210122   109.70142291   324.69221648
 H     44  43  42     1.094137021447   106.69553856   207.99322030
 H     45  44  43     1.085832418240   110.87115494   300.44523521
 H     45  44  43     1.086284156977   109.85819629   180.12566204
 H     45  44  43     1.087168626203   109.86309310    60.42902044
 H     54  53  52     1.095362301022   108.37305083   237.29075852
 H     54  53  52     1.094952056576   108.44283839   121.49212254
 H     55  54  53     1.087826593810   110.40611713   300.51100870
 H     55  54  53     1.086809075183   110.34748350   180.46812248
 H     55  54  53     1.087696816075   110.42066102    60.36925665
 H     51  50  49     1.331763155820    96.77995015   315.71300133
 H     65  64  58     1.077722766253   121.57452134   353.03079670
 H     70  68  66     1.076845662154   120.96935324   177.41441492

---------------------------
INTERNAL COORDINATES (A.U.)
---------------------------
 C      0   0   0     0.000000000000     0.00000000     0.00000000
 O      1   0   0     2.303966456420     0.00000000     0.00000000
 C      1   2   0     2.790045094451   126.02336708     0.00000000
 C      3   1   2     2.606122571519   128.69665513     0.22983178
 C      4   3   1     2.625908613280   118.23070981   180.17406270
 Cl     5   4   3     3.245592566597   119.72901266   179.97787437
 C      5   4   3     2.642543843757   120.22913088     0.00000000
 Cl     7   5   4     3.245703711536   119.79093025   179.99076689
 C      7   5   4     2.629608117747   121.27511407     0.00000000
 C      9   7   5     2.616453500193   118.66728327     0.00000000
 C     10   9   7     2.765468539046   131.65353508   179.83601239
 C     11  10   9     2.593383634083   124.95032483   359.45146558
 C     12  11  10     2.664791611026   125.89562394   180.37049985
 N     13  12  11     2.171581789652   175.63474304   178.36152467
 C     12  11  10     2.666225183804   124.06023794     0.11892673
 N     15  12  11     2.169197987367   176.24864599   179.07204587
 C     11  10   9     2.736946480904   107.32863340   179.93598325
 C     17  11  10     2.602019052687   125.18185941   180.07100281
 C     18  17  11     2.637456733441   131.11148873   181.18315920
 S     19  18  17     3.335082804946   124.99635775     0.22379250
 C     20  19  18     3.256456949014    90.32677055   178.79023961
 C     21  20  19     2.661077200930   112.07147086     0.37993624
 C     22  21  20     2.618805988837   114.06890620   359.65645665
 C     23  22  21     2.822185755048   122.87622594   177.69221842
 C     24  23  22     2.894080668495   110.75653279   264.62634220
 S     22  21  20     3.314237178967   113.70285399   180.27654698
 C     26  22  21     3.273153055944    89.03601752     0.09484627
 C     21  20  19     2.633756032686   136.69830306   180.78433950
 N     28  21  20     2.573955951638   137.86532073   358.70059904
 C     29  28  21     2.723176599272   123.26858322     1.65589130
 C     30  29  28     2.885562997194   111.51121755    71.58083443
 C     29  28  21     2.602216159902   107.90979964   181.77283090
 C     27  26  22     2.626664349703   139.01866939   182.00150134
 C     33  27  26     2.685348277517   133.12165350   354.34342264
 N     34  33  27     2.517104505104   131.01531443   353.69684067
 N     35  34  33     2.469415587869   104.55455474   180.69170951
 C     36  35  34     2.718524043509   122.70822530   175.66209591
 C     37  36  35     2.868251499540   111.14065656    16.37079983
 N     36  35  34     2.486658903289   115.92429645   359.54587847
 C     39  36  35     2.507297984754   104.23343250     1.20034834
 C     40  39  36     2.730918194172   133.21200400   182.70877088
 C     32  29  28     2.631683750126   132.97018162   173.46013252
 N     42  32  29     2.578195369885   143.64015936    34.09626117
 C     43  42  32     2.712905324183   137.50407075   327.91624959
 C     44  43  42     2.885413412404   111.90398354    88.34850257
 C     43  42  32     2.663690028048    94.23268499   152.91455844
 C     41  40  39     2.887833921893   119.59769359    47.49730267
 S     47  41  40     3.358583602186   118.71470108   134.94484652
 C     48  47  41     3.342613762031    76.42656335   116.24152059
 C     49  48  47     2.755943770926    95.28273506   349.26917565
 S     50  49  48     3.385485806252   122.60696715   152.59510393
 C     49  48  47     4.235561843109   101.51798695    94.83106831
 C     52  49  48     2.486300769973    39.37090275   121.26238214
 C     53  52  49     2.808062533667   130.17946940   186.98040431
 C     54  53  52     2.876954874780   112.05025110   359.31847590
 C     52  49  48     2.446837981725   109.69752328   304.15611461
 C     56  52  49     2.368533192243   172.05168594     4.61780987
 C     57  56  52     6.600719567656   161.79993171   315.46061253
 C     58  57  56     2.600492761615   148.77217097   274.71348632
 C     59  58  57     2.650388290669   121.99850255   172.11048583
 N     60  59  58     2.171777808108   178.28091391   226.49088397
 C     59  58  57     2.660716740045   121.58187789   352.92235015
 N     62  59  58     2.167797421162   179.16728854   205.59108518
 C     58  57  56     2.722643109569    81.25209068    89.04433097
 C     64  58  57     2.625091782614   133.32160276   189.17702559
 C     65  64  58     2.615605789032   118.06170391   171.74924232
 Cl    66  65  64     3.250000414191   119.62153568   182.45948995
 C     66  65  64     2.656729066049   120.98716226     1.46389595
 Cl    68  66  65     3.248546001546   119.42945176   183.39997149
 C     68  66  65     2.609308862908   121.37778511     2.33488879
 C     70  68  66     2.627063422062   117.72440623   356.48147778
 C     57  56  52     2.529089581087   162.16996994     1.57041823
 O     58  57  56     2.547045465387    28.28449913   263.50961078
 H      4   3   1     2.038010243464   120.74672674     0.13810004
 H      9   7   5     2.036082169179   119.03219347   179.98950391
 H     18  17  11     2.043098139940   115.68282660     0.79368106
 H     24  23  22     2.061519776768   111.17975745   142.80432547
 H     24  23  22     2.063269795691   108.18815190    24.05013037
 H     25  24  23     2.055079568983   110.78216474   299.25339344
 H     25  24  23     2.052423549799   109.74990903   179.51529871
 H     25  24  23     2.055112310122   110.35734606    59.63567282
 H     30  29  28     2.069102785674   108.42054551   311.32424086
 H     30  29  28     2.058344145358   108.12272415   193.69519385
 H     31  30  29     2.055962544250   110.80502522    52.48566559
 H     31  30  29     2.053035827736   110.38074882   292.30573957
 H     31  30  29     2.052284399817   109.77493645   172.94619783
 H     37  36  35     2.070815297664   108.19309249   254.93062360
 H     37  36  35     2.064354392919   107.72749595   138.68493242
 H     38  37  36     2.052250945809   110.43988228   295.38509395
 H     38  37  36     2.051724337350   109.31384095   174.86570767
 H     38  37  36     2.051483705734   110.64622981    55.04654660
 H     44  43  42     2.068186597904   109.70142291   324.69221648
 H     44  43  42     2.067619323518   106.69553856   207.99322030
 H     45  44  43     2.051925897806   110.87115494   300.44523521
 H     45  44  43     2.052779560305   109.85819629   180.12566204
 H     45  44  43     2.054450964915   109.86309310    60.42902044
 H     54  53  52     2.069934766353   108.37305083   237.29075852
 H     54  53  52     2.069159516702   108.44283839   121.49212254
 H     55  54  53     2.055694343497   110.40611713   300.51100870
 H     55  54  53     2.053771511956   110.34748350   180.46812248
 H     55  54  53     2.055449099120   110.42066102    60.36925665
 H     51  50  49     2.516667639747    96.77995015   315.71300133
 H     65  64  58     2.036600876510   121.57452134   353.03079670
 H     70  68  66     2.034943389972   120.96935324   177.41441492

---------------------
BASIS SET INFORMATION
---------------------
There are 6 groups of distinct atoms

 Group   1 Type C   : 11s6p2d1f contracted to 5s3p2d1f pattern {62111/411/11/1}
 Group   2 Type O   : 11s6p2d1f contracted to 5s3p2d1f pattern {62111/411/11/1}
 Group   3 Type Cl  : 14s9p3d1f contracted to 5s5p2d1f pattern {73211/51111/21/1}
 Group   4 Type N   : 11s6p2d1f contracted to 5s3p2d1f pattern {62111/411/11/1}
 Group   5 Type S   : 14s9p3d1f contracted to 5s5p2d1f pattern {73211/51111/21/1}
 Group   6 Type H   : 5s1p contracted to 3s1p pattern {311/1}

Atom   0C    basis set group =>   1
Atom   1O    basis set group =>   2
Atom   2C    basis set group =>   1
Atom   3C    basis set group =>   1
Atom   4C    basis set group =>   1
Atom   5Cl   basis set group =>   3
Atom   6C    basis set group =>   1
Atom   7Cl   basis set group =>   3
Atom   8C    basis set group =>   1
Atom   9C    basis set group =>   1
Atom  10C    basis set group =>   1
Atom  11C    basis set group =>   1
Atom  12C    basis set group =>   1
Atom  13N    basis set group =>   4
Atom  14C    basis set group =>   1
Atom  15N    basis set group =>   4
Atom  16C    basis set group =>   1
Atom  17C    basis set group =>   1
Atom  18C    basis set group =>   1
Atom  19S    basis set group =>   5
Atom  20C    basis set group =>   1
Atom  21C    basis set group =>   1
Atom  22C    basis set group =>   1
Atom  23C    basis set group =>   1
Atom  24C    basis set group =>   1
Atom  25S    basis set group =>   5
Atom  26C    basis set group =>   1
Atom  27C    basis set group =>   1
Atom  28N    basis set group =>   4
Atom  29C    basis set group =>   1
Atom  30C    basis set group =>   1
Atom  31C    basis set group =>   1
Atom  32C    basis set group =>   1
Atom  33C    basis set group =>   1
Atom  34N    basis set group =>   4
Atom  35N    basis set group =>   4
Atom  36C    basis set group =>   1
Atom  37C    basis set group =>   1
Atom  38N    basis set group =>   4
Atom  39C    basis set group =>   1
Atom  40C    basis set group =>   1
Atom  41C    basis set group =>   1
Atom  42N    basis set group =>   4
Atom  43C    basis set group =>   1
Atom  44C    basis set group =>   1
Atom  45C    basis set group =>   1
Atom  46C    basis set group =>   1
Atom  47S    basis set group =>   5
Atom  48C    basis set group =>   1
Atom  49C    basis set group =>   1
Atom  50S    basis set group =>   5
Atom  51C    basis set group =>   1
Atom  52C    basis set group =>   1
Atom  53C    basis set group =>   1
Atom  54C    basis set group =>   1
Atom  55C    basis set group =>   1
Atom  56C    basis set group =>   1
Atom  57C    basis set group =>   1
Atom  58C    basis set group =>   1
Atom  59C    basis set group =>   1
Atom  60N    basis set group =>   4
Atom  61C    basis set group =>   1
Atom  62N    basis set group =>   4
Atom  63C    basis set group =>   1
Atom  64C    basis set group =>   1
Atom  65C    basis set group =>   1
Atom  66Cl   basis set group =>   3
Atom  67C    basis set group =>   1
Atom  68Cl   basis set group =>   3
Atom  69C    basis set group =>   1
Atom  70C    basis set group =>   1
Atom  71C    basis set group =>   1
Atom  72O    basis set group =>   2
Atom  73H    basis set group =>   6
Atom  74H    basis set group =>   6
Atom  75H    basis set group =>   6
Atom  76H    basis set group =>   6
Atom  77H    basis set group =>   6
Atom  78H    basis set group =>   6
Atom  79H    basis set group =>   6
Atom  80H    basis set group =>   6
Atom  81H    basis set group =>   6
Atom  82H    basis set group =>   6
Atom  83H    basis set group =>   6
Atom  84H    basis set group =>   6
Atom  85H    basis set group =>   6
Atom  86H    basis set group =>   6
Atom  87H    basis set group =>   6
Atom  88H    basis set group =>   6
Atom  89H    basis set group =>   6
Atom  90H    basis set group =>   6
Atom  91H    basis set group =>   6
Atom  92H    basis set group =>   6
Atom  93H    basis set group =>   6
Atom  94H    basis set group =>   6
Atom  95H    basis set group =>   6
Atom  96H    basis set group =>   6
Atom  97H    basis set group =>   6
Atom  98H    basis set group =>   6
Atom  99H    basis set group =>   6
Atom 100H    basis set group =>   6
Atom 101H    basis set group =>   6
Atom 102H    basis set group =>   6
Atom 103H    basis set group =>   6
---------------------------------
AUXILIARY/J BASIS SET INFORMATION
---------------------------------
There are 6 groups of distinct atoms

 Group   1 Type C   : 12s5p4d2f1g contracted to 6s4p3d1f1g pattern {711111/2111/211/2/1}
 Group   2 Type O   : 12s5p4d2f1g contracted to 6s4p3d1f1g pattern {711111/2111/211/2/1}
 Group   3 Type Cl  : 14s5p5d2f1g contracted to 8s4p3d1f1g pattern {71111111/2111/311/2/1}
 Group   4 Type N   : 12s5p4d2f1g contracted to 6s4p3d1f1g pattern {711111/2111/211/2/1}
 Group   5 Type S   : 14s5p5d2f1g contracted to 8s4p3d1f1g pattern {71111111/2111/311/2/1}
 Group   6 Type H   : 5s2p1d contracted to 3s1p1d pattern {311/2/1}

Atom   0C    basis set group =>   1
Atom   1O    basis set group =>   2
Atom   2C    basis set group =>   1
Atom   3C    basis set group =>   1
Atom   4C    basis set group =>   1
Atom   5Cl   basis set group =>   3
Atom   6C    basis set group =>   1
Atom   7Cl   basis set group =>   3
Atom   8C    basis set group =>   1
Atom   9C    basis set group =>   1
Atom  10C    basis set group =>   1
Atom  11C    basis set group =>   1
Atom  12C    basis set group =>   1
Atom  13N    basis set group =>   4
Atom  14C    basis set group =>   1
Atom  15N    basis set group =>   4
Atom  16C    basis set group =>   1
Atom  17C    basis set group =>   1
Atom  18C    basis set group =>   1
Atom  19S    basis set group =>   5
Atom  20C    basis set group =>   1
Atom  21C    basis set group =>   1
Atom  22C    basis set group =>   1
Atom  23C    basis set group =>   1
Atom  24C    basis set group =>   1
Atom  25S    basis set group =>   5
Atom  26C    basis set group =>   1
Atom  27C    basis set group =>   1
Atom  28N    basis set group =>   4
Atom  29C    basis set group =>   1
Atom  30C    basis set group =>   1
Atom  31C    basis set group =>   1
Atom  32C    basis set group =>   1
Atom  33C    basis set group =>   1
Atom  34N    basis set group =>   4
Atom  35N    basis set group =>   4
Atom  36C    basis set group =>   1
Atom  37C    basis set group =>   1
Atom  38N    basis set group =>   4
Atom  39C    basis set group =>   1
Atom  40C    basis set group =>   1
Atom  41C    basis set group =>   1
Atom  42N    basis set group =>   4
Atom  43C    basis set group =>   1
Atom  44C    basis set group =>   1
Atom  45C    basis set group =>   1
Atom  46C    basis set group =>   1
Atom  47S    basis set group =>   5
Atom  48C    basis set group =>   1
Atom  49C    basis set group =>   1
Atom  50S    basis set group =>   5
Atom  51C    basis set group =>   1
Atom  52C    basis set group =>   1
Atom  53C    basis set group =>   1
Atom  54C    basis set group =>   1
Atom  55C    basis set group =>   1
Atom  56C    basis set group =>   1
Atom  57C    basis set group =>   1
Atom  58C    basis set group =>   1
Atom  59C    basis set group =>   1
Atom  60N    basis set group =>   4
Atom  61C    basis set group =>   1
Atom  62N    basis set group =>   4
Atom  63C    basis set group =>   1
Atom  64C    basis set group =>   1
Atom  65C    basis set group =>   1
Atom  66Cl   basis set group =>   3
Atom  67C    basis set group =>   1
Atom  68Cl   basis set group =>   3
Atom  69C    basis set group =>   1
Atom  70C    basis set group =>   1
Atom  71C    basis set group =>   1
Atom  72O    basis set group =>   2
Atom  73H    basis set group =>   6
Atom  74H    basis set group =>   6
Atom  75H    basis set group =>   6
Atom  76H    basis set group =>   6
Atom  77H    basis set group =>   6
Atom  78H    basis set group =>   6
Atom  79H    basis set group =>   6
Atom  80H    basis set group =>   6
Atom  81H    basis set group =>   6
Atom  82H    basis set group =>   6
Atom  83H    basis set group =>   6
Atom  84H    basis set group =>   6
Atom  85H    basis set group =>   6
Atom  86H    basis set group =>   6
Atom  87H    basis set group =>   6
Atom  88H    basis set group =>   6
Atom  89H    basis set group =>   6
Atom  90H    basis set group =>   6
Atom  91H    basis set group =>   6
Atom  92H    basis set group =>   6
Atom  93H    basis set group =>   6
Atom  94H    basis set group =>   6
Atom  95H    basis set group =>   6
Atom  96H    basis set group =>   6
Atom  97H    basis set group =>   6
Atom  98H    basis set group =>   6
Atom  99H    basis set group =>   6
Atom 100H    basis set group =>   6
Atom 101H    basis set group =>   6
Atom 102H    basis set group =>   6
Atom 103H    basis set group =>   6
------------------------------------------------------------------------------
                           ORCA GTO INTEGRAL CALCULATION
                           -- RI-GTO INTEGRALS CHOSEN --
------------------------------------------------------------------------------

                         BASIS SET STATISTICS AND STARTUP INFO

Gaussian basis set:
 # of primitive gaussian shells          ... 1702
 # of primitive gaussian functions       ... 3742
 # of contracted shells                  ...  943
 # of contracted basis functions         ... 2497
 Highest angular momentum                ...    3
 Maximum contraction depth               ...    7
Auxiliary gaussian basis set:
 # of primitive gaussian shells          ... 2024
 # of primitive gaussian functions       ... 5662
 # of contracted shells                  ... 1266
 # of contracted aux-basis functions     ... 3934
 Highest angular momentum                ...    4
 Maximum contraction depth               ...    7
Ratio of auxiliary to basis functions    ...  1.58
Integral package used                  ... LIBINT
 One Electron integrals                  ... done
 Ordering auxiliary basis shells         ... done
 Integral threshhold             Thresh  ...  2.500e-11
 Primitive cut-off               TCut    ...  2.500e-12
 Pre-screening matrix                    ... done
 Shell pair data                         ... 
 Ordering of the shell pairs             ... done (   0.043 sec) 170655 of 445096 pairs
 Determination of significant pairs      ... done (   0.001 sec)
 Creation of shell pair data             ... done (   0.020 sec)
 Storage of shell pair data              ... done (   0.029 sec)
 Shell pair data done in (   0.093 sec)
 Computing two index integrals           ... done
 Cholesky decomposition of the V-matrix  ... done


Timings:
 Total evaluation time                   ...   7.500 sec (  0.125 min)
 One electron matrix time                ...   2.581 sec (  0.043 min) = 34.4%
 Schwartz matrix evaluation time         ...   3.795 sec (  0.063 min) = 50.6%
 Two index repulsion integral time       ...   0.431 sec (  0.007 min) =  5.7%
 Cholesky decomposition of V             ...   0.581 sec (  0.010 min) =  7.8%
 Three index repulsion integral time     ...   0.000 sec (  0.000 min) =  0.0%

-------------------------------------------------------------------------------
                                 ORCA SCF
-------------------------------------------------------------------------------

------------
SCF SETTINGS
------------
Hamiltonian:
 Density Functional     Method          .... DFT(GTOs)
 Exchange Functional    Exchange        .... B88
   X-Alpha parameter    XAlpha          ....  0.666667
   Becke's b parameter  XBeta           ....  0.004200
 Correlation Functional Correlation     .... LYP
 LDA part of GGA corr.  LDAOpt          .... VWN-5
 Gradients option       PostSCFGGA      .... off
 Hybrid DFT is turned on
   Fraction HF Exchange ScalHFX         ....  0.200000
   Scaling of DF-GGA-X  ScalDFX         ....  0.720000
   Scaling of DF-GGA-C  ScalDFC         ....  0.810000
   Scaling of DF-LDA-C  ScalLDAC        ....  1.000000
   Perturbative correction              ....  0.000000
   Density functional embedding theory  .... OFF
   NL short-range parameter             ....  4.800000
 RI-approximation to the Coulomb term is turned on
   Number of auxiliary basis functions  .... 3934
   RIJ-COSX (HFX calculated with COS-X)).... on


General Settings:
 Integral files         IntName         .... Y15
 Hartree-Fock type      HFTyp           .... RHF
 Total Charge           Charge          ....    0
 Multiplicity           Mult            ....    1
 Number of Electrons    NEL             ....  566
 Basis Dimension        Dim             .... 2497
 Nuclear Repulsion      ENuc            ....  13525.9873782654 Eh

Convergence Acceleration:
 DIIS                   CNVDIIS         .... on
   Start iteration      DIISMaxIt       ....    12
   Startup error        DIISStart       ....  0.200000
   # of expansion vecs  DIISMaxEq       ....     5
   Bias factor          DIISBfac        ....   1.050
   Max. coefficient     DIISMaxC        ....  10.000
 Newton-Raphson         CNVNR           .... off
 SOSCF                  CNVSOSCF        .... on
   Start iteration      SOSCFMaxIt      ....   150
   Startup grad/error   SOSCFStart      ....  0.003300
 Level Shifting         CNVShift        .... on
   Level shift para.    LevelShift      ....    0.2500
   Turn off err/grad.   ShiftErr        ....    0.0010
 Zerner damping         CNVZerner       .... off
 Static damping         CNVDamp         .... on
   Fraction old density DampFac         ....    0.7000
   Max. Damping (<1)    DampMax         ....    0.9800
   Min. Damping (>=0)   DampMin         ....    0.0000
   Turn off err/grad.   DampErr         ....    0.1000
 Fernandez-Rico         CNVRico         .... off

SCF Procedure:
 Maximum # iterations   MaxIter         ....   125
 SCF integral mode      SCFMode         .... Direct
   Integral package                     .... LIBINT
 Reset frequency        DirectResetFreq ....    20
 Integral Threshold     Thresh          ....  2.500e-11 Eh
 Primitive CutOff       TCut            ....  2.500e-12 Eh

Convergence Tolerance:
 Convergence Check Mode ConvCheckMode   .... Total+1el-Energy
 Convergence forced     ConvForced      .... 1
 Energy Change          TolE            ....  1.000e-08 Eh
 1-El. energy change                    ....  1.000e-05 Eh
 Orbital Gradient       TolG            ....  1.000e-05
 Orbital Rotation angle TolX            ....  1.000e-05
 DIIS Error             TolErr          ....  5.000e-07


Diagonalization of the overlap matrix:
Smallest eigenvalue                        ... 2.110e-06
Time for diagonalization                   ...    3.949 sec
Threshold for overlap eigenvalues          ... 1.000e-08
Number of eigenvalues below threshold      ... 0
Time for construction of square roots      ...    1.280 sec
Total time needed                          ...    5.263 sec

-------------------
DFT GRID GENERATION
-------------------

General Integration Accuracy     IntAcc      ...  4.670
Radial Grid Type                 RadialGrid  ... Gauss-Chebyshev
Angular Grid (max. acc.)         AngularGrid ... Lebedev-302
Angular grid pruning method      GridPruning ... 3 (G Style)
Weight generation scheme         WeightScheme... Becke
Basis function cutoff            BFCut       ...    1.0000e-11
Integration weight cutoff        WCut        ...    1.0000e-14
Grids for H and He will be reduced by one unit

# of grid points (after initial pruning)     ... 563330 (   2.1 sec)
# of grid points (after weights+screening)   ... 473245 (  24.7 sec)
nearest neighbour list constructed           ...    0.0 sec
Grid point re-assignment to atoms done       ...    0.1 sec
Grid point division into batches done        ...    1.7 sec
Reduced shell lists constructed in   22.2 sec

Total number of grid points                  ...   473245
Total number of batches                      ...     7445
Average number of points per batch           ...       63
Average number of grid points per atom       ...     4550
Average number of shells per batch           ...   189.60 (20.11%)
Average number of basis functions per batch  ...   474.60 (19.01%)
Average number of large shells per batch     ...   109.15 (57.57%)
Average number of large basis fcns per batch ...   277.66 (58.50%)
Maximum spatial batch extension              ...  21.96, 23.17, 22.71 au
Average spatial batch extension              ...   2.05,  2.05,  2.19 au

Time for grid setup =   49.088 sec

------------------------------
INITIAL GUESS: MODEL POTENTIAL
------------------------------
Loading Hartree-Fock densities                     ... done
Calculating cut-offs                               ... done
Setting up the integral package                    ... done
Initializing the effective Hamiltonian             ... done
Starting the Coulomb interaction                   ... done (  35.1 sec)
Reading the grid                                   ... done
Mapping shells                                     ... done
Starting the XC term evaluation                    ... done (  33.7 sec)
  promolecular density results
     # of electrons  =    565.983335715
     EX              =   -572.995340585
     EC              =    -20.492273308
     EX+EC           =   -593.487613893
Transforming the Hamiltonian                       ... done (   1.2 sec)
Diagonalizing the Hamiltonian                      ... done (   3.6 sec)
Back transforming the eigenvectors                 ... done (   0.5 sec)
Now organizing SCF variables                       ... done
                      ------------------
                      INITIAL GUESS DONE ( 124.0 sec)
                      ------------------
--------------------
COSX GRID GENERATION
--------------------

General Integration Accuracy     IntAcc      ...  3.340
Radial Grid Type                 RadialGrid  ... Gauss-Chebyshev
Angular Grid (max. acc.)         AngularGrid ... Lebedev-50
Angular grid pruning method      GridPruning ... 3 (G Style)
Weight generation scheme         WeightScheme... Becke
Basis function cutoff            BFCut       ...    1.0000e-11
Integration weight cutoff        WCut        ...    1.0000e-14
Grids for H and He will be reduced by one unit

# of grid points (after initial pruning)     ...  53142 (   0.1 sec)
# of grid points (after weights+screening)   ...  46962 (   2.3 sec)
nearest neighbour list constructed           ...    0.0 sec
Grid point re-assignment to atoms done       ...    0.0 sec
Grid point division into batches done        ...    0.0 sec
Reduced shell lists constructed in    2.9 sec

Total number of grid points                  ...    46962
Total number of batches                      ...      792
Average number of points per batch           ...       59
Average number of grid points per atom       ...      452
Average number of shells per batch           ...   230.82 (24.48%)
Average number of basis functions per batch  ...   587.11 (23.51%)
Average number of large shells per batch     ...   134.03 (58.07%)
Average number of large basis fcns per batch ...   346.36 (58.99%)
Maximum spatial batch extension              ...  18.03, 17.65, 20.94 au
Average spatial batch extension              ...   3.95,  3.93,  4.79 au

Overlap Fitting                  UseSFitting ... on
Constructing numerical overlap ... done (      3.2 sec)
Inverting numerical overlap    ... done (      0.4 sec)
Obtaining analytic overlap     ... done (      0.0 sec)
Final contraction and storage  ... done (      0.6 sec)


General Integration Accuracy     IntAcc      ...  3.670
Radial Grid Type                 RadialGrid  ... Gauss-Chebyshev
Angular Grid (max. acc.)         AngularGrid ... Lebedev-50
Angular grid pruning method      GridPruning ... 3 (G Style)
Weight generation scheme         WeightScheme... Becke
Basis function cutoff            BFCut       ...    1.0000e-11
Integration weight cutoff        WCut        ...    1.0000e-14
Grids for H and He will be reduced by one unit

# of grid points (after initial pruning)     ...  66318 (   0.1 sec)
# of grid points (after weights+screening)   ...  58383 (   2.9 sec)
nearest neighbour list constructed           ...    0.0 sec
Grid point re-assignment to atoms done       ...    0.0 sec
Grid point division into batches done        ...    0.0 sec
Reduced shell lists constructed in    3.5 sec

Total number of grid points                  ...    58383
Total number of batches                      ...      961
Average number of points per batch           ...       60
Average number of grid points per atom       ...      561
Average number of shells per batch           ...   226.22 (23.99%)
Average number of basis functions per batch  ...   574.33 (23.00%)
Average number of large shells per batch     ...   130.72 (57.79%)
Average number of large basis fcns per batch ...   337.30 (58.73%)
Maximum spatial batch extension              ...  20.11, 18.57, 24.70 au
Average spatial batch extension              ...   3.67,  3.75,  4.46 au

Overlap Fitting                  UseSFitting ... on
Constructing numerical overlap ... done (      3.7 sec)
Inverting numerical overlap    ... done (      0.4 sec)
Obtaining analytic overlap     ... done (      0.0 sec)
Final contraction and storage  ... done (      0.6 sec)


General Integration Accuracy     IntAcc      ...  4.010
Radial Grid Type                 RadialGrid  ... Gauss-Chebyshev
Angular Grid (max. acc.)         AngularGrid ... Lebedev-110
Angular grid pruning method      GridPruning ... 3 (G Style)
Weight generation scheme         WeightScheme... Becke
Basis function cutoff            BFCut       ...    1.0000e-11
Integration weight cutoff        WCut        ...    1.0000e-14
Grids for H and He will be reduced by one unit

# of grid points (after initial pruning)     ... 129188 (   0.2 sec)
# of grid points (after weights+screening)   ... 112262 (   5.6 sec)
nearest neighbour list constructed           ...    0.0 sec
Grid point re-assignment to atoms done       ...    0.0 sec
Grid point division into batches done        ...    0.1 sec
Reduced shell lists constructed in    6.3 sec

Total number of grid points                  ...   112262
Total number of batches                      ...     1813
Average number of points per batch           ...       61
Average number of grid points per atom       ...     1079
Average number of shells per batch           ...   213.84 (22.68%)
Average number of basis functions per batch  ...   541.31 (21.68%)
Average number of large shells per batch     ...   124.26 (58.11%)
Average number of large basis fcns per batch ...   319.66 (59.05%)
Maximum spatial batch extension              ...  20.60, 19.39, 28.30 au
Average spatial batch extension              ...   3.14,  3.16,  3.67 au

Overlap Fitting                  UseSFitting ... on
Constructing numerical overlap ... done (      6.1 sec)
Inverting numerical overlap    ... done (      0.3 sec)
Obtaining analytic overlap     ... done (      0.0 sec)
Final contraction and storage  ... done (      0.6 sec)

Time for X-Grid setup             =   39.916 sec
--------------
SCF ITERATIONS
--------------
ITER       Energy         Delta-E        Max-DP      RMS-DP      [F,P]     Damp
               ***  Starting incremental Fock matrix formation  ***
  0  -6150.1403590208   0.000000000000 0.26254803  0.00098500  0.2980533 0.7000
  1  -6150.9036528316  -0.763293810774 0.24274839  0.00088261  0.1089964 0.7000
                               ***Turning on DIIS***
  2  -6151.1832685147  -0.279615683159 0.54077504  0.00155670  0.0451104 0.0000
  3  -6151.6514356512  -0.468167136481 0.20462898  0.00075572  0.0567412 0.0000
  4  -6151.7445270895  -0.093091438277 0.08031879  0.00027298  0.0362241 0.0000
  5  -6151.7566379459  -0.012110856354 0.03285394  0.00011729  0.0089255 0.0000
                      *** Initiating the SOSCF procedure ***
                           *** Shutting down DIIS ***
                      *** Re-Reading the Fockian *** 
                      *** Removing any level shift *** 
ITER      Energy       Delta-E        Grad      Rot      Max-DP    RMS-DP
  6  -6151.75745063  -0.0008126859  0.000853  0.000853  0.016226  0.000040
               *** Restarting incremental Fock matrix formation ***
  7  -6151.75757977  -0.0001291395  0.000738  0.007932  0.022670  0.000116
  8  -6151.75760290  -0.0000231314  0.000477  0.006030  0.013040  0.000066
  9  -6151.75763325  -0.0000303474  0.000401  0.005528  0.012544  0.000064
 10  -6151.75763979  -0.0000065447  0.000553  0.002166  0.007595  0.000039
 11  -6151.75763830   0.0000014989  0.000429  0.002617  0.007323  0.000039
 12  -6151.75764974  -0.0000114456  0.000154  0.001218  0.003488  0.000018
 13  -6151.75765057  -0.0000008258  0.000169  0.000929  0.003462  0.000018
 14  -6151.75765413  -0.0000035602  0.000072  0.000628  0.001684  0.000009
 15  -6151.75765486  -0.0000007285  0.000061  0.000578  0.001856  0.000009
 16  -6151.75765586  -0.0000010085  0.000041  0.000154  0.000925  0.000004
 17  -6151.75765575   0.0000001164  0.000043  0.000226  0.000785  0.000004
 18  -6151.75765615  -0.0000004024  0.000012  0.000036  0.000716  0.000002
 19  -6151.75765608   0.0000000743  0.000030  0.000076  0.000328  0.000001
 20  -6151.75765613  -0.0000000529  0.000010  0.000071  0.000760  0.000002
 21  -6151.75765621  -0.0000000802  0.000018  0.000035  0.000356  0.000001
 22  -6151.75765614   0.0000000686  0.000003  0.000013  0.000879  0.000003
 23  -6151.75765614  -0.0000000031  0.000004  0.000008  0.000420  0.000001
                  ***Gradient check signals convergence***
              ***Rediagonalizing the Fockian in SOSCF/NRSCF***

               *****************************************************
               *                     SUCCESS                       *
               *           SCF CONVERGED AFTER  24 CYCLES          *
               *****************************************************

Setting up the final grid:

General Integration Accuracy     IntAcc      ...  5.010
Radial Grid Type                 RadialGrid  ... Gauss-Chebyshev
Angular Grid (max. acc.)         AngularGrid ... Lebedev-434
Angular grid pruning method      GridPruning ... 3 (G Style)
Weight generation scheme         WeightScheme... Becke
Basis function cutoff            BFCut       ...    1.0000e-11
Integration weight cutoff        WCut        ...    1.0000e-14
Grids for H and He will be reduced by one unit

# of grid points (after initial pruning)     ... 996634 (   1.7 sec)
# of grid points (after weights+screening)   ... 834492 (  43.6 sec)
nearest neighbour list constructed           ...    0.0 sec
Grid point re-assignment to atoms done       ...    0.2 sec
Grid point division into batches done        ...    5.5 sec
Reduced shell lists constructed in   39.9 sec

Total number of grid points                  ...   834492
Total number of batches                      ...    13094
Average number of points per batch           ...       63
Average number of grid points per atom       ...     8024
Average number of shells per batch           ...   182.34 (19.34%)
Average number of basis functions per batch  ...   454.34 (18.20%)
Average number of large shells per batch     ...   104.85 (57.50%)
Average number of large basis fcns per batch ...   265.76 (58.49%)
Maximum spatial batch extension              ...  20.90, 22.03, 23.45 au
Average spatial batch extension              ...   1.67,  1.67,  1.77 au

Final grid set up in   85.3 sec
Final integration                            ... done (  85.0 sec)
Change in XC energy                          ...    -0.000256571
Integrated number of electrons               ...   566.000135491
Previous integrated no of electrons          ...   565.999079405
Old exchange energy                            =   -115.505177287 Eh
New exchange energy                            =   -115.507743337 Eh
Exchange energy change after final integration =     -0.002566050 Eh
Total energy after final integration           =  -6151.760478700 Eh
Final COS-X integration done in                =  1980.257 sec

----------------
TOTAL SCF ENERGY
----------------

Total Energy       :        -6151.76047870 Eh         -167397.91297 eV

Components:
Nuclear Repulsion  :        13525.98737827 Eh          368060.82841 eV
Electronic Energy  :       -19677.74785697 Eh         -535458.74138 eV
One Electron Energy:       -35395.75841212 Eh         -963167.55289 eV
Two Electron Energy:        15718.01055515 Eh          427708.81150 eV

Virial components:
Potential Energy   :       -12288.45344417 Eh         -334385.81806 eV
Kinetic Energy     :         6136.69296547 Eh          166987.90509 eV
Virial Ratio       :            2.00245531


DFT components:
N(Alpha)           :      283.000067745727 electrons
N(Beta)            :      283.000067745727 electrons
N(Total)           :      566.000135491454 electrons
E(X)               :     -459.118381698736 Eh       
E(C)               :      -24.033058851198 Eh       
E(XC)              :     -483.151440549934 Eh       
DFET-embed. en.    :        0.000000000000 Eh       

---------------
SCF CONVERGENCE
---------------

  Last Energy change         ...    6.4667e-08  Tolerance :   1.0000e-08
  Last MAX-Density change    ...    6.6613e-15  Tolerance :   1.0000e-07
  Last RMS-Density change    ...    1.4320e-17  Tolerance :   5.0000e-09
  Last Orbital Gradient      ...    5.6559e-07  Tolerance :   1.0000e-05
  Last Orbital Rotation      ...    3.0195e-06  Tolerance :   1.0000e-05

             **** THE GBW FILE WAS UPDATED (Y15.gbw) ****
             **** DENSITY FILE WAS UPDATED (Y15.scfp) ****
             **** ENERGY FILE WAS UPDATED (Y15.en.tmp) ****
             **** THE GBW FILE WAS UPDATED (Y15.gbw) ****
             **** DENSITY FILE WAS UPDATED (Y15.scfp) ****
----------------
ORBITAL ENERGIES
----------------

  NO   OCC          E(Eh)            E(eV) 
   0   2.0000    -101.554689     -2763.4436 
   1   2.0000    -101.552626     -2763.3875 
   2   2.0000    -101.550051     -2763.3174 
   3   2.0000    -101.548296     -2763.2696 
   4   2.0000     -88.909670     -2419.3551 
   5   2.0000     -88.908710     -2419.3290 
   6   2.0000     -88.895963     -2418.9821 
   7   2.0000     -88.860639     -2418.0209 
   8   2.0000     -19.231258      -523.3091 
   9   2.0000     -19.143215      -520.9134 
  10   2.0000     -14.443190      -393.0192 
  11   2.0000     -14.410650      -392.1337 
  12   2.0000     -14.403964      -391.9518 
  13   2.0000     -14.361488      -390.7960 
  14   2.0000     -14.359701      -390.7473 
  15   2.0000     -14.335180      -390.0801 
  16   2.0000     -14.329128      -389.9154 
  17   2.0000     -14.327461      -389.8700 
  18   2.0000     -14.315820      -389.5533 
  19   2.0000     -10.304388      -280.3966 
  20   2.0000     -10.285032      -279.8699 
  21   2.0000     -10.283266      -279.8219 
  22   2.0000     -10.275773      -279.6180 
  23   2.0000     -10.275064      -279.5987 
  24   2.0000     -10.274474      -279.5827 
  25   2.0000     -10.272122      -279.5187 
  26   2.0000     -10.265884      -279.3489 
  27   2.0000     -10.260290      -279.1967 
  28   2.0000     -10.259286      -279.1694 
  29   2.0000     -10.259261      -279.1687 
  30   2.0000     -10.257725      -279.1269 
  31   2.0000     -10.254369      -279.0356 
  32   2.0000     -10.251057      -278.9455 
  33   2.0000     -10.250628      -278.9338 
  34   2.0000     -10.250251      -278.9235 
  35   2.0000     -10.246238      -278.8143 
  36   2.0000     -10.240162      -278.6490 
  37   2.0000     -10.239152      -278.6215 
  38   2.0000     -10.238649      -278.6078 
  39   2.0000     -10.236851      -278.5589 
  40   2.0000     -10.235931      -278.5338 
  41   2.0000     -10.234422      -278.4928 
  42   2.0000     -10.233721      -278.4737 
  43   2.0000     -10.233623      -278.4710 
  44   2.0000     -10.232991      -278.4538 
  45   2.0000     -10.232725      -278.4466 
  46   2.0000     -10.231396      -278.4104 
  47   2.0000     -10.230330      -278.3814 
  48   2.0000     -10.229265      -278.3525 
  49   2.0000     -10.227879      -278.3147 
  50   2.0000     -10.227785      -278.3122 
  51   2.0000     -10.227258      -278.2978 
  52   2.0000     -10.227149      -278.2949 
  53   2.0000     -10.225382      -278.2468 
  54   2.0000     -10.224552      -278.2242 
  55   2.0000     -10.223808      -278.2040 
  56   2.0000     -10.223677      -278.2004 
  57   2.0000     -10.222817      -278.1770 
  58   2.0000     -10.222303      -278.1630 
  59   2.0000     -10.222233      -278.1611 
  60   2.0000     -10.221809      -278.1496 
  61   2.0000     -10.221367      -278.1375 
  62   2.0000     -10.219267      -278.0804 
  63   2.0000     -10.218324      -278.0547 
  64   2.0000     -10.216522      -278.0057 
  65   2.0000     -10.214573      -277.9527 
  66   2.0000     -10.201989      -277.6102 
  67   2.0000     -10.198908      -277.5264 
  68   2.0000     -10.196837      -277.4700 
  69   2.0000     -10.193914      -277.3905 
  70   2.0000     -10.177023      -276.9309 
  71   2.0000     -10.176378      -276.9133 
  72   2.0000     -10.169526      -276.7269 
  73   2.0000      -9.487438      -258.1663 
  74   2.0000      -9.485200      -258.1054 
  75   2.0000      -9.482637      -258.0357 
  76   2.0000      -9.480971      -257.9903 
  77   2.0000      -7.985413      -217.2941 
  78   2.0000      -7.983741      -217.2486 
  79   2.0000      -7.972623      -216.9461 
  80   2.0000      -7.938765      -216.0248 
  81   2.0000      -7.249013      -197.2557 
  82   2.0000      -7.246846      -197.1967 
  83   2.0000      -7.244302      -197.1275 
  84   2.0000      -7.242687      -197.0835 
  85   2.0000      -7.240730      -197.0303 
  86   2.0000      -7.239993      -197.0102 
  87   2.0000      -7.238489      -196.9693 
  88   2.0000      -7.237698      -196.9478 
  89   2.0000      -7.235910      -196.8991 
  90   2.0000      -7.235108      -196.8773 
  91   2.0000      -7.234126      -196.8506 
  92   2.0000      -7.233528      -196.8343 
  93   2.0000      -5.948425      -161.8649 
  94   2.0000      -5.946744      -161.8191 
  95   2.0000      -5.944701      -161.7635 
  96   2.0000      -5.942414      -161.7013 
  97   2.0000      -5.941018      -161.6633 
  98   2.0000      -5.939781      -161.6297 
  99   2.0000      -5.935238      -161.5060 
 100   2.0000      -5.931661      -161.4087 
 101   2.0000      -5.928667      -161.3272 
 102   2.0000      -5.901890      -160.5986 
 103   2.0000      -5.898023      -160.4934 
 104   2.0000      -5.893633      -160.3739 
 105   2.0000      -1.160323       -31.5740 
 106   2.0000      -1.136354       -30.9218 
 107   2.0000      -1.073800       -29.2196 
 108   2.0000      -1.058334       -28.7987 
 109   2.0000      -1.042968       -28.3806 
 110   2.0000      -0.954040       -25.9607 
 111   2.0000      -0.949586       -25.8395 
 112   2.0000      -0.944913       -25.7124 
 113   2.0000      -0.938656       -25.5421 
 114   2.0000      -0.937105       -25.4999 
 115   2.0000      -0.934882       -25.4394 
 116   2.0000      -0.927880       -25.2489 
 117   2.0000      -0.917080       -24.9550 
 118   2.0000      -0.915983       -24.9252 
 119   2.0000      -0.914978       -24.8978 
 120   2.0000      -0.903550       -24.5868 
 121   2.0000      -0.888845       -24.1867 
 122   2.0000      -0.885749       -24.1025 
 123   2.0000      -0.885556       -24.0972 
 124   2.0000      -0.883768       -24.0486 
 125   2.0000      -0.873652       -23.7733 
 126   2.0000      -0.864762       -23.5314 
 127   2.0000      -0.861253       -23.4359 
 128   2.0000      -0.855604       -23.2822 
 129   2.0000      -0.841583       -22.9006 
 130   2.0000      -0.827727       -22.5236 
 131   2.0000      -0.824698       -22.4412 
 132   2.0000      -0.824273       -22.4296 
 133   2.0000      -0.806480       -21.9454 
 134   2.0000      -0.798785       -21.7360 
 135   2.0000      -0.795747       -21.6534 
 136   2.0000      -0.792304       -21.5597 
 137   2.0000      -0.789992       -21.4968 
 138   2.0000      -0.789288       -21.4776 
 139   2.0000      -0.781426       -21.2637 
 140   2.0000      -0.774060       -21.0632 
 141   2.0000      -0.771544       -20.9948 
 142   2.0000      -0.757488       -20.6123 
 143   2.0000      -0.752564       -20.4783 
 144   2.0000      -0.741646       -20.1812 
 145   2.0000      -0.732180       -19.9236 
 146   2.0000      -0.727307       -19.7910 
 147   2.0000      -0.703038       -19.1306 
 148   2.0000      -0.700413       -19.0592 
 149   2.0000      -0.697202       -18.9718 
 150   2.0000      -0.694030       -18.8855 
 151   2.0000      -0.690957       -18.8019 
 152   2.0000      -0.678724       -18.4690 
 153   2.0000      -0.672565       -18.3014 
 154   2.0000      -0.667293       -18.1580 
 155   2.0000      -0.656441       -17.8627 
 156   2.0000      -0.653183       -17.7740 
 157   2.0000      -0.652301       -17.7500 
 158   2.0000      -0.649836       -17.6829 
 159   2.0000      -0.636891       -17.3307 
 160   2.0000      -0.628742       -17.1089 
 161   2.0000      -0.626591       -17.0504 
 162   2.0000      -0.624436       -16.9918 
 163   2.0000      -0.618564       -16.8320 
 164   2.0000      -0.603486       -16.4217 
 165   2.0000      -0.601995       -16.3811 
 166   2.0000      -0.595874       -16.2145 
 167   2.0000      -0.589480       -16.0406 
 168   2.0000      -0.582890       -15.8612 
 169   2.0000      -0.581449       -15.8220 
 170   2.0000      -0.570897       -15.5349 
 171   2.0000      -0.560771       -15.2594 
 172   2.0000      -0.557058       -15.1583 
 173   2.0000      -0.554932       -15.1005 
 174   2.0000      -0.549565       -14.9544 
 175   2.0000      -0.544373       -14.8131 
 176   2.0000      -0.541251       -14.7282 
 177   2.0000      -0.533038       -14.5047 
 178   2.0000      -0.530840       -14.4449 
 179   2.0000      -0.528818       -14.3899 
 180   2.0000      -0.527580       -14.3562 
 181   2.0000      -0.521079       -14.1793 
 182   2.0000      -0.519923       -14.1478 
 183   2.0000      -0.514027       -13.9874 
 184   2.0000      -0.511633       -13.9223 
 185   2.0000      -0.509413       -13.8618 
 186   2.0000      -0.502084       -13.6624 
 187   2.0000      -0.497464       -13.5367 
 188   2.0000      -0.493567       -13.4306 
 189   2.0000      -0.489494       -13.3198 
 190   2.0000      -0.487362       -13.2618 
 191   2.0000      -0.486215       -13.2306 
 192   2.0000      -0.485083       -13.1998 
 193   2.0000      -0.482063       -13.1176 
 194   2.0000      -0.480626       -13.0785 
 195   2.0000      -0.479222       -13.0403 
 196   2.0000      -0.478590       -13.0231 
 197   2.0000      -0.476270       -12.9600 
 198   2.0000      -0.471461       -12.8291 
 199   2.0000      -0.468650       -12.7526 
 200   2.0000      -0.464774       -12.6471 
 201   2.0000      -0.462222       -12.5777 
 202   2.0000      -0.458468       -12.4755 
 203   2.0000      -0.457307       -12.4440 
 204   2.0000      -0.451693       -12.2912 
 205   2.0000      -0.447875       -12.1873 
 206   2.0000      -0.443266       -12.0619 
 207   2.0000      -0.442455       -12.0398 
 208   2.0000      -0.439112       -11.9489 
 209   2.0000      -0.433851       -11.8057 
 210   2.0000      -0.432779       -11.7765 
 211   2.0000      -0.431479       -11.7411 
 212   2.0000      -0.428162       -11.6509 
 213   2.0000      -0.425777       -11.5860 
 214   2.0000      -0.424024       -11.5383 
 215   2.0000      -0.422520       -11.4974 
 216   2.0000      -0.419613       -11.4183 
 217   2.0000      -0.418574       -11.3900 
 218   2.0000      -0.417507       -11.3610 
 219   2.0000      -0.416525       -11.3342 
 220   2.0000      -0.415738       -11.3128 
 221   2.0000      -0.410761       -11.1774 
 222   2.0000      -0.406631       -11.0650 
 223   2.0000      -0.406185       -11.0529 
 224   2.0000      -0.405842       -11.0435 
 225   2.0000      -0.400423       -10.8961 
 226   2.0000      -0.395815       -10.7707 
 227   2.0000      -0.394505       -10.7350 
 228   2.0000      -0.391983       -10.6664 
 229   2.0000      -0.391470       -10.6525 
 230   2.0000      -0.390586       -10.6284 
 231   2.0000      -0.386866       -10.5272 
 232   2.0000      -0.385276       -10.4839 
 233   2.0000      -0.384408       -10.4603 
 234   2.0000      -0.382939       -10.4203 
 235   2.0000      -0.382121       -10.3981 
 236   2.0000      -0.379544       -10.3279 
 237   2.0000      -0.379034       -10.3141 
 238   2.0000      -0.376980       -10.2581 
 239   2.0000      -0.375707       -10.2235 
 240   2.0000      -0.372542       -10.1374 
 241   2.0000      -0.372105       -10.1255 
 242   2.0000      -0.371107       -10.0983 
 243   2.0000      -0.370815       -10.0904 
 244   2.0000      -0.370308       -10.0766 
 245   2.0000      -0.368746       -10.0341 
 246   2.0000      -0.366583        -9.9752 
[...]
   Time for K (COSX):  3004.139
   Time for XC-Integration:    35.689
   Time for Sigma-Completion:   284.256
   Size of expansion space: 12
   Lowest Energy          :     0.030500066236
   Maximum Energy change  :     0.004246567009 (vector 2)
   Maximum residual norm  :     0.000074584162

                       ****Iteration    2****
   Time for densities:     8.987
   Time for K (COSX):  3057.546
   Time for XC-Integration:    36.117
   Time for Sigma-Completion:   283.881
   Size of expansion space: 15
   Lowest Energy          :     0.030378446891
   Maximum Energy change  :     0.001043666672 (vector 2)
   Maximum residual norm  :     0.000026120878
   Rebuilding the expansion space

                       ****Iteration    3****
   Time for densities:    14.854
   Time for K (COSX):  3098.158
   Time for XC-Integration:    69.604
   Time for Sigma-Completion:   569.888
   Size of expansion space: 6
   Lowest Energy          :     0.030375407183
   Maximum Energy change  :     0.000187525112 (vector 2)
   Maximum residual norm  :     0.000004234056

                       ****Iteration    4****
   Time for densities:     7.247
   Time for K (COSX):  3097.390
   Time for XC-Integration:    36.668
   Time for Sigma-Completion:   288.763
   Size of expansion space: 9
   Lowest Energy          :     0.030375251085
   Maximum Energy change  :     0.000059772827 (vector 2)
   Maximum residual norm  :     0.000001592130

                       ****Iteration    5****
   Time for densities:     7.112
   Time for K (COSX):  3088.186
   Time for XC-Integration:    37.334
   Time for Sigma-Completion:   288.148
   Size of expansion space: 12
   Lowest Energy          :     0.030375243323
   Maximum Energy change  :     0.000020808476 (vector 2)
   Maximum residual norm  :     0.000000415326

                       ****Iteration    6****
   Time for densities:     7.222
   Time for K (COSX):  3044.984
   Time for XC-Integration:    36.698
   Time for Sigma-Completion:   286.003
   Size of expansion space: 15
   Lowest Energy          :     0.030375243121
   Maximum Energy change  :     0.000002006962 (vector 2)
   Maximum residual norm  :     0.000000038688

      *** CONVERGENCE OF RESIDUAL NORM REACHED ***

Storing the converged CI vectors               ... Y15.cis3

                 *** DAVIDSON DONE ***

------------------------------------
TD-DFT/TDA EXCITED STATES (TRIPLETS)
------------------------------------

the weight of the individual excitations are printed if larger than 1.0e-02

STATE  1:  E=   0.030375 au      0.827 eV     6666.6 cm**-1
   278a -> 286a  :     0.012471 (c= -0.11167288)
   281a -> 283a  :     0.019231 (c=  0.13867686)
   281a -> 284a  :     0.032617 (c= -0.18060104)
   282a -> 283a  :     0.825328 (c= -0.90847556)
   282a -> 284a  :     0.028217 (c=  0.16797793)
   282a -> 286a  :     0.034163 (c= -0.18483121)

STATE  2:  E=   0.041116 au      1.119 eV     9024.0 cm**-1
   278a -> 284a  :     0.010682 (c=  0.10335469)
   281a -> 283a  :     0.490236 (c= -0.70016874)
   281a -> 284a  :     0.123069 (c=  0.35081220)
   282a -> 283a  :     0.057419 (c= -0.23962297)
   282a -> 284a  :     0.206943 (c= -0.45491008)
   282a -> 285a  :     0.033240 (c=  0.18231747)
   282a -> 286a  :     0.017748 (c= -0.13322093)

STATE  3:  E=   0.050013 au      1.361 eV    10976.7 cm**-1
   278a -> 283a  :     0.029023 (c= -0.17036029)
   279a -> 283a  :     0.039946 (c= -0.19986563)
   279a -> 284a  :     0.012101 (c=  0.11000536)
   280a -> 283a  :     0.031834 (c= -0.17842189)
   281a -> 283a  :     0.283706 (c=  0.53264018)
   281a -> 285a  :     0.030900 (c= -0.17578490)
   281a -> 286a  :     0.089054 (c=  0.29841959)
   282a -> 284a  :     0.309334 (c= -0.55617831)
   282a -> 285a  :     0.044849 (c=  0.21177662)
   282a -> 286a  :     0.049445 (c= -0.22236216)

------------------------------
TD-DFT/TDA SPIN-ORBIT COUPLING
------------------------------

Calculating the spin-orbit integrals:             

Loading the effective charges         ... done
Entering the SOC calc. section        ... 
------------------------------------------------------------------------------
                         ORCA SPIN-ORBIT COUPLING CALCULATION
------------------------------------------------------------------------------

GBW file                                    ... Y15.gbw
Input density                               ... Y15.cisp0
Output integrals                            ... Y15.cis
Operator type                               ... Mean-field/Effective potential
   One-Electron Terms                       ... 1
   Coulomb Contribution                     ... 2
   Exchange Contribution                    ... 3
   Correlation Contribution                 ... 0
   Maximum number of centers                ... 4
Setting up the integration grid             ... done
Evaluating density on the grid              ... (NumEl=  565.999079) done
Evaluating Coulomb term semi-analytically   ... done
One-Center Exchange (+SOO)                  ... done
Evaluating the spin-orbit operator          ... done
Transforming the SOC integrals              ... done
Constructing the SOC matrix:                ... done
Diagonalizing the SOC matrix:               ... done

      --------------------------------------------------------------------------------
                      CALCULATED SOCME BETWEEN TRIPLETS AND SINGLETS                  
      --------------------------------------------------------------------------------
           Root                          <T|HSO|S>  (Re, Im) cm-1                     
         T      S             Z                     X                     Y           
      --------------------------------------------------------------------------------
         1      0    (   0.00 ,    0.34 )    (   0.00 ,    2.51 )    (  -0.00 ,   -0.72 )
         1      1    (   0.00 ,    1.08 )    (   0.00 ,    0.67 )    (  -0.00 ,    0.68 )
         1      2    (   0.00 ,   -1.77 )    (   0.00 ,    1.28 )    (  -0.00 ,   -2.76 )
         1      3    (   0.00 ,   -6.34 )    (   0.00 ,    0.04 )    (  -0.00 ,   -4.74 )
         2      0    (   0.00 ,    9.13 )    (   0.00 ,    1.63 )    (  -0.00 ,    7.02 )
         2      1    (   0.00 ,    3.15 )    (   0.00 ,   -1.68 )    (  -0.00 ,    4.34 )
         2      2    (   0.00 ,   -2.82 )    (   0.00 ,    0.34 )    (  -0.00 ,   -1.74 )
         2      3    (   0.00 ,   -3.94 )    (   0.00 ,    0.10 )    (  -0.00 ,   -1.71 )
         3      0    (   0.00 ,  -10.98 )    (   0.00 ,   -0.49 )    (  -0.00 ,  -12.02 )
         3      1    (   0.00 ,    0.44 )    (   0.00 ,    1.38 )    (  -0.00 ,    0.64 )
         3      2    (   0.00 ,   -0.27 )    (   0.00 ,   -0.07 )    (  -0.00 ,   -0.51 )
         3      3    (   0.00 ,    0.68 )    (   0.00 ,    0.73 )    (  -0.00 ,   -1.87 )

SOC stabilization of the ground state:  -0.0402 cm-1
Eigenvalues of the SOC matrix:

   State:        cm-1         eV
     0:          0.00         0.0000
     1:       6666.62         0.8266
     2:       6666.62         0.8266
     3:       6666.63         0.8266
     4:       9024.05         1.1188
     5:       9024.06         1.1188
     6:       9024.07         1.1188
     7:      10976.72         1.3609
     8:      10976.72         1.3609
     9:      10976.73         1.3609
    10:      11660.87         1.4458
    11:      13195.25         1.6360
    12:      14999.18         1.8597

The threshold for printing is 0.0100
Eigenvectors of the SOC matrix:

             E(cm-1)  Weight      Real         Imag     : Root  Spin  Ms
 STATE  0:      0.00
                      1.00000     -0.99916     -0.04104 : 0     0     0
 STATE  1:   6666.62
                      0.50375      0.70776      0.05313 : 1     1     0
                      0.24812     -0.20120      0.45568 : 1     1    -1
                      0.24812      0.13092      0.48061 : 1     1     1
 STATE  2:   6666.62
                      0.26109     -0.11871      0.49699 : 1     1     0
                      0.36945      0.04058      0.60647 : 1     1    -1
                      0.36945      0.31028     -0.52267 : 1     1     1
 STATE  3:   6666.63
                      0.23515     -0.24700      0.41731 : 1     1     0
                      0.38242      0.61514     -0.06342 : 1     1    -1
                      0.38242      0.24037      0.56978 : 1     1     1
 STATE  4:   9024.05
                      0.09698     -0.02128     -0.31069 : 2     1     0
                      0.45151     -0.44030      0.50758 : 2     1    -1
                      0.45151     -0.50539     -0.44282 : 2     1     1
 STATE  5:   9024.06
                      0.53658     -0.51897     -0.51696 : 2     1     0
                      0.23171      0.44968     -0.17174 : 2     1    -1
                      0.23171      0.16999     -0.45035 : 2     1     1
 STATE  6:   9024.07
                      0.36644     -0.43999     -0.41574 : 2     1     0
                      0.31678     -0.54913     -0.12342 : 2     1    -1
                      0.31678      0.15431      0.54126 : 2     1     1
 STATE  7:  10976.72
                      0.49502     -0.70302      0.02813 : 3     1    -1
                      0.49502      0.70358      0.00000 : 3     1     1
 STATE  8:  10976.72
                      0.56514      0.10082      0.74497 : 3     1     0
                      0.21743     -0.44952      0.12394 : 3     1    -1
                      0.21743     -0.46629      0.00000 : 3     1     1
 STATE  9:  10976.73
                      0.42491     -0.04316      0.65042 : 3     1     0
                      0.28754      0.53153      0.07086 : 3     1    -1
                      0.28754      0.53623      0.00000 : 3     1     1
 STATE 10:  11660.87
                      0.99999     -0.42166     -0.90675 : 1     0     0
 STATE 11:  13195.25
                      1.00000     -0.99160     -0.12933 : 2     0     0
 STATE 12:  14999.18
                      1.00000     -0.93168      0.36328 : 3     0     0

-----------------------------
TD-DFT/TDA-EXCITATION SPECTRA
-----------------------------

Center of mass = ( 19.0194, -0.3959, -3.0307)
Calculating the Dipole integrals                  ... done
Transforming integrals                            ... done
Calculating the Linear Momentum integrals         ... done
Transforming integrals                            ... done
Calculating angular momentum integrals            ... done
Transforming integrals                            ... done

-----------------------------------------------------------------------------
         ABSORPTION SPECTRUM VIA TRANSITION ELECTRIC DIPOLE MOMENTS
-----------------------------------------------------------------------------
State   Energy    Wavelength  fosc         T2        TX        TY        TZ  
        (cm-1)      (nm)                 (au**2)    (au)      (au)      (au) 
-----------------------------------------------------------------------------
   1   11660.8    857.6   0.714748700  20.17902  -3.53040   1.93716   1.99065
   2   13195.2    757.9   0.132403686   3.30339   1.23793  -1.09463  -0.75678
   3   14999.1    666.7   0.360516306   7.91288  -2.76575   0.24971   0.44850
   4    6666.6   1500.0   spin forbidden (mult=3)
   5    9024.0   1108.2   spin forbidden (mult=3)
   6   10976.7    911.0   spin forbidden (mult=3)

-----------------------------------------------------------------------------
         ABSORPTION SPECTRUM VIA TRANSITION VELOCITY DIPOLE MOMENTS
-----------------------------------------------------------------------------
State   Energy    Wavelength   fosc        P2         PX        PY        PZ  
        (cm-1)      (nm)                 (au**2)     (au)      (au)      (au) 
-----------------------------------------------------------------------------
   1   11660.8    857.6   0.051178380   0.00408  -0.01179  -0.04217   0.04649
   2   13195.2    757.9   0.005159474   0.00047   0.01396  -0.00383   0.01599
   3   14999.1    666.7   0.126713004   0.01299  -0.03132  -0.10511  -0.03100
   4    6666.6   1500.0   spin forbidden (mult=3)
   5    9024.0   1108.2   spin forbidden (mult=3)
   6   10976.7    911.0   spin forbidden (mult=3)

-------------------------------------------------------------------
                             CD SPECTRUM
-------------------------------------------------------------------
State  Energy     Wavelength     R         MX        MY        MZ   
       (cm-1)       (nm)     (1e40*cgs)   (au)      (au)      (au)  
-------------------------------------------------------------------
   1   11660.8    857.6    -752.19689   0.48713  -0.41011   0.46151
   2   13195.2    757.9    -139.61468  -0.10784   0.15926  -0.01545
   3   14999.1    666.7     21.01835  -0.03005  -0.08013  -0.04127
   4    6666.6   1500.0 spin forbidden
   5    9024.0   1108.2 spin forbidden
   6   10976.7    911.0 spin forbidden

-------------------------------------------
SOC CORRECTED TD-DFT/TDA-EXCITATION SPECTRA
--------------------------------------------

-----------------------------------------------------------------------------
  SOC CORRECTED ABSORPTION SPECTRUM VIA TRANSITION ELECTRIC DIPOLE MOMENTS*  
-----------------------------------------------------------------------------
State   Energy  Wavelength   fosc         T2         TX        TY        TZ  
        (cm-1)    (nm)                  (au**2)     (au)      (au)      (au) 
-----------------------------------------------------------------------------
   1    6666.6   1500.0   0.000000000   0.00000   0.00009   0.00008   0.00004
   2    6666.6   1500.0   0.000000079   0.00000   0.00146   0.00012   0.00132
   3    6666.6   1500.0   0.000000562   0.00003   0.00460   0.00068   0.00248
   4    9024.1   1108.1   0.000002843   0.00010   0.00820   0.00445   0.00409
   5    9024.1   1108.1   0.000000004   0.00000   0.00002   0.00035   0.00011
   6    9024.1   1108.1   0.000001312   0.00005   0.00588   0.00293   0.00216
   7   10976.7    911.0   0.000003836   0.00012   0.00856   0.00434   0.00479
   8   10976.7    911.0   0.000000086   0.00000   0.00149   0.00027   0.00054
   9   10976.7    911.0   0.000000440   0.00001   0.00056   0.00202   0.00297
  10   11660.9    857.6   0.714747343  20.17889   3.53040   1.93715   1.99063
  11   13195.3    757.8   0.132408275   3.30349   1.23796   1.09463   0.75679
  12   14999.2    666.7   0.360508687   7.91268   2.76572   0.24970   0.44849

-----------------------------------------------------------------------------
  SOC CORRECTED ABSORPTION SPECTRUM VIA TRANSITION VELOCITY DIPOLE MOMENTS*  
-----------------------------------------------------------------------------
State   Energy  Wavelength   fosc         P2         PX        PY        PZ  
        (cm-1)    (nm)                  (au**2)     (au)      (au)      (au) 
-----------------------------------------------------------------------------
   1    6666.6   1500.0   0.000000008   0.00000   0.00000   0.00002   0.00001
   2    6666.6   1500.0   0.000000087   0.00000   0.00006   0.00003   0.00001
   3    6666.6   1500.0   0.000000234   0.00000   0.00008   0.00005   0.00003
   4    9024.1   1108.1   0.000000170   0.00000   0.00001   0.00003   0.00010
   5    9024.1   1108.1   0.000000019   0.00000   0.00001   0.00003   0.00001
   6    9024.1   1108.1   0.000000055   0.00000   0.00001   0.00002   0.00005
   7   10976.7    911.0   0.000000217   0.00000   0.00000   0.00011   0.00007
   8   10976.7    911.0   0.000000038   0.00000   0.00000   0.00005   0.00002
   9   10976.7    911.0   0.000000063   0.00000   0.00000   0.00002   0.00007
  10   11660.9    857.6   0.051177815   0.00408   0.01179   0.04217   0.04649
  11   13195.3    757.8   0.005159434   0.00047   0.01396   0.00383   0.01599
  12   14999.2    666.7   0.126711741   0.01299   0.03132   0.10511   0.03100

-------------------------------------------------------------------
                    SOC CORRECTED CD SPECTRUM*                     
-------------------------------------------------------------------
State   Energy Wavelength       R         MX        MY        MZ   
        (cm-1)   (nm)       (1e40*sgs)   (au)      (au)      (au)  
-------------------------------------------------------------------
   1    6666.6   1500.0      0.00000   0.00001   0.00002   0.00003
   2    6666.6   1500.0      0.00012   0.00018   0.00025   0.00041
   3    6666.6   1500.0      0.00000   0.00020   0.00035   0.00048
   4    9024.1   1108.1      0.00357   0.00095   0.00079   0.00092
   5    9024.1   1108.1      0.00000   0.00005   0.00003   0.00003
   6    9024.1   1108.1      0.00151   0.00050   0.00041   0.00044
   7   10976.7    911.0      0.00357   0.00098   0.00091   0.00099
   8   10976.7    911.0      0.00000   0.00000   0.00007   0.00003
   9   10976.7    911.0      0.00017   0.00058   0.00047   0.00056
  10   11660.9    857.6    752.19205   0.48712   0.41011   0.46151
  11   13195.3    757.8    139.61763   0.10784   0.15926   0.01545
  12   14999.2    666.7     21.01972   0.03005   0.08013   0.04128

*The X,Y and Z components are the absolute values of the complex numbers

Total run time:    79927.655 sec

           *** ORCA-CIS/TD-DFT FINISHED WITHOUT ERROR ***

---------------------------
SOC CIS/TD-DFT TOTAL ENERGY
---------------------------

    E(SCF)        =  -6151.760478700 Eh
    E(SOC CIS)    =      0.030375177 Eh (SOC Root  1)
    ----------------------------- ---------
    E(tot)        =  -6151.730103523 Eh


-------------------------   --------------------
FINAL SINGLE POINT ENERGY     -6151.730103522782
-------------------------   --------------------


                            ***************************************
                            *     ORCA property calculations      *
                            ***************************************

                                    ---------------------
                                    Active property flags
                                    ---------------------
   (+) Dipole Moment


------------------------------------------------------------------------------
                       ORCA ELECTRIC PROPERTIES CALCULATION
------------------------------------------------------------------------------

Dipole Moment Calculation                       ... on
Quadrupole Moment Calculation                   ... off
Polarizability Calculation                      ... off
GBWName                                         ... Y15.gbw
Electron density file                           ... Y15.scfp
The origin for moment calculation is the CENTER OF MASS  = (19.019427, -0.395932 -3.030733)

-------------
DIPOLE MOMENT
-------------
                                X             Y             Z
Electronic contribution:    -58.24719      13.87955      -3.18333
Nuclear contribution   :     59.53947      -9.36795       3.86053
                        -----------------------------------------
Total Dipole Moment    :      1.29228       4.51161       0.67721
                        -----------------------------------------
Magnitude (a.u.)       :      4.74164
Magnitude (Debye)      :     12.05230



--------------------
Rotational spectrum 
--------------------
 
Rotational constants in cm-1:     0.001601     0.000363     0.000315 
Rotational constants in MHz :    47.996926    10.894608     9.453128 

 Dipole components along the rotational axes: 
x,y,z [a.u.] :     1.343070     4.546651    -0.085416 
x,y,z [Debye]:     3.413812    11.556669    -0.217111 

 

Timings for individual modules:

Sum of individual times         ...   103901.790 sec (=1731.696 min)
GTO integral calculation        ...        7.622 sec (=   0.127 min)   0.0 %
SCF iterations                  ...    23966.339 sec (= 399.439 min)  23.1 %
CIS module                      ...    79927.829 sec (=1332.130 min)  76.9 %
                             ****ORCA TERMINATED NORMALLY****
TOTAL RUN TIME: 1 days 4 hours 51 minutes 43 seconds 395 msec
