
                                 *****************
                                 * O   R   C   A *
                                 *****************

           --- An Ab Initio, DFT and Semiempirical electronic structure package ---

                  #######################################################
                  #                        -***-                        #
                  #          Department of theory and spectroscopy      #
                  #               Directorship: Frank Neese             #
                  #        Max Planck Institute fuer Kohlenforschung    #
                  #                Kaiser Wilhelm Platz 1               #
                  #                 D-45470 Muelheim/Ruhr               #
                  #                      Germany                        #
                  #                                                     #
                  #                  All rights reserved                #
                  #                        -***-                        #
                  #######################################################


                         Program Version 4.2.0 -  RELEASE  -


 With contributions from (in alphabetic order):
   Daniel Aravena         : Magnetic Suceptibility
   Michael Atanasov       : Ab Initio Ligand Field Theory (pilot matlab implementation)
   Alexander A. Auer      : GIAO ZORA, VPT2
   Ute Becker             : Parallelization
   Giovanni Bistoni       : ED, misc. LED, open-shell LED, HFLED
   Martin Brehm           : Molecular dynamics
   Dmytro Bykov           : SCF Hessian
   Vijay G. Chilkuri      : MRCI spin determinant printing, contributions to CSF-ICE
   Dipayan Datta          : RHF DLPNO-CCSD density
   Achintya Kumar Dutta   : EOM-CC, STEOM-CC
   Dmitry Ganyushin       : Spin-Orbit,Spin-Spin,Magnetic field MRCI
   Miquel Garcia          : C-PCM Hessian, Gaussian charge scheme
   Yang Guo               : DLPNO-NEVPT2, CIM, IAO-localization
   Andreas Hansen         : Spin unrestricted coupled pair/coupled cluster methods
   Benjamin Helmich-Paris : CASSCF linear response (MC-RPA)
   Lee Huntington         : MR-EOM, pCC
   Robert Izsak           : Overlap fitted RIJCOSX, COSX-SCS-MP3, EOM
   Christian Kollmar      : KDIIS, OOCD, Brueckner-CCSD(T), CCSD density
   Simone Kossmann        : Meta GGA functionals, TD-DFT gradient, OOMP2, MP2 Hessian
   Martin Krupicka        : AUTO-CI
   Lucas Lang             : DCDCAS
   Dagmar Lenk            : GEPOL surface, SMD
   Dimitrios Liakos       : Extrapolation schemes; Compound Job, initial MDCI parallelization
   Dimitrios Manganas     : Further ROCIS development; embedding schemes
   Dimitrios Pantazis     : SARC Basis sets
   Taras Petrenko         : DFT Hessian,TD-DFT gradient, ASA, ECA, R-Raman, ABS, FL, XAS/XES, NRVS
   Peter Pinski           : DLPNO-MP2, DLPNO-MP2 Gradient
   Christoph Reimann      : Effective Core Potentials
   Marius Retegan         : Local ZFS, SOC
   Christoph Riplinger    : Optimizer, TS searches, QM/MM, DLPNO-CCSD(T), (RO)-DLPNO pert. Triples
   Tobias Risthaus        : Range-separated hybrids, TD-DFT gradient, RPA, STAB
   Michael Roemelt        : Original ROCIS implementation
   Masaaki Saitow         : Open-shell DLPNO-CCSD energy and density
   Barbara Sandhoefer     : DKH picture change effects
   Avijit Sen             : IP-ROCIS
   Kantharuban Sivalingam : CASSCF convergence, NEVPT2, FIC-MRCI
   Bernardo de Souza      : ESD, SOC TD-DFT
   Georgi Stoychev        : AutoAux, RI-MP2 NMR
   Willem Van den Heuvel  : Paramagnetic NMR
   Boris Wezisla          : Elementary symmetry handling
   Frank Wennmohs         : Technical directorship


 We gratefully acknowledge several colleagues who have allowed us to
 interface, adapt or use parts of their codes:
   Stefan Grimme, W. Hujo, H. Kruse,             : VdW corrections, initial TS optimization,
                  C. Bannwarth                     DFT functionals, gCP, sTDA/sTD-DF
   Ed Valeev, F. Pavosevic, A. Kumar             : LibInt (2-el integral package), F12 methods
   Garnet Chan, S. Sharma, J. Yang, R. Olivares  : DMRG
   Ulf Ekstrom                                   : XCFun DFT Library
   Mihaly Kallay                                 : mrcc  (arbitrary order and MRCC methods)
   Andreas Klamt, Michael Diedenhofen            : otool_cosmo (COSMO solvation model)
   Jiri Pittner, Ondrej Demel                    : Mk-CCSD
   Frank Weinhold                                : gennbo (NPA and NBO analysis)
   Christopher J. Cramer and Donald G. Truhlar   : smd solvation model
   Lars Goerigk                                  : TD-DFT with DH, B97 family of functionals
   V. Asgeirsson, H. Jonsson                     : NEB implementation
   FAccTs GmbH                                   : IRC, NEB, NEB-TS, Multilevel, MM, QM/MM, CI optimization
   S Lehtola, MJT Oliveira, MAL Marques          : LibXC Library


 Your calculation uses the libint2 library for the computation of 2-el integrals
 For citations please refer to: http://libint.valeyev.net

 Your ORCA version has been built with support for libXC version: 4.2.3
 For citations please refer to: https://tddft.org/programs/libxc/

 This ORCA versions uses:
   CBLAS   interface :  Fast vector & matrix operations
   LAPACKE interface :  Fast linear algebra routines
   SCALAPACK package :  Parallel linear algebra routines


----- Orbital basis set information -----
Your calculation utilizes the basis: def2-TZVP
   F. Weigend and R. Ahlrichs, Phys. Chem. Chem. Phys. 7, 3297 (2005).

----- AuxJ basis set information -----
Your calculation utilizes the auxiliary basis: def2/J
   F. Weigend, Phys. Chem. Chem. Phys. 8, 1057 (2006).

================================================================================
                                        WARNINGS
                       Please study these warnings very carefully!
================================================================================

INFO   : Checking CIS options ...

WARNING: (CIS/TDDFT): Spin-orbit needs TRIPLETS set to TRUE
  ===> : ajusting flags

WARNING: CIS/ROCIS methods need fully converged wavefunctions
  ===> : Setting SCFConvForced true
         You can overwrite this default with %scf ConvForced false 


INFO   : the flag for use of LIBINT has been found!

================================================================================
                                       INPUT FILE
================================================================================
NAME = Y2.inp
|  1> # ORCA input file
|  2> # Y2.out: Geometry 28
|  3> ! B3LYP def2-TZVP def2/J RIJCOSX Grid4 TightSCF
|  4> 
|  5> %maxcore 6000
|  6> %tddft
|  7>   maxdim 5
|  8>   nroots 3
|  9>   dosoc true
| 10>   end
| 11> %pal
| 12>   nprocs 6
| 13>   end
| 14> 
| 15> 
| 16> * xyz 0 1
| 17>    C        4.82402         1.98656        -0.92646
| 18>    O        5.93157         2.44528        -1.11345
| 19>    C        3.50424         2.60185        -1.20098
| 20>    C        3.03899         3.77639        -1.72452
| 21>    S        1.30401         3.78766        -1.71473
| 22>    C        1.20542         2.21048        -0.99684
| 23>    C        2.46596         1.69954        -0.78609
| 24>    C        3.07311         0.49685        -0.18881
| 25>    C        2.37557        -0.42636         0.57687
| 26>    C        0.94906        -0.38913         0.63306
| 27>    N       -0.21277        -0.34731         0.64076
| 28>    C        3.01685        -1.36752         1.43036
| 29>    N        3.54610        -2.11701         2.14453
| 30>    C        4.50856         0.60184        -0.40176
| 31>    C        5.57251        -0.27015        -0.33522
| 32>    C        5.69257        -1.68066        -0.29603
| 33>    S        7.32394        -2.32501        -0.02106
| 34>    C        6.77173        -3.94168        -0.27235
| 35>    C        5.38497        -3.97412        -0.56491
| 36>    C        4.78187        -2.70962        -0.57000
| 37>    S        4.78321        -5.60825        -0.85365
| 38>    C        6.39462        -6.23078        -0.58361
| 39>    C        7.33423        -5.23362        -0.28771
| 40>    N        8.57418        -5.79974        -0.06737
| 41>    C        9.62517        -4.98029         0.52995
| 42>    C       10.38743        -4.12056        -0.47647
| 43>    C        8.45533        -7.18761        -0.24949
| 44>    C        7.07350        -7.46516        -0.54987
| 45>    C        6.62692        -8.80727        -0.71827
| 46>    N        5.40019        -9.31456        -0.91895
| 47>    N        5.61568       -10.62511        -0.96163
| 48>    C        4.51178       -11.57607        -1.00298
| 49>    C        4.06414       -11.98959         0.39837
| 50>    N        6.87003       -11.03008        -0.79492
| 51>    C        7.54799        -9.88213        -0.63965
| 52>    C        8.93421        -9.62480        -0.43260
| 53>    C        9.40374        -8.27451        -0.23285
| 54>    N       10.79970        -8.33221        -0.11955
| 55>    C       11.80712        -7.30630         0.11551
| 56>    C       12.19492        -7.17422         1.58861
| 57>    C       11.18943        -9.65150        -0.22772
| 58>    C       10.06374       -10.46589        -0.42224
| 59>    S       10.46042       -12.15522        -0.64094
| 60>    C       12.17279       -11.75094        -0.46631
| 61>    C       12.40399       -10.37043        -0.24653
| 62>    S       14.09321        -9.99782        -0.09481
| 63>    C       14.51200       -11.70908        -0.34114
| 64>    C       13.35317       -12.49382        -0.51560
| 65>    C       15.79669       -12.30486        -0.40306
| 66>    C       17.08566       -11.82324        -0.28716
| 67>    C       18.31204       -12.62505        -0.38435
| 68>    C       18.46598       -13.96805        -0.68470
| 69>    C       19.76562       -14.55910        -0.72984
| 70>    N       20.82803       -15.02932        -0.76438
| 71>    C       17.39238       -14.85792        -0.99069
| 72>    N       16.53854       -15.60410        -1.24841
| 73>    C       19.43620       -11.71295        -0.12291
| 74>    C       20.80839       -11.77911        -0.02666
| 75>    S       21.46799       -10.20685         0.30083
| 76>    C       19.90529        -9.45292         0.31391
| 77>    C       18.93350       -10.38528         0.07847
| 78>    C       17.45720       -10.40278        -0.01948
| 79>    O       16.69822        -9.45517         0.09585
| 80>    H        3.60569         4.62486        -2.10415
| 81>    H        0.23592         1.77103        -0.77453
| 82>    H        6.52634         0.26576        -0.43834
| 83>    H        3.73900        -2.52298        -0.81725
| 84>    H       10.29075        -5.62653         1.10558
| 85>    H        9.13728        -4.32868         1.27261
| 86>    H       11.15107        -3.52325         0.04603
| 87>    H        9.71249        -3.42399        -0.99588
| 88>    H       10.88487        -4.72861        -1.24660
| 89>    H        4.86403       -12.44151        -1.58100
| 90>    H        3.70126       -11.08404        -1.55717
| 91>    H        4.89705       -12.45529         0.94656
| 92>    H        3.24009       -12.71665         0.33577
| 93>    H        3.71131       -11.11593         0.96696
| 94>    H       11.45845        -6.36579        -0.31311
| 95>    H       12.69158        -7.58469        -0.47761
| 96>    H       11.31589        -6.98464         2.22341
| 97>    H       12.91133        -6.35063         1.73053
| 98>    H       12.67079        -8.09849         1.94771
| 99>    H       13.41523       -13.56895        -0.69066
|100>    H       15.71096       -13.37685        -0.58849
|101>    H       21.46940       -12.63604        -0.13228
|102>    H       19.79391        -8.38630         0.50150
|103> *
|104> 
|105>                          ****END OF INPUT****
================================================================================

                       ****************************
                       * Single Point Calculation *
                       ****************************

---------------------------------
CARTESIAN COORDINATES (ANGSTROEM)
---------------------------------
  C      4.824020    1.986560   -0.926460
  O      5.931570    2.445280   -1.113450
  C      3.504240    2.601850   -1.200980
  C      3.038990    3.776390   -1.724520
  S      1.304010    3.787660   -1.714730
  C      1.205420    2.210480   -0.996840
  C      2.465960    1.699540   -0.786090
  C      3.073110    0.496850   -0.188810
  C      2.375570   -0.426360    0.576870
  C      0.949060   -0.389130    0.633060
  N     -0.212770   -0.347310    0.640760
  C      3.016850   -1.367520    1.430360
  N      3.546100   -2.117010    2.144530
  C      4.508560    0.601840   -0.401760
  C      5.572510   -0.270150   -0.335220
  C      5.692570   -1.680660   -0.296030
  S      7.323940   -2.325010   -0.021060
  C      6.771730   -3.941680   -0.272350
  C      5.384970   -3.974120   -0.564910
  C      4.781870   -2.709620   -0.570000
  S      4.783210   -5.608250   -0.853650
  C      6.394620   -6.230780   -0.583610
  C      7.334230   -5.233620   -0.287710
  N      8.574180   -5.799740   -0.067370
  C      9.625170   -4.980290    0.529950
  C     10.387430   -4.120560   -0.476470
  C      8.455330   -7.187610   -0.249490
  C      7.073500   -7.465160   -0.549870
  C      6.626920   -8.807270   -0.718270
  N      5.400190   -9.314560   -0.918950
  N      5.615680  -10.625110   -0.961630
  C      4.511780  -11.576070   -1.002980
  C      4.064140  -11.989590    0.398370
  N      6.870030  -11.030080   -0.794920
  C      7.547990   -9.882130   -0.639650
  C      8.934210   -9.624800   -0.432600
  C      9.403740   -8.274510   -0.232850
  N     10.799700   -8.332210   -0.119550
  C     11.807120   -7.306300    0.115510
  C     12.194920   -7.174220    1.588610
  C     11.189430   -9.651500   -0.227720
  C     10.063740  -10.465890   -0.422240
  S     10.460420  -12.155220   -0.640940
  C     12.172790  -11.750940   -0.466310
  C     12.403990  -10.370430   -0.246530
  S     14.093210   -9.997820   -0.094810
  C     14.512000  -11.709080   -0.341140
  C     13.353170  -12.493820   -0.515600
  C     15.796690  -12.304860   -0.403060
  C     17.085660  -11.823240   -0.287160
  C     18.312040  -12.625050   -0.384350
  C     18.465980  -13.968050   -0.684700
  C     19.765620  -14.559100   -0.729840
  N     20.828030  -15.029320   -0.764380
  C     17.392380  -14.857920   -0.990690
  N     16.538540  -15.604100   -1.248410
  C     19.436200  -11.712950   -0.122910
  C     20.808390  -11.779110   -0.026660
  S     21.467990  -10.206850    0.300830
  C     19.905290   -9.452920    0.313910
  C     18.933500  -10.385280    0.078470
  C     17.457200  -10.402780   -0.019480
  O     16.698220   -9.455170    0.095850
  H      3.605690    4.624860   -2.104150
  H      0.235920    1.771030   -0.774530
  H      6.526340    0.265760   -0.438340
  H      3.739000   -2.522980   -0.817250
  H     10.290750   -5.626530    1.105580
  H      9.137280   -4.328680    1.272610
  H     11.151070   -3.523250    0.046030
  H      9.712490   -3.423990   -0.995880
  H     10.884870   -4.728610   -1.246600
  H      4.864030  -12.441510   -1.581000
  H      3.701260  -11.084040   -1.557170
  H      4.897050  -12.455290    0.946560
  H      3.240090  -12.716650    0.335770
  H      3.711310  -11.115930    0.966960
  H     11.458450   -6.365790   -0.313110
  H     12.691580   -7.584690   -0.477610
  H     11.315890   -6.984640    2.223410
  H     12.911330   -6.350630    1.730530
  H     12.670790   -8.098490    1.947710
  H     13.415230  -13.568950   -0.690660
  H     15.710960  -13.376850   -0.588490
  H     21.469400  -12.636040   -0.132280
  H     19.793910   -8.386300    0.501500

----------------------------
CARTESIAN COORDINATES (A.U.)
----------------------------
  NO LB      ZA    FRAG     MASS         X           Y           Z
   0 C     6.0000    0    12.011    9.116077    3.754054   -1.750756
   1 O     8.0000    0    15.999   11.209043    4.620910   -2.104116
   2 C     6.0000    0    12.011    6.622054    4.916784   -2.269523
   3 C     6.0000    0    12.011    5.742859    7.136343   -3.258871
   4 S    16.0000    0    32.060    2.464222    7.157640   -3.240370
   5 C     6.0000    0    12.011    2.277914    4.177202   -1.883755
   6 C     6.0000    0    12.011    4.659989    3.211665   -1.485495
   7 C     6.0000    0    12.011    5.807336    0.938910   -0.356799
   8 C     6.0000    0    12.011    4.489177   -0.805704    1.090126
   9 C     6.0000    0    12.011    1.793463   -0.735349    1.196310
  10 N     7.0000    0    14.007   -0.402077   -0.656321    1.210861
  11 C     6.0000    0    12.011    5.701020   -2.584238    2.702989
  12 N     7.0000    0    14.007    6.701158   -4.000569    4.052574
  13 C     6.0000    0    12.011    8.519944    1.137313   -0.759216
  14 C     6.0000    0    12.011   10.530518   -0.510510   -0.633474
  15 C     6.0000    0    12.011   10.757398   -3.175987   -0.559416
  16 S    16.0000    0    32.060   13.840241   -4.393632   -0.039798
  17 C     6.0000    0    12.011   12.796715   -7.448696   -0.514667
  18 C     6.0000    0    12.011   10.176119   -7.509998   -1.067525
  19 C     6.0000    0    12.011    9.036425   -5.120440   -1.077144
  20 S    16.0000    0    32.060    9.038957  -10.598057   -1.613165
  21 C     6.0000    0    12.011   12.084081  -11.774468   -1.102863
  22 C     6.0000    0    12.011   13.859686   -9.890108   -0.543693
  23 N     7.0000    0    14.007   16.202852  -10.959920   -0.127311
  24 C     6.0000    0    12.011   18.188935   -9.411384    1.001460
  25 C     6.0000    0    12.011   19.629398   -7.786730   -0.900398
  26 C     6.0000    0    12.011   15.978258  -13.582614   -0.471468
  27 C     6.0000    0    12.011   13.366978  -14.107108   -1.039104
  28 C     6.0000    0    12.011   12.523064  -16.643328   -1.357334
  29 N     7.0000    0    14.007   10.204880  -17.601967   -1.736564
  30 N     7.0000    0    14.007   10.612097  -20.078548   -1.817217
  31 C     6.0000    0    12.011    8.526029  -21.875602   -1.895358
  32 C     6.0000    0    12.011    7.680112  -22.657042    0.752810
  33 N     7.0000    0    14.007   12.982475  -20.843830   -1.502181
  34 C     6.0000    0    12.011   14.263634  -18.674519   -1.208763
  35 C     6.0000    0    12.011   16.883210  -18.188236   -0.817496
  36 C     6.0000    0    12.011   17.770493  -15.636558   -0.440023
  37 N     7.0000    0    14.007   20.408475  -15.745595   -0.225917
  38 C     6.0000    0    12.011   22.312223  -13.806906    0.218282
  39 C     6.0000    0    12.011   23.045059  -13.557311    3.002038
  40 C     6.0000    0    12.011   21.144958  -18.238692   -0.430328
  41 C     6.0000    0    12.011   19.017712  -19.777666   -0.797918
  42 S    16.0000    0    32.060   19.767329  -22.970037   -1.211201
  43 C     6.0000    0    12.011   23.003239  -22.206058   -0.881198
  44 C     6.0000    0    12.011   23.440144  -19.597273   -0.465874
  45 S    16.0000    0    32.060   26.632307  -18.893142   -0.179165
  46 C     6.0000    0    12.011   27.423706  -22.126954   -0.644661
  47 C     6.0000    0    12.011   25.233834  -23.609898   -0.974343
  48 C     6.0000    0    12.011   29.851418  -23.252816   -0.761673
  49 C     6.0000    0    12.011   32.287218  -22.342686   -0.542654
  50 C     6.0000    0    12.011   34.604741  -23.857887   -0.726316
  51 C     6.0000    0    12.011   34.895645  -26.395789   -1.293895
  52 C     6.0000    0    12.011   37.351609  -27.512712   -1.379198
  53 N     7.0000    0    14.007   39.359273  -28.401299   -1.444469
  54 C     6.0000    0    12.011   32.866835  -28.077400   -1.872133
  55 N     7.0000    0    14.007   31.253311  -29.487476   -2.359153
  56 C     6.0000    0    12.011   36.729095  -22.134268   -0.232266
  57 C     6.0000    0    12.011   39.322158  -22.259292   -0.050380
  58 S    16.0000    0    32.060   40.568622  -19.288151    0.568486
  59 C     6.0000    0    12.011   37.615547  -17.863430    0.593204
  60 C     6.0000    0    12.011   35.779130  -19.625335    0.148287
  61 C     6.0000    0    12.011   32.989327  -19.658405   -0.036812
  62 O     8.0000    0    15.999   31.555063  -17.867682    0.181130
  63 H     1.0000    0     1.008    6.813767    8.739719   -3.976267
  64 H     1.0000    0     1.008    0.445824    3.346762   -1.463650
  65 H     1.0000    0     1.008   12.332995    0.502214   -0.828343
  66 H     1.0000    0     1.008    7.065686   -4.767741   -1.544379
  67 H     1.0000    0     1.008   19.446699  -10.632601    2.089243
  68 H     1.0000    0     1.008   17.266957   -8.180020    2.404884
  69 H     1.0000    0     1.008   21.072468   -6.657978    0.086984
  70 H     1.0000    0     1.008   18.353946   -6.470403   -1.881940
  71 H     1.0000    0     1.008   20.569423   -8.935778   -2.355733
  72 H     1.0000    0     1.008    9.191685  -23.511047   -2.987657
  73 H     1.0000    0     1.008    6.994368  -20.945800   -2.942625
  74 H     1.0000    0     1.008    9.254083  -23.537087    1.788739
  75 H     1.0000    0     1.008    6.122883  -24.030986    0.634513
  76 H     1.0000    0     1.008    7.013359  -21.006063    1.827290
  77 H     1.0000    0     1.008   21.653332  -12.029600   -0.591692
  78 H     1.0000    0     1.008   23.983610  -14.332987   -0.902552
  79 H     1.0000    0     1.008   21.383933  -13.199057    4.201636
  80 H     1.0000    0     1.008   24.398878  -12.000951    3.270228
  81 H     1.0000    0     1.008   23.944323  -15.303928    3.680638
  82 H     1.0000    0     1.008   25.351111  -25.641599   -1.305158
  83 H     1.0000    0     1.008   29.689412  -25.278583   -1.112085
  84 H     1.0000    0     1.008   40.571286  -23.878655   -0.249973
  85 H     1.0000    0     1.008   37.405069  -15.847810    0.947698

--------------------------------
INTERNAL COORDINATES (ANGSTROEM)
--------------------------------
 C      0   0   0     0.000000000000     0.00000000     0.00000000
 O      1   0   0     1.213283273189     0.00000000     0.00000000
 C      1   2   0     1.481810467941   128.86548583     0.00000000
 C      3   1   2     1.367514499265   136.93451048     0.95113037
 S      4   3   1     1.735044223471   110.09769446   180.48924598
 C      5   4   3     1.735679346135    93.05137074     0.26190128
 C      6   5   4     1.376385243200   110.40350952   359.56714041
 C      7   6   5     1.473715629625   137.92916071   176.75667443
 C      8   7   6     1.387495808318   124.02454562   348.55022674
 C      9   8   7     1.428101596211   120.43359539    11.48754589
 N     10   9   8     1.162607909529   178.04090678    35.06456794
 C      9   8   7     1.423189152608   122.98575712   197.30249281
 N     12   9   8     1.162703578519   178.70488923    73.88983831
 C      8   7   6     1.454952681396   106.75350827   176.45916751
 C     14   8   7     1.377237718842   135.18693968   195.58571459
 C     15  14   8     1.416152788297   134.22294960    15.35031274
 S     16  15  14     1.775433327472   116.33796466   186.83786253
 C     17  16  15     1.726761256544    91.34096958   186.02898392
 C     18  17  16     1.417655460540   111.36339931     0.37256712
 C     19  18  17     1.400969581433   113.65332875   359.36059648
 S     19  18  17     1.765181787267   112.85601981   179.11934868
 C     21  19  18     1.748458575603    89.43640789   359.87294639
 C     22  21  19     1.401696053965   113.39762457     0.06613539
 N     23  22  21     1.380767023252   110.11990675   179.07782027
 C     24  23  22     1.460434683579   118.78105202   192.87415919
 C     25  24  23     1.527434842113   113.92027491   275.94525686
 C     24  23  22     1.404804667489   107.96279162     1.27780762
 C     22  21  19     1.409152378701   139.42778269   178.91369220
 C     28  22  21     1.424447790725   132.18062721   358.34821059
 N     29  28  22     1.342565491661   131.31076239   357.42351628
 N     30  29  28     1.328833633304   103.25467866   181.63627019
 C     31  30  29     1.457611043489   121.43503410   172.38099198
 C     32  31  30     1.528123745807   111.86252853   270.30988336
 N     31  30  29     1.328603344682   116.72356644     0.61782774
 C     34  31  30     1.342210019706   103.33827742   359.42023595
 C     35  34  31     1.425024322529   131.49883809   180.57245397
 C     27  24  23     1.442605291721   133.41128617   175.81616147
 N     37  27  24     1.401738385577   133.36663869   354.83929769
 C     38  37  27     1.456928134158   132.27374011     4.86076114
 C     39  38  37     1.529005420657   113.05684383    95.34759187
 C     38  37  27     1.379897215701   108.31789129   182.81884568
 C     41  38  37     1.402942293396   109.83065456     0.46447873
 S     42  41  38     1.749005592129   113.33063768   177.50554808
 C     43  42  41     1.768091901514    89.22382362     0.00000000
 C     41  38  37     1.411513427000   136.97295938   177.30869740
 S     45  41  38     1.736468075981   136.60188094     2.34696062
 C     46  45  41     1.778896939286    90.60139770   181.60039025
 C     44  43  42     1.395563378317   133.94352496   181.19279689
 C     47  46  45     1.417468268040   128.59044851   178.01523774
 C     49  47  46     1.380881709380   134.08621138     0.97813514
 C     50  49  47     1.468452612991   125.70187283   179.98290432
 C     51  50  49     1.384758695983   129.55026121     4.42915807
 C     52  51  50     1.428440356368   120.61674674   179.90321557
 N     53  52  51     1.162331651509   179.40928910   357.02951130
 C     52  51  50     1.427625811268   124.57005686     1.03601678
 N     55  52  51     1.162861529332   178.47816031   170.30614887
 C     51  50  49     1.471058458798   106.73203472   183.18444645
 C     57  51  50     1.377151627164   138.07888627   178.28829027
 S     58  57  51     1.736180684059   110.37869179   179.24564105
 C     59  58  57     1.735111760464    93.02362186     0.12092800
 C     60  59  58     1.367151406136   110.03279687     0.14234166
 C     61  60  59     1.479649330923   136.77506414   179.08078135
 O     62  61  60     1.219555804955   127.26357874     0.69029183
 H      4   3   1     1.088654751425   128.74072195     0.10175644
 H      6   5   4     1.087413577532   120.16026101   179.21299168
 H     15  14   8     1.098919893077   110.93015252   188.02892150
 H     20  19  18     1.087908492935   124.63443596   177.04163300
 H     25  24  23     1.091775055082   108.79810672   150.08074658
 H     25  24  23     1.101896601229   106.78795517    36.83646424
 H     26  25  24     1.101331710113   109.79760952   179.25251493
 H     26  25  24     1.100245661932   111.17796988    60.03078665
 H     26  25  24     1.100123435347   112.07421356   299.98978626
 H     32  31  30     1.098714510917   106.61947760   148.42757170
 H     32  31  30     1.098254409233   106.31673947    32.34131703
 H     33  32  31     1.100512532505   110.46319344   300.50819237
 H     33  32  31     1.100724037214   110.23632980   180.74793193
 H     33  32  31     1.100484162812   110.66461588    60.98465178
 H     39  38  37     1.090800134488   108.82741610   329.37514801
 H     39  38  37     1.100709688383   106.89308535   216.16241809
 H     40  39  38     1.100729465991   111.58953965   304.28776984
 H     40  39  38     1.100765671067   110.72695587   183.37665506
 H     40  39  38     1.099854581206   110.59158065    63.99607730
 H     48  44  43     1.091055435851   125.33266200     0.02480962
 H     49  47  46     1.091282034077   110.43257528   181.32064185
 H     58  57  51     1.087390835624   129.55116222   359.73798663
 H     60  59  58     1.088702777116   121.27449909   179.50189378

---------------------------
INTERNAL COORDINATES (A.U.)
---------------------------
 C      0   0   0     0.000000000000     0.00000000     0.00000000
 O      1   0   0     2.292773109195     0.00000000     0.00000000
 C      1   2   0     2.800215966786   128.86548583     0.00000000
 C      3   1   2     2.584227887777   136.93451048     0.95113037
 S      4   3   1     3.278758412602   110.09769446   180.48924598
 C      5   4   3     3.279958620499    93.05137074     0.26190128
 C      6   5   4     2.600991164419   110.40350952   359.56714041
 C      7   6   5     2.784918939270   137.92916071   176.75667443
 C      8   7   6     2.621987089685   124.02454562   348.55022674
 C      9   8   7     2.698720908254   120.43359539    11.48754589
 N     10   9   8     2.197010550141   178.04090678    35.06456794
 C      9   8   7     2.689437735196   122.98575712   197.30249281
 N     12   9   8     2.197191338330   178.70488923    73.88983831
 C      8   7   6     2.749462105652   106.75350827   176.45916751
 C     14   8   7     2.602602109917   135.18693968   195.58571459
 C     15  14   8     2.676140933669   134.22294960    15.35031274
 S     16  15  14     3.355082757960   116.33796466   186.83786253
 C     17  16  15     3.263105873533    91.34096958   186.02898392
 C     18  17  16     2.678980572679   111.36339931     0.37256712
 C     19  18  17     2.647448830862   113.65332875   359.36059648
 S     19  18  17     3.335710154521   112.85601981   179.11934868
 C     21  19  18     3.304107864396    89.43640789   359.87294639
 C     22  21  19     2.648821664991   113.39762457     0.06613539
 N     23  22  21     2.609271528696   110.11990675   179.07782027
 C     24  23  22     2.759821588444   118.78105202   192.87415919
 C     25  24  23     2.886433539002   113.92027491   275.94525686
 C     24  23  22     2.654696093209   107.96279162     1.27780762
 C     22  21  19     2.662912076709   139.42778269   178.91369220
 C     28  22  21     2.691816216539   132.18062721   358.34821059
 N     29  28  22     2.537081096093   131.31076239   357.42351628
 N     30  29  28     2.511131644488   103.25467866   181.63627019
 C     31  30  29     2.754485681973   121.43503410   172.38099198
 C     32  31  30     2.887735378318   111.86252853   270.30988336
 N     31  30  29     2.510696462061   116.72356644     0.61782774
 C     34  31  30     2.536409351450   103.33827742   359.42023595
 C     35  34  31     2.692905703757   131.49883809   180.57245397
 C     27  24  23     2.726128920697   133.41128617   175.81616147
 N     37  27  24     2.648901660145   133.36663869   354.83929769
 C     38  37  27     2.753195170363   132.27374011     4.86076114
 C     39  38  37     2.889401502324   113.05684383    95.34759187
 C     38  37  27     2.607627830636   108.31789129   182.81884568
 C     41  38  37     2.651176716214   109.83065456     0.46447873
 S     42  41  38     3.305141575821   113.33063768   177.50554808
 C     43  42  41     3.341209473466    89.22382362     0.00000000
 C     41  38  37     2.667373811382   136.97295938   177.30869740
 S     45  41  38     3.281449103901   136.60188094     2.34696062
 C     46  45  41     3.361628035721    90.60139770   181.60039025
 C     44  43  42     2.637232587549   133.94352496   181.19279689
 C     47  46  45     2.678626830119   128.59044851   178.01523774
 C     49  47  46     2.609488254069   134.08621138     0.97813514
 C     50  49  47     2.774973279194   125.70187283   179.98290432
 C     51  50  49     2.616814696973   129.55026121     4.42915807
 C     52  51  50     2.699361072176   120.61674674   179.90321557
 N     53  52  51     2.196488498141   179.40928910   357.02951130
 C     52  51  50     2.697821805015   124.57005686     1.03601678
 N     55  52  51     2.197489822110   178.47816031   170.30614887
 C     51  50  49     2.779897614116   106.73203472   183.18444645
 C     57  51  50     2.602439420224   138.07888627   178.28829027
 S     58  57  51     3.280906011876   110.37869179   179.24564105
 C     59  58  57     3.278886039023    93.02362186     0.12092800
 C     60  59  58     2.583541741203   110.03279687     0.14234166
 C     61  60  59     2.796132009684   136.77506414   179.08078135
 O     62  61  60     2.304626476399   127.26357874     0.69029183
 H      4   3   1     2.057259334585   128.74072195     0.10175644
 H      6   5   4     2.054913855842   120.16026101   179.21299168
 H     15  14   8     2.076657641033   110.93015252   188.02892150
 H     20  19  18     2.055849110414   124.63443596   177.04163300
 H     25  24  23     2.063155853952   108.79810672   150.08074658
 H     25  24  23     2.082282804221   106.78795517    36.83646424
 H     26  25  24     2.081215314716   109.79760952   179.25251493
 H     26  25  24     2.079162981086   111.17796988    60.03078665
 H     26  25  24     2.078932006315   112.07421356   299.98978626
 H     32  31  30     2.076269524999   106.61947760   148.42757170
 H     32  31  30     2.075400058822   106.31673947    32.34131703
 H     33  32  31     2.079667293382   110.46319344   300.50819237
 H     33  32  31     2.080066979358   110.23632980   180.74793193
 H     33  32  31     2.079613682432   110.66461588    60.98465178
 H     39  38  37     2.061313521028   108.82741610   329.37514801
 H     39  38  37     2.080039863998   106.89308535   216.16241809
 H     40  39  38     2.080077238260   111.58953965   304.28776984
 H     40  39  38     2.080145655939   110.72695587   183.37665506
 H     40  39  38     2.078423945618   110.59158065    63.99607730
 H     48  44  43     2.061795970684   125.33266200     0.02480962
 H     49  47  46     2.062224179275   110.43257528   181.32064185
 H     58  57  51     2.054870879866   129.55116222   359.73798663
 H     60  59  58     2.057350089989   121.27449909   179.50189378

---------------------
BASIS SET INFORMATION
---------------------
There are 5 groups of distinct atoms

 Group   1 Type C   : 11s6p2d1f contracted to 5s3p2d1f pattern {62111/411/11/1}
 Group   2 Type O   : 11s6p2d1f contracted to 5s3p2d1f pattern {62111/411/11/1}
 Group   3 Type S   : 14s9p3d1f contracted to 5s5p2d1f pattern {73211/51111/21/1}
 Group   4 Type N   : 11s6p2d1f contracted to 5s3p2d1f pattern {62111/411/11/1}
 Group   5 Type H   : 5s1p contracted to 3s1p pattern {311/1}

Atom   0C    basis set group =>   1
Atom   1O    basis set group =>   2
Atom   2C    basis set group =>   1
Atom   3C    basis set group =>   1
Atom   4S    basis set group =>   3
Atom   5C    basis set group =>   1
Atom   6C    basis set group =>   1
Atom   7C    basis set group =>   1
Atom   8C    basis set group =>   1
Atom   9C    basis set group =>   1
Atom  10N    basis set group =>   4
Atom  11C    basis set group =>   1
Atom  12N    basis set group =>   4
Atom  13C    basis set group =>   1
Atom  14C    basis set group =>   1
Atom  15C    basis set group =>   1
Atom  16S    basis set group =>   3
Atom  17C    basis set group =>   1
Atom  18C    basis set group =>   1
Atom  19C    basis set group =>   1
Atom  20S    basis set group =>   3
Atom  21C    basis set group =>   1
Atom  22C    basis set group =>   1
Atom  23N    basis set group =>   4
Atom  24C    basis set group =>   1
Atom  25C    basis set group =>   1
Atom  26C    basis set group =>   1
Atom  27C    basis set group =>   1
Atom  28C    basis set group =>   1
Atom  29N    basis set group =>   4
Atom  30N    basis set group =>   4
Atom  31C    basis set group =>   1
Atom  32C    basis set group =>   1
Atom  33N    basis set group =>   4
Atom  34C    basis set group =>   1
Atom  35C    basis set group =>   1
Atom  36C    basis set group =>   1
Atom  37N    basis set group =>   4
Atom  38C    basis set group =>   1
Atom  39C    basis set group =>   1
Atom  40C    basis set group =>   1
Atom  41C    basis set group =>   1
Atom  42S    basis set group =>   3
Atom  43C    basis set group =>   1
Atom  44C    basis set group =>   1
Atom  45S    basis set group =>   3
Atom  46C    basis set group =>   1
Atom  47C    basis set group =>   1
Atom  48C    basis set group =>   1
Atom  49C    basis set group =>   1
Atom  50C    basis set group =>   1
Atom  51C    basis set group =>   1
Atom  52C    basis set group =>   1
Atom  53N    basis set group =>   4
Atom  54C    basis set group =>   1
Atom  55N    basis set group =>   4
Atom  56C    basis set group =>   1
Atom  57C    basis set group =>   1
Atom  58S    basis set group =>   3
Atom  59C    basis set group =>   1
Atom  60C    basis set group =>   1
Atom  61C    basis set group =>   1
Atom  62O    basis set group =>   2
Atom  63H    basis set group =>   5
Atom  64H    basis set group =>   5
Atom  65H    basis set group =>   5
Atom  66H    basis set group =>   5
Atom  67H    basis set group =>   5
Atom  68H    basis set group =>   5
Atom  69H    basis set group =>   5
Atom  70H    basis set group =>   5
Atom  71H    basis set group =>   5
Atom  72H    basis set group =>   5
Atom  73H    basis set group =>   5
Atom  74H    basis set group =>   5
Atom  75H    basis set group =>   5
Atom  76H    basis set group =>   5
Atom  77H    basis set group =>   5
Atom  78H    basis set group =>   5
Atom  79H    basis set group =>   5
Atom  80H    basis set group =>   5
Atom  81H    basis set group =>   5
Atom  82H    basis set group =>   5
Atom  83H    basis set group =>   5
Atom  84H    basis set group =>   5
Atom  85H    basis set group =>   5
---------------------------------
AUXILIARY/J BASIS SET INFORMATION
---------------------------------
There are 5 groups of distinct atoms

 Group   1 Type C   : 12s5p4d2f1g contracted to 6s4p3d1f1g pattern {711111/2111/211/2/1}
 Group   2 Type O   : 12s5p4d2f1g contracted to 6s4p3d1f1g pattern {711111/2111/211/2/1}
 Group   3 Type S   : 14s5p5d2f1g contracted to 8s4p3d1f1g pattern {71111111/2111/311/2/1}
 Group   4 Type N   : 12s5p4d2f1g contracted to 6s4p3d1f1g pattern {711111/2111/211/2/1}
 Group   5 Type H   : 5s2p1d contracted to 3s1p1d pattern {311/2/1}

Atom   0C    basis set group =>   1
Atom   1O    basis set group =>   2
Atom   2C    basis set group =>   1
Atom   3C    basis set group =>   1
Atom   4S    basis set group =>   3
Atom   5C    basis set group =>   1
Atom   6C    basis set group =>   1
Atom   7C    basis set group =>   1
Atom   8C    basis set group =>   1
Atom   9C    basis set group =>   1
Atom  10N    basis set group =>   4
Atom  11C    basis set group =>   1
Atom  12N    basis set group =>   4
Atom  13C    basis set group =>   1
Atom  14C    basis set group =>   1
Atom  15C    basis set group =>   1
Atom  16S    basis set group =>   3
Atom  17C    basis set group =>   1
Atom  18C    basis set group =>   1
Atom  19C    basis set group =>   1
Atom  20S    basis set group =>   3
Atom  21C    basis set group =>   1
Atom  22C    basis set group =>   1
Atom  23N    basis set group =>   4
Atom  24C    basis set group =>   1
Atom  25C    basis set group =>   1
Atom  26C    basis set group =>   1
Atom  27C    basis set group =>   1
Atom  28C    basis set group =>   1
Atom  29N    basis set group =>   4
Atom  30N    basis set group =>   4
Atom  31C    basis set group =>   1
Atom  32C    basis set group =>   1
Atom  33N    basis set group =>   4
Atom  34C    basis set group =>   1
Atom  35C    basis set group =>   1
Atom  36C    basis set group =>   1
Atom  37N    basis set group =>   4
Atom  38C    basis set group =>   1
Atom  39C    basis set group =>   1
Atom  40C    basis set group =>   1
Atom  41C    basis set group =>   1
Atom  42S    basis set group =>   3
Atom  43C    basis set group =>   1
Atom  44C    basis set group =>   1
Atom  45S    basis set group =>   3
Atom  46C    basis set group =>   1
Atom  47C    basis set group =>   1
Atom  48C    basis set group =>   1
Atom  49C    basis set group =>   1
Atom  50C    basis set group =>   1
Atom  51C    basis set group =>   1
Atom  52C    basis set group =>   1
Atom  53N    basis set group =>   4
Atom  54C    basis set group =>   1
Atom  55N    basis set group =>   4
Atom  56C    basis set group =>   1
Atom  57C    basis set group =>   1
Atom  58S    basis set group =>   3
Atom  59C    basis set group =>   1
Atom  60C    basis set group =>   1
Atom  61C    basis set group =>   1
Atom  62O    basis set group =>   2
Atom  63H    basis set group =>   5
Atom  64H    basis set group =>   5
Atom  65H    basis set group =>   5
Atom  66H    basis set group =>   5
Atom  67H    basis set group =>   5
Atom  68H    basis set group =>   5
Atom  69H    basis set group =>   5
Atom  70H    basis set group =>   5
Atom  71H    basis set group =>   5
Atom  72H    basis set group =>   5
Atom  73H    basis set group =>   5
Atom  74H    basis set group =>   5
Atom  75H    basis set group =>   5
Atom  76H    basis set group =>   5
Atom  77H    basis set group =>   5
Atom  78H    basis set group =>   5
Atom  79H    basis set group =>   5
Atom  80H    basis set group =>   5
Atom  81H    basis set group =>   5
Atom  82H    basis set group =>   5
Atom  83H    basis set group =>   5
Atom  84H    basis set group =>   5
Atom  85H    basis set group =>   5


           ************************************************************
           *        Program running with 6 parallel MPI-processes     *
           *              working on a common directory               *
           ************************************************************
------------------------------------------------------------------------------
                           ORCA GTO INTEGRAL CALCULATION
                           -- RI-GTO INTEGRALS CHOSEN --
------------------------------------------------------------------------------

                         BASIS SET STATISTICS AND STARTUP INFO

Gaussian basis set:
 # of primitive gaussian shells          ... 1440
 # of primitive gaussian functions       ... 3184
 # of contracted shells                  ...  797
 # of contracted basis functions         ... 2127
 Highest angular momentum                ...    3
 Maximum contraction depth               ...    7
Auxiliary gaussian basis set:
 # of primitive gaussian shells          ... 1714
 # of primitive gaussian functions       ... 4820
 # of contracted shells                  ... 1072
 # of contracted aux-basis functions     ... 3352
 Highest angular momentum                ...    4
 Maximum contraction depth               ...    7
Ratio of auxiliary to basis functions    ...  1.58
Integral package used                  ... LIBINT
 One Electron integrals                  ... done
 Ordering auxiliary basis shells         ... done
 Integral threshhold             Thresh  ...  2.500e-11
 Primitive cut-off               TCut    ...  2.500e-12
 Pre-screening matrix                    ... done
 Shell pair data                         ... 
 Ordering of the shell pairs             ... done (   0.024 sec) 110231 of 318003 pairs
 Determination of significant pairs      ... done (   0.000 sec)
 Creation of shell pair data             ... done (   0.009 sec)
 Storage of shell pair data              ... done (   0.217 sec)
 Shell pair data done in (   0.251 sec)
 Computing two index integrals           ... done
 Cholesky decomposition of the V-matrix  ... done


Timings:
 Total evaluation time                   ...   5.311 sec (  0.089 min)
 One electron matrix time                ...   1.372 sec (  0.023 min) = 25.8%
 Schwartz matrix evaluation time         ...   2.546 sec (  0.042 min) = 47.9%
 Two index repulsion integral time       ...   0.184 sec (  0.003 min) =  3.5%
 Cholesky decomposition of V             ...   0.942 sec (  0.016 min) = 17.7%
 Three index repulsion integral time     ...   0.000 sec (  0.000 min) =  0.0%



           ************************************************************
           *        Program running with 6 parallel MPI-processes     *
           *              working on a common directory               *
           ************************************************************
-------------------------------------------------------------------------------
                                 ORCA SCF
-------------------------------------------------------------------------------

------------
SCF SETTINGS
------------
Hamiltonian:
 Density Functional     Method          .... DFT(GTOs)
 Exchange Functional    Exchange        .... B88
   X-Alpha parameter    XAlpha          ....  0.666667
   Becke's b parameter  XBeta           ....  0.004200
 Correlation Functional Correlation     .... LYP
 LDA part of GGA corr.  LDAOpt          .... VWN-5
 Gradients option       PostSCFGGA      .... off
 Hybrid DFT is turned on
   Fraction HF Exchange ScalHFX         ....  0.200000
   Scaling of DF-GGA-X  ScalDFX         ....  0.720000
   Scaling of DF-GGA-C  ScalDFC         ....  0.810000
   Scaling of DF-LDA-C  ScalLDAC        ....  1.000000
   Perturbative correction              ....  0.000000
   Density functional embedding theory  .... OFF
   NL short-range parameter             ....  4.800000
 RI-approximation to the Coulomb term is turned on
   Number of auxiliary basis functions  .... 3352
   RIJ-COSX (HFX calculated with COS-X)).... on


General Settings:
 Integral files         IntName         .... Y2
 Hartree-Fock type      HFTyp           .... RHF
 Total Charge           Charge          ....    0
 Multiplicity           Mult            ....    1
 Number of Electrons    NEL             ....  474
 Basis Dimension        Dim             .... 2127
 Nuclear Repulsion      ENuc            ....   9110.5440964861 Eh

Convergence Acceleration:
 DIIS                   CNVDIIS         .... on
   Start iteration      DIISMaxIt       ....    12
   Startup error        DIISStart       ....  0.200000
   # of expansion vecs  DIISMaxEq       ....     5
   Bias factor          DIISBfac        ....   1.050
   Max. coefficient     DIISMaxC        ....  10.000
 Newton-Raphson         CNVNR           .... off
 SOSCF                  CNVSOSCF        .... on
   Start iteration      SOSCFMaxIt      ....   150
   Startup grad/error   SOSCFStart      ....  0.003300
 Level Shifting         CNVShift        .... on
   Level shift para.    LevelShift      ....    0.2500
   Turn off err/grad.   ShiftErr        ....    0.0010
 Zerner damping         CNVZerner       .... off
 Static damping         CNVDamp         .... on
   Fraction old density DampFac         ....    0.7000
   Max. Damping (<1)    DampMax         ....    0.9800
   Min. Damping (>=0)   DampMin         ....    0.0000
   Turn off err/grad.   DampErr         ....    0.1000
 Fernandez-Rico         CNVRico         .... off

SCF Procedure:
 Maximum # iterations   MaxIter         ....   125
 SCF integral mode      SCFMode         .... Direct
   Integral package                     .... LIBINT
 Reset frequency        DirectResetFreq ....    20
 Integral Threshold     Thresh          ....  2.500e-11 Eh
 Primitive CutOff       TCut            ....  2.500e-12 Eh

Convergence Tolerance:
 Convergence Check Mode ConvCheckMode   .... Total+1el-Energy
 Convergence forced     ConvForced      .... 1
 Energy Change          TolE            ....  1.000e-08 Eh
 1-El. energy change                    ....  1.000e-05 Eh
 Orbital Gradient       TolG            ....  1.000e-05
 Orbital Rotation angle TolX            ....  1.000e-05
 DIIS Error             TolErr          ....  5.000e-07


Diagonalization of the overlap matrix:
Smallest eigenvalue                        ... 2.023e-06
Time for diagonalization                   ...    1.384 sec
Threshold for overlap eigenvalues          ... 1.000e-08
Number of eigenvalues below threshold      ... 0
Time for construction of square roots      ...    1.166 sec
Total time needed                          ...    2.554 sec

-------------------
DFT GRID GENERATION
-------------------

General Integration Accuracy     IntAcc      ...  4.670
Radial Grid Type                 RadialGrid  ... Gauss-Chebyshev
Angular Grid (max. acc.)         AngularGrid ... Lebedev-302
Angular grid pruning method      GridPruning ... 3 (G Style)
Weight generation scheme         WeightScheme... Becke
Basis function cutoff            BFCut       ...    1.0000e-11
Integration weight cutoff        WCut        ...    1.0000e-14
Grids for H and He will be reduced by one unit

# of grid points (after initial pruning)     ... 473222 (   0.0 sec)
# of grid points (after weights+screening)   ... 407820 (   4.0 sec)
nearest neighbour list constructed           ...    0.0 sec
Grid point re-assignment to atoms done       ...    0.0 sec
Grid point division into batches done        ...    1.6 sec
Reduced shell lists constructed in    2.7 sec

Total number of grid points                  ...   407820
Total number of batches                      ...     6417
Average number of points per batch           ...       63
Average number of grid points per atom       ...     4742
Average number of shells per batch           ...   123.86 (15.54%)
Average number of basis functions per batch  ...   331.98 (15.61%)
Average number of large shells per batch     ...    81.13 (65.50%)
Average number of large basis fcns per batch ...   218.58 (65.84%)
Maximum spatial batch extension              ...  20.63, 16.24, 23.54 au
Average spatial batch extension              ...   0.36,  0.37,  0.40 au

Time for grid setup =    7.286 sec

------------------------------
INITIAL GUESS: MODEL POTENTIAL
------------------------------
Loading Hartree-Fock densities                     ... done
Calculating cut-offs                               ... done
Setting up the integral package                    ... done
Initializing the effective Hamiltonian             ... done
Starting the Coulomb interaction                   ... done (   3.1 sec)
Reading the grid                                   ... done
Mapping shells                                     ... done
Starting the XC term evaluation                    ... done (   3.1 sec)
  promolecular density results
     # of electrons  =    473.989378763
     EX              =   -469.092555776
     EC              =    -17.053505666
     EX+EC           =   -486.146061442
Transforming the Hamiltonian                       ... done (   1.1 sec)
Diagonalizing the Hamiltonian                      ... done (   1.3 sec)
Back transforming the eigenvectors                 ... done (   0.5 sec)
Now organizing SCF variables                       ... done
                      ------------------
                      INITIAL GUESS DONE (  16.6 sec)
                      ------------------
--------------------
COSX GRID GENERATION
--------------------

General Integration Accuracy     IntAcc      ...  3.340
Radial Grid Type                 RadialGrid  ... Gauss-Chebyshev
Angular Grid (max. acc.)         AngularGrid ... Lebedev-50
Angular grid pruning method      GridPruning ... 3 (G Style)
Weight generation scheme         WeightScheme... Becke
Basis function cutoff            BFCut       ...    1.0000e-11
Integration weight cutoff        WCut        ...    1.0000e-14
Grids for H and He will be reduced by one unit

# of grid points (after initial pruning)     ...  44530 (   0.0 sec)
# of grid points (after weights+screening)   ...  40060 (   0.4 sec)
nearest neighbour list constructed           ...    0.0 sec
Grid point re-assignment to atoms done       ...    0.0 sec
Grid point division into batches done        ...    0.0 sec
Reduced shell lists constructed in    0.2 sec

Total number of grid points                  ...    40060
Total number of batches                      ...      673
Average number of points per batch           ...       59
Average number of grid points per atom       ...      466
Average number of shells per batch           ...   150.63 (18.90%)
Average number of basis functions per batch  ...   408.30 (19.20%)
Average number of large shells per batch     ...    99.46 (66.03%)
Average number of large basis fcns per batch ...   271.83 (66.58%)
Maximum spatial batch extension              ...  17.43, 18.21, 19.95 au
Average spatial batch extension              ...   0.63,  0.77,  0.94 au

Overlap Fitting                  UseSFitting ... on
Constructing numerical overlap ... done (      0.5 sec)
Inverting numerical overlap    ... done (      0.4 sec)
Obtaining analytic overlap     ... done (      0.0 sec)
Final contraction and storage  ... done (      2.2 sec)


General Integration Accuracy     IntAcc      ...  3.670
Radial Grid Type                 RadialGrid  ... Gauss-Chebyshev
Angular Grid (max. acc.)         AngularGrid ... Lebedev-50
Angular grid pruning method      GridPruning ... 3 (G Style)
Weight generation scheme         WeightScheme... Becke
Basis function cutoff            BFCut       ...    1.0000e-11
Integration weight cutoff        WCut        ...    1.0000e-14
Grids for H and He will be reduced by one unit

# of grid points (after initial pruning)     ...  55538 (   0.0 sec)
# of grid points (after weights+screening)   ...  49750 (   0.5 sec)
nearest neighbour list constructed           ...    0.0 sec
Grid point re-assignment to atoms done       ...    0.0 sec
Grid point division into batches done        ...    0.0 sec
Reduced shell lists constructed in    0.2 sec

Total number of grid points                  ...    49750
Total number of batches                      ...      823
Average number of points per batch           ...       60
Average number of grid points per atom       ...      578
Average number of shells per batch           ...   148.22 (18.60%)
Average number of basis functions per batch  ...   401.40 (18.87%)
Average number of large shells per batch     ...    97.55 (65.82%)
Average number of large basis fcns per batch ...   266.59 (66.41%)
Maximum spatial batch extension              ...  18.41, 19.18, 28.21 au
Average spatial batch extension              ...   0.61,  0.72,  0.91 au

Overlap Fitting                  UseSFitting ... on
Constructing numerical overlap ... done (      0.6 sec)
Inverting numerical overlap    ... done (      0.4 sec)
Obtaining analytic overlap     ... done (      0.0 sec)
Final contraction and storage  ... done (      2.2 sec)


General Integration Accuracy     IntAcc      ...  4.010
Radial Grid Type                 RadialGrid  ... Gauss-Chebyshev
Angular Grid (max. acc.)         AngularGrid ... Lebedev-110
Angular grid pruning method      GridPruning ... 3 (G Style)
Weight generation scheme         WeightScheme... Becke
Basis function cutoff            BFCut       ...    1.0000e-11
Integration weight cutoff        WCut        ...    1.0000e-14
Grids for H and He will be reduced by one unit

# of grid points (after initial pruning)     ... 108740 (   0.0 sec)
# of grid points (after weights+screening)   ...  96383 (   0.9 sec)
nearest neighbour list constructed           ...    0.0 sec
Grid point re-assignment to atoms done       ...    0.0 sec
Grid point division into batches done        ...    0.1 sec
Reduced shell lists constructed in    0.4 sec

Total number of grid points                  ...    96383
Total number of batches                      ...     1553
Average number of points per batch           ...       62
Average number of grid points per atom       ...     1121
Average number of shells per batch           ...   138.52 (17.38%)
Average number of basis functions per batch  ...   374.46 (17.61%)
Average number of large shells per batch     ...    91.67 (66.18%)
Average number of large basis fcns per batch ...   249.25 (66.56%)
Maximum spatial batch extension              ...  18.23, 20.42, 20.88 au
Average spatial batch extension              ...   0.55,  0.62,  0.69 au

Overlap Fitting                  UseSFitting ... on
Constructing numerical overlap ... done (      1.0 sec)
Inverting numerical overlap    ... done (      0.4 sec)
Obtaining analytic overlap     ... done (      0.0 sec)
Final contraction and storage  ... done (      2.2 sec)

Time for X-Grid setup             =   12.819 sec
--------------
SCF ITERATIONS
--------------
ITER       Energy         Delta-E        Max-DP      RMS-DP      [F,P]     Damp
               ***  Starting incremental Fock matrix formation  ***
  0  -4796.6816744619   0.000000000000 0.21223462  0.00104356  0.2930313 0.7000
  1  -4797.4258313870  -0.744156925137 0.19168856  0.00092511  0.1104115 0.7000
                               ***Turning on DIIS***
  2  -4797.6815279768  -0.255696589764 0.41828017  0.00149409  0.0422632 0.0000
  3  -4798.1085989838  -0.427071007061 0.19397387  0.00079987  0.0552751 0.0000
  4  -4798.2042578576  -0.095658873830 0.07203211  0.00027893  0.0338943 0.0000
  5  -4798.2161308284  -0.011872970805 0.03193801  0.00012197  0.0094724 0.0000
                      *** Initiating the SOSCF procedure ***
                           *** Shutting down DIIS ***
                      *** Re-Reading the Fockian *** 
                      *** Removing any level shift *** 
ITER      Energy       Delta-E        Grad      Rot      Max-DP    RMS-DP
  6  -4798.21707840  -0.0009475709  0.000912  0.000912  0.008974  0.000037
               *** Restarting incremental Fock matrix formation ***
  7  -4798.21719903  -0.0001206324  0.000632  0.007757  0.010989  0.000079
  8  -4798.21722262  -0.0000235891  0.000311  0.002632  0.005002  0.000034
  9  -4798.21723208  -0.0000094619  0.000227  0.002538  0.004553  0.000031
 10  -4798.21723652  -0.0000044350  0.000204  0.000945  0.002328  0.000015
 11  -4798.21723824  -0.0000017210  0.000155  0.001368  0.001858  0.000013
 12  -4798.21723938  -0.0000011365  0.000098  0.000466  0.000939  0.000007
 13  -4798.21723975  -0.0000003783  0.000062  0.000411  0.001091  0.000007
 14  -4798.21724040  -0.0000006426  0.000022  0.000119  0.000576  0.000002
 15  -4798.21724038   0.0000000208  0.000025  0.000245  0.000523  0.000003
 16  -4798.21724041  -0.0000000331  0.000012  0.000082  0.000605  0.000002
 17  -4798.21724047  -0.0000000576  0.000012  0.000031  0.000217  0.000001
 18  -4798.21724054  -0.0000000765  0.000006  0.000011  0.000478  0.000002
 19  -4798.21724048   0.0000000661  0.000012  0.000013  0.000389  0.000001
 20  -4798.21724052  -0.0000000442  0.000003  0.000016  0.000672  0.000002
 21  -4798.21724051   0.0000000068  0.000006  0.000005  0.000284  0.000001
                  ***Gradient check signals convergence***
              ***Rediagonalizing the Fockian in SOSCF/NRSCF***

               *****************************************************
               *                     SUCCESS                       *
               *           SCF CONVERGED AFTER  22 CYCLES          *
               *****************************************************

Setting up the final grid:

General Integration Accuracy     IntAcc      ...  5.010
Radial Grid Type                 RadialGrid  ... Gauss-Chebyshev
Angular Grid (max. acc.)         AngularGrid ... Lebedev-434
Angular grid pruning method      GridPruning ... 3 (G Style)
Weight generation scheme         WeightScheme... Becke
Basis function cutoff            BFCut       ...    1.0000e-11
Integration weight cutoff        WCut        ...    1.0000e-14
Grids for H and He will be reduced by one unit

# of grid points (after initial pruning)     ... 833458 (   0.0 sec)
# of grid points (after weights+screening)   ... 715686 (   6.8 sec)
nearest neighbour list constructed           ...    0.0 sec
Grid point re-assignment to atoms done       ...    0.1 sec
Grid point division into batches done        ...    5.1 sec
Reduced shell lists constructed in    7.0 sec

Total number of grid points                  ...   715686
Total number of batches                      ...    11221
Average number of points per batch           ...       63
Average number of grid points per atom       ...     8322
Average number of shells per batch           ...   120.92 (15.17%)
Average number of basis functions per batch  ...   323.42 (15.21%)
Average number of large shells per batch     ...    79.33 (65.60%)
Average number of large basis fcns per batch ...   213.58 (66.04%)
Maximum spatial batch extension              ...  17.63, 15.72, 21.35 au
Average spatial batch extension              ...   0.30,  0.31,  0.33 au

Final grid set up in   14.8 sec
Final integration                            ... done (   7.2 sec)
Change in XC energy                          ...    -0.000021914
Integrated number of electrons               ...   473.999973691
Previous integrated no of electrons          ...   474.000309814
Old exchange energy                            =    -94.516372937 Eh
New exchange energy                            =    -94.518233595 Eh
Exchange energy change after final integration =     -0.001860658 Eh
Total energy after final integration           =  -4798.219123101 Eh
Final COS-X integration done in                =   197.720 sec

----------------
TOTAL SCF ENERGY
----------------

Total Energy       :        -4798.21912310 Eh         -130566.18020 eV

Components:
Nuclear Repulsion  :         9110.54409649 Eh          247910.50839 eV
Electronic Energy  :       -13908.76321959 Eh         -378476.68859 eV
One Electron Energy:       -24717.96217249 Eh         -672609.94554 eV
Two Electron Energy:        10809.19895290 Eh          294133.25695 eV

Virial components:
Potential Energy   :        -9580.90974094 Eh         -260709.80828 eV
Kinetic Energy     :         4782.69061784 Eh          130143.62809 eV
Virial Ratio       :            2.00324681


DFT components:
N(Alpha)           :      236.999986845418 electrons
N(Beta)            :      236.999986845418 electrons
N(Total)           :      473.999973690837 electrons
E(X)               :     -375.816431138446 Eh       
E(C)               :      -20.011277901346 Eh       
E(XC)              :     -395.827709039792 Eh       
DFET-embed. en.    :        0.000000000000 Eh       

---------------
SCF CONVERGENCE
---------------

  Last Energy change         ...   -1.4928e-08  Tolerance :   1.0000e-08
  Last MAX-Density change    ...    3.1086e-15  Tolerance :   1.0000e-07
  Last RMS-Density change    ...    1.4773e-17  Tolerance :   5.0000e-09
  Last Orbital Gradient      ...    6.7414e-07  Tolerance :   1.0000e-05
  Last Orbital Rotation      ...    7.7677e-06  Tolerance :   1.0000e-05

             **** THE GBW FILE WAS UPDATED (Y2.gbw) ****
             **** DENSITY FILE WAS UPDATED (Y2.scfp) ****
             **** ENERGY FILE WAS UPDATED (Y2.en.tmp) ****
             **** THE GBW FILE WAS UPDATED (Y2.gbw) ****
             **** DENSITY FILE WAS UPDATED (Y2.scfp) ****
----------------
ORBITAL ENERGIES
----------------

  NO   OCC          E(Eh)            E(eV) 
   0   2.0000     -88.919632     -2419.6262 
   1   2.0000     -88.918907     -2419.6065 
   2   2.0000     -88.914772     -2419.4939 
   3   2.0000     -88.910405     -2419.3751 
   4   2.0000     -88.908193     -2419.3149 
   5   2.0000     -88.906900     -2419.2798 
   6   2.0000     -19.132821      -520.6305 
   7   2.0000     -19.127494      -520.4856 
   8   2.0000     -14.444458      -393.0537 
   9   2.0000     -14.403959      -391.9517 
  10   2.0000     -14.403895      -391.9499 
  11   2.0000     -14.362660      -390.8279 
  12   2.0000     -14.362245      -390.8166 
  13   2.0000     -14.329729      -389.9317 
  14   2.0000     -14.329033      -389.9128 
  15   2.0000     -14.328762      -389.9054 
  16   2.0000     -14.326296      -389.8383 
  17   2.0000     -10.281034      -279.7612 
  18   2.0000     -10.277664      -279.6695 
  19   2.0000     -10.262653      -279.2610 
  20   2.0000     -10.262232      -279.2495 
  21   2.0000     -10.256774      -279.1010 
  22   2.0000     -10.256003      -279.0800 
  23   2.0000     -10.255877      -279.0766 
  24   2.0000     -10.254478      -279.0385 
  25   2.0000     -10.252432      -278.9829 
  26   2.0000     -10.250603      -278.9331 
  27   2.0000     -10.246752      -278.8283 
  28   2.0000     -10.244732      -278.7733 
  29   2.0000     -10.243526      -278.7405 
  30   2.0000     -10.242549      -278.7139 
  31   2.0000     -10.242236      -278.7054 
  32   2.0000     -10.241058      -278.6734 
  33   2.0000     -10.238439      -278.6021 
  34   2.0000     -10.236206      -278.5413 
  35   2.0000     -10.236016      -278.5362 
  36   2.0000     -10.235579      -278.5243 
  37   2.0000     -10.235350      -278.5180 
  38   2.0000     -10.234458      -278.4938 
  39   2.0000     -10.233695      -278.4730 
  40   2.0000     -10.231261      -278.4068 
  41   2.0000     -10.230545      -278.3873 
  42   2.0000     -10.230225      -278.3786 
  43   2.0000     -10.229192      -278.3505 
  44   2.0000     -10.228717      -278.3376 
  45   2.0000     -10.228652      -278.3358 
  46   2.0000     -10.227140      -278.2946 
  47   2.0000     -10.226549      -278.2785 
  48   2.0000     -10.224022      -278.2098 
  49   2.0000     -10.222540      -278.1695 
  50   2.0000     -10.222003      -278.1548 
  51   2.0000     -10.221672      -278.1458 
  52   2.0000     -10.219675      -278.0915 
  53   2.0000     -10.219119      -278.0764 
  54   2.0000     -10.217846      -278.0417 
  55   2.0000     -10.217350      -278.0282 
  56   2.0000     -10.215964      -277.9905 
  57   2.0000     -10.215046      -277.9655 
  58   2.0000     -10.207393      -277.7573 
  59   2.0000     -10.207220      -277.7526 
  60   2.0000     -10.203394      -277.6485 
  61   2.0000     -10.201146      -277.5873 
  62   2.0000     -10.185510      -277.1618 
  63   2.0000      -7.994824      -217.5502 
  64   2.0000      -7.994105      -217.5306 
  65   2.0000      -7.990722      -217.4386 
  66   2.0000      -7.984847      -217.2787 
  67   2.0000      -7.983038      -217.2295 
  68   2.0000      -7.981785      -217.1954 
  69   2.0000      -5.957232      -162.1045 
  70   2.0000      -5.956511      -162.0849 
  71   2.0000      -5.953357      -161.9991 
  72   2.0000      -5.952977      -161.9887 
  73   2.0000      -5.952311      -161.9706 
  74   2.0000      -5.952256      -161.9691 
  75   2.0000      -5.951586      -161.9509 
  76   2.0000      -5.949660      -161.8985 
  77   2.0000      -5.947790      -161.8476 
  78   2.0000      -5.947042      -161.8272 
  79   2.0000      -5.946176      -161.8037 
  80   2.0000      -5.944935      -161.7699 
  81   2.0000      -5.943686      -161.7359 
  82   2.0000      -5.942408      -161.7012 
  83   2.0000      -5.941184      -161.6678 
  84   2.0000      -5.941025      -161.6635 
  85   2.0000      -5.938602      -161.5976 
  86   2.0000      -5.937297      -161.5621 
  87   2.0000      -1.122156       -30.5354 
  88   2.0000      -1.059794       -28.8384 
  89   2.0000      -1.055660       -28.7260 
  90   2.0000      -1.031027       -28.0557 
  91   2.0000      -1.020478       -27.7686 
  92   2.0000      -0.935382       -25.4530 
  93   2.0000      -0.934856       -25.4387 
  94   2.0000      -0.928565       -25.2675 
  95   2.0000      -0.924787       -25.1647 
  96   2.0000      -0.921206       -25.0673 
  97   2.0000      -0.920170       -25.0391 
  98   2.0000      -0.915327       -24.9073 
  99   2.0000      -0.914621       -24.8881 
 100   2.0000      -0.910375       -24.7725 
 101   2.0000      -0.897779       -24.4298 
 102   2.0000      -0.878109       -23.8946 
 103   2.0000      -0.876801       -23.8590 
 104   2.0000      -0.868677       -23.6379 
 105   2.0000      -0.867081       -23.5945 
 106   2.0000      -0.849870       -23.1261 
 107   2.0000      -0.831951       -22.6385 
 108   2.0000      -0.817725       -22.2514 
 109   2.0000      -0.815101       -22.1800 
 110   2.0000      -0.806585       -21.9483 
 111   2.0000      -0.798328       -21.7236 
 112   2.0000      -0.797405       -21.6985 
 113   2.0000      -0.788017       -21.4430 
 114   2.0000      -0.780487       -21.2381 
 115   2.0000      -0.772679       -21.0257 
 116   2.0000      -0.759845       -20.6764 
 117   2.0000      -0.759428       -20.6651 
 118   2.0000      -0.757901       -20.6235 
 119   2.0000      -0.749403       -20.3923 
 120   2.0000      -0.734143       -19.9770 
 121   2.0000      -0.728681       -19.8284 
 122   2.0000      -0.724785       -19.7224 
 123   2.0000      -0.703035       -19.1306 
 124   2.0000      -0.696634       -18.9564 
 125   2.0000      -0.690136       -18.7795 
 126   2.0000      -0.682373       -18.5683 
 127   2.0000      -0.674199       -18.3459 
 128   2.0000      -0.668566       -18.1926 
 129   2.0000      -0.660053       -17.9609 
 130   2.0000      -0.644530       -17.5385 
 131   2.0000      -0.642919       -17.4947 
 132   2.0000      -0.626860       -17.0577 
 133   2.0000      -0.623219       -16.9586 
 134   2.0000      -0.612302       -16.6616 
 135   2.0000      -0.605147       -16.4669 
 136   2.0000      -0.596417       -16.2293 
 137   2.0000      -0.591069       -16.0838 
 138   2.0000      -0.589220       -16.0335 
 139   2.0000      -0.585042       -15.9198 
 140   2.0000      -0.580022       -15.7832 
 141   2.0000      -0.577849       -15.7241 
 142   2.0000      -0.568305       -15.4644 
 143   2.0000      -0.564588       -15.3632 
 144   2.0000      -0.563968       -15.3464 
 145   2.0000      -0.557784       -15.1781 
 146   2.0000      -0.546814       -14.8796 
 147   2.0000      -0.544087       -14.8054 
 148   2.0000      -0.533721       -14.5233 
 149   2.0000      -0.526933       -14.3386 
 150   2.0000      -0.525266       -14.2932 
 151   2.0000      -0.524082       -14.2610 
 152   2.0000      -0.521941       -14.2027 
 153   2.0000      -0.513698       -13.9784 
 154   2.0000      -0.502886       -13.6842 
 155   2.0000      -0.499290       -13.5864 
 156   2.0000      -0.493765       -13.4360 
 157   2.0000      -0.488726       -13.2989 
 158   2.0000      -0.482416       -13.1272 
 159   2.0000      -0.478809       -13.0291 
 160   2.0000      -0.472578       -12.8595 
 161   2.0000      -0.471342       -12.8259 
 162   2.0000      -0.465573       -12.6689 
 163   2.0000      -0.463276       -12.6064 
 164   2.0000      -0.459648       -12.5076 
 165   2.0000      -0.459467       -12.5027 
 166   2.0000      -0.457616       -12.4524 
 167   2.0000      -0.457185       -12.4406 
 168   2.0000      -0.454613       -12.3707 
 169   2.0000      -0.451795       -12.2940 
 170   2.0000      -0.451254       -12.2793 
 171   2.0000      -0.445279       -12.1167 
 172   2.0000      -0.441373       -12.0104 
 173   2.0000      -0.439416       -11.9571 
 174   2.0000      -0.437308       -11.8997 
 175   2.0000      -0.433854       -11.8058 
 176   2.0000      -0.430141       -11.7047 
 177   2.0000      -0.429618       -11.6905 
 178   2.0000      -0.426543       -11.6068 
 179   2.0000      -0.422499       -11.4968 
 180   2.0000      -0.419799       -11.4233 
 181   2.0000      -0.418193       -11.3796 
 182   2.0000      -0.417307       -11.3555 
 183   2.0000      -0.414981       -11.2922 
 184   2.0000      -0.412744       -11.2313 
 185   2.0000      -0.411075       -11.1859 
 186   2.0000      -0.408506       -11.1160 
 187   2.0000      -0.407299       -11.0832 
 188   2.0000      -0.405370       -11.0307 
 189   2.0000      -0.402424       -10.9505 
 190   2.0000      -0.401914       -10.9366 
 191   2.0000      -0.397630       -10.8201 
 192   2.0000      -0.396486       -10.7889 
 193   2.0000      -0.395024       -10.7491 
 194   2.0000      -0.394088       -10.7237 
 195   2.0000      -0.387652       -10.5485 
 196   2.0000      -0.385753       -10.4969 
 197   2.0000      -0.384695       -10.4681 
 198   2.0000      -0.384329       -10.4581 
 199   2.0000      -0.380788       -10.3618 
 200   2.0000      -0.380576       -10.3560 
 201   2.0000      -0.377481       -10.2718 
 202   2.0000      -0.375444       -10.2163 
 203   2.0000      -0.372661       -10.1406 
 204   2.0000      -0.372209       -10.1283 
 205   2.0000      -0.367809       -10.0086 
 206   2.0000      -0.363327        -9.8866 
 207   2.0000      -0.361873        -9.8471 
 208   2.0000      -0.358174        -9.7464 
 209   2.0000      -0.356976        -9.7138 
 210   2.0000      -0.356420        -9.6987 
 211   2.0000      -0.354120        -9.6361 
 212   2.0000      -0.350014        -9.5244 
 213   2.0000      -0.345499        -9.4015 
 214   2.0000      -0.344218        -9.3666 
 215   2.0000      -0.342620        -9.3232 
 216   2.0000      -0.342067        -9.3081 
 217   2.0000      -0.337669        -9.1884 
 218   2.0000      -0.335782        -9.1371 
 219   2.0000      -0.330740        -8.9999 
 220   2.0000      -0.314944        -8.5701 
 221   2.0000      -0.310291        -8.4435 
 222   2.0000      -0.308689        -8.3999 
 223   2.0000      -0.296187        -8.0597 
 224   2.0000      -0.286523        -7.7967 
 225   2.0000      -0.278703        -7.5839 
 226   2.0000      -0.278193        -7.5700 
 227   2.0000      -0.275774        -7.5042 
 228   2.0000      -0.273514        -7.4427 
 229   2.0000      -0.268656        -7.3105 
 230   2.0000      -0.265432        -7.2228 
 231   2.0000      -0.259635        -7.0650 
 232   2.0000      -0.254545        -6.9265 
 233   2.0000      -0.242363        -6.5950 
 234   2.0000      -0.235384        -6.4051 
 235   2.0000      -0.226920        -6.1748 
 236   2.0000      -0.203625        -5.5409 
 237   0.0000      -0.133049        -3.6204 
 238   0.0000      -0.122382        -3.3302 
 239   0.0000      -0.093819        -2.5529 
 240   0.0000      -0.091695        -2.4952 
 241   0.0000      -0.072386        -1.9697 
 242   0.0000      -0.058433        -1.5900 
 243   0.0000      -0.049953        -1.3593 
 244   0.0000      -0.028080        -0.7641 
 245   0.0000      -0.025340        -0.6895 
 246   0.0000      -0.020583        -0.5601 
 247   0.0000      -0.018221        -0.4958 
 248   0.0000      -0.014549        -0.3959 
 249   0.0000      -0.010165        -0.2766 
 250   0.0000      -0.007928        -0.2157 
 251   0.0000      -0.004212        -0.1146 
 252   0.0000      -0.003435        -0.0935 
 253   0.0000      -0.002295        -0.0624 
 254   0.0000       0.000929         0.0253 
 255   0.0000       0.003945         0.1073 
 256   0.0000       0.013219         0.3597 
 257   0.0000       0.017386         0.4731 
 258   0.0000       0.022137         0.6024 
 259   0.0000       0.025983         0.7070 
 260   0.0000       0.026176         0.7123 
 261   0.0000       0.027296         0.7428 
 262   0.0000       0.029897         0.8135 
 263   0.0000       0.032960         0.8969 
 264   0.0000       0.034853         0.9484 
 265   0.0000       0.035181         0.9573 
 266   0.0000       0.036091         0.9821 
 267   0.0000       0.037909         1.0316 
 268   0.0000       0.040103         1.0913 
 269   0.0000       0.042940         1.1685 
 270   0.0000       0.043850         1.1932 
 271   0.0000       0.048064         1.3079 
 272   0.0000       0.052925         1.4402 
 273   0.0000       0.055486         1.5098 
 274   0.0000       0.055810         1.5187 
 275   0.0000       0.057644         1.5686 
 276   0.0000       0.060670         1.6509 
 277   0.0000       0.061362         1.6698 
 278   0.0000       0.065671         1.7870 
 279   0.0000       0.066386         1.8065 
 280   0.0000       0.067441         1.8352 
 281   0.0000       0.071461         1.9445 
 282   0.0000       0.073450         1.9987 
 283   0.0000       0.076124         2.0715 
 284   0.0000       0.077634         2.1125 
 285   0.0000       0.079457         2.1621 
 286   0.0000       0.080096         2.1795 
 287   0.0000       0.082655         2.2492 
 288   0.0000       0.084537         2.3004 
 289   0.0000       0.085739         2.3331 
 290   0.0000       0.088890         2.4188 
 291   0.0000       0.089777         2.4430 
 292   0.0000       0.091623         2.4932 
 293   0.0000       0.092307         2.5118 
 294   0.0000       0.094963         2.5841 
 295   0.0000       0.095586         2.6010 
 296   0.0000       0.097124         2.6429 
 297   0.0000       0.097613         2.6562 
 298   0.0000       0.099422         2.7054 
 299   0.0000       0.102082         2.7778 
 300   0.0000       0.104665         2.8481 
 301   0.0000       0.107903         2.9362 
 302   0.0000       0.110422         3.0047 
 303   0.0000       0.111070         3.0224 
 304   0.0000       0.113623         3.0918 
 305   0.0000       0.114960         3.1282 
 306   0.0000       0.118676         3.2293 
 307   0.0000       0.120581         3.2812 
 308   0.0000       0.123711         3.3664 
 309   0.0000       0.129085         3.5126 
 310   0.0000       0.134894         3.6707 
 311   0.0000       0.137664         3.7460 
 312   0.0000       0.139247         3.7891 
 313   0.0000       0.140780         3.8308 
 314   0.0000       0.140948         3.8354 
 315   0.0000       0.142766         3.8848 
 316   0.0000       0.144361         3.9283 
 317   0.0000       0.146192         3.9781 
 318   0.0000       0.148553         4.0423 
 319   0.0000       0.149939         4.0800 
 320   0.0000       0.152492         4.1495 
 321   0.0000       0.153446         4.1755 
 322   0.0000       0.155494         4.2312 
 323   0.0000       0.156937         4.2705 
 324   0.0000       0.161702         4.4001 
 325   0.0000       0.164970         4.4891 
 326   0.0000       0.166209         4.5228 
 327   0.0000       0.167149         4.5483 
 328   0.0000       0.168619         4.5884 
 329   0.0000       0.170468         4.6387 
 330   0.0000       0.174671         4.7530 
 331   0.0000       0.175040         4.7631 
 332   0.0000       0.176429         4.8009 
 333   0.0000       0.177345         4.8258 
 334   0.0000       0.182102         4.9553 
 335   0.0000       0.183061         4.9814 
 336   0.0000       0.186282         5.0690 
 337   0.0000       0.189529         5.1573 
 338   0.0000       0.190579         5.1859 
 339   0.0000       0.192671         5.2428 
 340   0.0000       0.193032         5.2527 
 341   0.0000       0.196024         5.3341 
 342   0.0000       0.198440         5.3998 
 343   0.0000       0.201206         5.4751 
 344   0.0000       0.203294         5.5319 
 345   0.0000       0.204051         5.5525 
 346   0.0000       0.204916         5.5760 
 347   0.0000       0.206367         5.6155 
 348   0.0000       0.208023         5.6606 
 349   0.0000       0.211679         5.7601 
 350   0.0000       0.212315         5.7774 
 351   0.0000       0.213097         5.7987 
 352   0.0000       0.215407         5.8615 
 353   0.0000       0.216060         5.8793 
 354   0.0000       0.217133         5.9085 
 355   0.0000       0.219415         5.9706 
 356   0.0000       0.220957         6.0125 
 357   0.0000       0.225817         6.1448 
 358   0.0000       0.227538         6.1916 
 359   0.0000       0.229344         6.2408 
 360   0.0000       0.229877         6.2553 
 361   0.0000       0.231620         6.3027 
 362   0.0000       0.232628         6.3301 
 363   0.0000       0.233676         6.3586 
 364   0.0000       0.235379         6.4050 
 365   0.0000       0.237894         6.4734 
 366   0.0000       0.239816         6.5257 
 367   0.0000       0.241544         6.5728 
 368   0.0000       0.244114         6.6427 
 369   0.0000       0.245035         6.6677 
 370   0.0000       0.245218         6.6727 
 371   0.0000       0.249262         6.7828 
 372   0.0000       0.250524         6.8171 
 373   0.0000       0.252516         6.8713 
 374   0.0000       0.253265         6.8917 
 375   0.0000       0.253297         6.8926 
 376   0.0000       0.255932         6.9643 
 377   0.0000       0.256926         6.9913 
 378   0.0000       0.257598         7.0096 
 379   0.0000       0.260852         7.0981 
 380   0.0000       0.263494         7.1700 
 381   0.0000       0.263845         7.1796 
 382   0.0000       0.265342         7.2203 
 383   0.0000       0.266773         7.2593 
 384   0.0000       0.269258         7.3269 
 385   0.0000       0.271294         7.3823 
 386   0.0000       0.272103         7.4043 
 387   0.0000       0.274985         7.4827 
 388   0.0000       0.276141         7.5142 
 389   0.0000       0.278580         7.5805 
 390   0.0000       0.282290         7.6815 
[...]
Convergence tolerance for the energies         ...    2.500e-07
Orthogonality tolerance                        ...    1.000e-14
Level Shift                                    ...    0.000e+00
Constructing the preconditioner                ... o.k.
Building the initial guess                     ... o.k.
Number of trial vectors determined             ...     15


                       ****Iteration    0****
                <<< Triplet sigma vectors requested >>>

   Memory handling for direct AO based CIS:
   Memory per vector needed      ...   134 MB
   Memory needed                 ...  1211 MB
   Memory available              ...  6000 MB
   Number of vectors per batch   ...    44
   Number of batches             ...     1
   Time for densities:     7.692
   Time for K (COSX):   204.994
   Time for XC-Integration:     9.127
   Time for Sigma-Completion:    14.204
   Size of expansion space: 9
   Lowest Energy          :     0.048281120004
   Maximum Energy change  :     0.076605683355 (vector 2)
   Maximum residual norm  :     0.000464026952

                       ****Iteration    1****
   Time for densities:     2.562
   Time for K (COSX):   173.478
   Time for XC-Integration:     3.212
   Time for Sigma-Completion:     4.677
   Size of expansion space: 12
   Lowest Energy          :     0.046241572670
   Maximum Energy change  :     0.003506995067 (vector 2)
   Maximum residual norm  :     0.000022892779

                       ****Iteration    2****
   Time for densities:     2.561
   Time for K (COSX):   190.503
   Time for XC-Integration:     3.280
   Time for Sigma-Completion:     5.548
   Size of expansion space: 15
   Lowest Energy          :     0.046154632487
   Maximum Energy change  :     0.000157528926 (vector 2)
   Maximum residual norm  :     0.000002850769
   Rebuilding the expansion space

                       ****Iteration    3****
   Time for densities:     5.120
   Time for K (COSX):   163.447
   Time for XC-Integration:     6.367
   Time for Sigma-Completion:     9.465
   Size of expansion space: 6
   Lowest Energy          :     0.046151678594
   Maximum Energy change  :     0.000024115152 (vector 2)
   Maximum residual norm  :     0.000000806513

                       ****Iteration    4****
   Time for densities:     2.562
   Time for K (COSX):   160.698
   Time for XC-Integration:     3.235
   Time for Sigma-Completion:     4.664
   Size of expansion space: 9
   Lowest Energy          :     0.046151386312
   Maximum Energy change  :     0.000010516147 (vector 2)
   Maximum residual norm  :     0.000000283880

                       ****Iteration    5****
   Time for densities:     2.563
   Time for K (COSX):   161.310
   Time for XC-Integration:     3.293
   Time for Sigma-Completion:     4.591
   Size of expansion space: 12
   Lowest Energy          :     0.046151366788
   Maximum Energy change  :     0.000001644292 (vector 2)
   Maximum residual norm  :     0.000000161783

      *** CONVERGENCE OF RESIDUAL NORM REACHED ***

Storing the converged CI vectors               ... Y2.cis3

                 *** DAVIDSON DONE ***

------------------------------------
TD-DFT/TDA EXCITED STATES (TRIPLETS)
------------------------------------

the weight of the individual excitations are printed if larger than 1.0e-02

STATE  1:  E=   0.046151 au      1.256 eV    10129.1 cm**-1
   234a -> 238a  :     0.052992 (c=  0.23019945)
   236a -> 237a  :     0.918001 (c=  0.95812347)

STATE  2:  E=   0.055276 au      1.504 eV    12131.8 cm**-1
   234a -> 237a  :     0.176361 (c=  0.41995369)
   236a -> 238a  :     0.785563 (c=  0.88631969)

STATE  3:  E=   0.072905 au      1.984 eV    16000.8 cm**-1
   233a -> 238a  :     0.047084 (c=  0.21698830)
   234a -> 237a  :     0.014962 (c=  0.12231915)
   235a -> 237a  :     0.862837 (c= -0.92889039)
   235a -> 241a  :     0.014642 (c= -0.12100321)
   236a -> 238a  :     0.018791 (c= -0.13708133)

------------------------------
TD-DFT/TDA SPIN-ORBIT COUPLING
------------------------------

Calculating the spin-orbit integrals:             

Loading the effective charges         ... done
Entering the SOC calc. section        ... 
------------------------------------------------------------------------------
                         ORCA SPIN-ORBIT COUPLING CALCULATION
------------------------------------------------------------------------------

GBW file                                    ... Y2.gbw
Input density                               ... Y2.cisp0
Output integrals                            ... Y2.cis
Operator type                               ... Mean-field/Effective potential
   One-Electron Terms                       ... 1
   Coulomb Contribution                     ... 2
   Exchange Contribution                    ... 3
   Correlation Contribution                 ... 0
   Maximum number of centers                ... 4
Setting up the integration grid             ... done
Evaluating density on the grid              ... (NumEl=  474.000310) done
Evaluating Coulomb term semi-analytically   ... done
One-Center Exchange (+SOO)                  ... done
Evaluating the spin-orbit operator          ... done
Transforming the SOC integrals              ... done
Constructing the SOC matrix:                ... done
Diagonalizing the SOC matrix:               ... done

      --------------------------------------------------------------------------------
                      CALCULATED SOCME BETWEEN TRIPLETS AND SINGLETS                  
      --------------------------------------------------------------------------------
           Root                          <T|HSO|S>  (Re, Im) cm-1                     
         T      S             Z                     X                     Y           
      --------------------------------------------------------------------------------
         1      0    (   0.00 ,    0.17 )    (   0.00 ,    0.03 )    (  -0.00 ,    0.75 )
         1      1    (   0.00 ,    0.01 )    (   0.00 ,   -0.18 )    (  -0.00 ,    0.24 )
         1      2    (   0.00 ,   -0.00 )    (   0.00 ,    0.33 )    (  -0.00 ,   -0.41 )
         1      3    (   0.00 ,    0.01 )    (   0.00 ,   -0.02 )    (  -0.00 ,    0.18 )
         2      0    (   0.00 ,    0.15 )    (   0.00 ,   -0.18 )    (  -0.00 ,    1.25 )
         2      1    (   0.00 ,    0.02 )    (   0.00 ,   -0.11 )    (  -0.00 ,    0.01 )
         2      2    (   0.00 ,    0.01 )    (   0.00 ,    0.18 )    (  -0.00 ,   -0.16 )
         2      3    (   0.00 ,   -0.01 )    (   0.00 ,   -0.09 )    (  -0.00 ,    0.07 )
         3      0    (   0.00 ,   -0.07 )    (   0.00 ,   -1.14 )    (  -0.00 ,   -1.41 )
         3      1    (   0.00 ,   -0.02 )    (   0.00 ,   -0.07 )    (  -0.00 ,   -0.15 )
         3      2    (   0.00 ,   -0.02 )    (   0.00 ,   -0.05 )    (  -0.00 ,    0.12 )
         3      3    (   0.00 ,    0.01 )    (   0.00 ,   -0.10 )    (  -0.00 ,   -0.01 )

SOC stabilization of the ground state:  -0.0004 cm-1
Eigenvalues of the SOC matrix:

   State:        cm-1         eV
     0:          0.00         0.0000
     1:      10129.05         1.2558
     2:      10129.05         1.2558
     3:      10129.05         1.2558
     4:      12131.77         1.5041
     5:      12131.77         1.5041
     6:      12131.77         1.5041
     7:      14757.81         1.8297
     8:      16000.77         1.9838
     9:      16000.77         1.9838
    10:      16000.77         1.9838
    11:      17063.85         2.1156
    12:      18020.50         2.2343

The threshold for printing is 0.0100
Eigenvectors of the SOC matrix:

             E(cm-1)  Weight      Real         Imag     : Root  Spin  Ms
 STATE  0:      0.00
                      1.00000     -0.77656     -0.63004 : 0     0     0
 STATE  1:  10129.05
                      0.49784      0.48993     -0.50775 : 1     1    -1
                      0.49784     -0.16601      0.68577 : 1     1     1
 STATE  2:  10129.05
                      0.94376     -0.58889     -0.77263 : 1     1     0
                      0.02812      0.16662     -0.01894 : 1     1    -1
                      0.02812      0.06243     -0.15564 : 1     1     1
 STATE  3:  10129.05
                      0.05193      0.14710     -0.17404 : 1     1     0
                      0.47404     -0.39974     -0.56057 : 1     1    -1
                      0.47404     -0.61932     -0.30079 : 1     1     1
 STATE  4:  12131.77
                      0.03165     -0.01298      0.17742 : 2     1     0
                      0.48418     -0.10144      0.68839 : 2     1    -1
                      0.48418     -0.00016     -0.69583 : 2     1     1
 STATE  5:  12131.77
                      0.93640      0.07205      0.96499 : 2     1     0
                      0.03180     -0.12860     -0.12354 : 2     1    -1
                      0.03180     -0.10883      0.14126 : 2     1     1
 STATE  6:  12131.77
                      0.03195     -0.17680      0.02629 : 2     1     0
                      0.48402      0.07444      0.69172 : 2     1    -1
                      0.48402      0.13006      0.68345 : 2     1     1
 STATE  7:  14757.81
                      1.00000     -0.90398     -0.42757 : 1     0     0
 STATE  8:  16000.77
                      0.04442      0.16306      0.13355 : 3     1     0
                      0.47779      0.13617      0.67768 : 3     1    -1
                      0.47779     -0.69122      0.00000 : 3     1     1
 STATE  9:  16000.77
                      0.95304      0.88056      0.42150 : 3     1     0
                      0.02348     -0.09610     -0.11934 : 3     1    -1
                      0.02348      0.15322      0.00000 : 3     1     1
 STATE 10:  16000.77
                      0.49873      0.15413      0.68919 : 3     1    -1
                      0.49873      0.70621      0.00000 : 3     1     1
 STATE 11:  17063.85
                      1.00000     -0.91943      0.39325 : 2     0     0
 STATE 12:  18020.50
                      1.00000      0.14686      0.98916 : 3     0     0

-----------------------------
TD-DFT/TDA-EXCITATION SPECTRA
-----------------------------

Center of mass = ( 18.2955,-12.8181, -0.6264)
Calculating the Dipole integrals                  ... done
Transforming integrals                            ... done
Calculating the Linear Momentum integrals         ... done
Transforming integrals                            ... done
Calculating angular momentum integrals            ... done
Transforming integrals                            ... done

-----------------------------------------------------------------------------
         ABSORPTION SPECTRUM VIA TRANSITION ELECTRIC DIPOLE MOMENTS
-----------------------------------------------------------------------------
State   Energy    Wavelength  fosc         T2        TX        TY        TZ  
        (cm-1)      (nm)                 (au**2)    (au)      (au)      (au) 
-----------------------------------------------------------------------------
   1   14757.8    677.6   2.918412842  65.10289   6.03326  -5.35680  -0.08616
   2   17063.8    586.0   0.146862265   2.83341   1.68035   0.04079   0.09035
   3   18020.5    554.9   0.009634538   0.17601   0.29134   0.28434   0.10142
   4   10129.1    987.3   spin forbidden (mult=3)
   5   12131.8    824.3   spin forbidden (mult=3)
   6   16000.8    625.0   spin forbidden (mult=3)

-----------------------------------------------------------------------------
         ABSORPTION SPECTRUM VIA TRANSITION VELOCITY DIPOLE MOMENTS
-----------------------------------------------------------------------------
State   Energy    Wavelength   fosc        P2         PX        PY        PZ  
        (cm-1)      (nm)                 (au**2)     (au)      (au)      (au) 
-----------------------------------------------------------------------------
   1   14757.8    677.6   0.577360860   0.05823  -0.18975   0.14792  -0.01863
   2   17063.8    586.0   0.018309802   0.00214  -0.00989   0.04271   0.01461
   3   18020.5    554.9   0.118930506   0.01465   0.08671   0.08128   0.02286
   4   10129.1    987.3   spin forbidden (mult=3)
   5   12131.8    824.3   spin forbidden (mult=3)
   6   16000.8    625.0   spin forbidden (mult=3)

-------------------------------------------------------------------
                             CD SPECTRUM
-------------------------------------------------------------------
State  Energy     Wavelength     R         MX        MY        MZ   
       (cm-1)       (nm)     (1e40*cgs)   (au)      (au)      (au)  
-------------------------------------------------------------------
   1   14757.8    677.6    -78.31000   0.02851   0.05372   0.58419
   2   17063.8    586.0     13.74500   0.00683  -0.07479   0.22935
   3   18020.5    554.9     -5.73463  -0.00039  -0.03207  -0.02890
   4   10129.1    987.3 spin forbidden
   5   12131.8    824.3 spin forbidden
   6   16000.8    625.0 spin forbidden

-------------------------------------------
SOC CORRECTED TD-DFT/TDA-EXCITATION SPECTRA
--------------------------------------------

-----------------------------------------------------------------------------
  SOC CORRECTED ABSORPTION SPECTRUM VIA TRANSITION ELECTRIC DIPOLE MOMENTS*  
-----------------------------------------------------------------------------
State   Energy  Wavelength   fosc         T2         TX        TY        TZ  
        (cm-1)    (nm)                  (au**2)     (au)      (au)      (au) 
-----------------------------------------------------------------------------
   1   10129.1    987.3   0.000000001   0.00000   0.00011   0.00015   0.00001
   2   10129.1    987.3   0.000000000   0.00000   0.00007   0.00005   0.00000
   3   10129.1    987.3   0.000000018   0.00000   0.00051   0.00058   0.00001
   4   12131.8    824.3   0.000000003   0.00000   0.00019   0.00021   0.00001
   5   12131.8    824.3   0.000000000   0.00000   0.00005   0.00006   0.00000
   6   12131.8    824.3   0.000000007   0.00000   0.00022   0.00038   0.00001
   7   14757.8    677.6   2.918412786  65.10289   6.03326   5.35680   0.08616
   8   16000.8    625.0   0.000000012   0.00000   0.00044   0.00023   0.00001
   9   16000.8    625.0   0.000000001   0.00000   0.00013   0.00011   0.00000
  10   16000.8    625.0   0.000000097   0.00000   0.00076   0.00119   0.00004
  11   17063.8    586.0   0.146862234   2.83341   1.68035   0.04079   0.09035
  12   18020.5    554.9   0.009634537   0.17601   0.29134   0.28434   0.10142

-----------------------------------------------------------------------------
  SOC CORRECTED ABSORPTION SPECTRUM VIA TRANSITION VELOCITY DIPOLE MOMENTS*  
-----------------------------------------------------------------------------
State   Energy  Wavelength   fosc         P2         PX        PY        PZ  
        (cm-1)    (nm)                  (au**2)     (au)      (au)      (au) 
-----------------------------------------------------------------------------
   1   10129.1    987.3   0.000000001   0.00000   0.00001   0.00000   0.00000
   2   10129.1    987.3   0.000000000   0.00000   0.00000   0.00000   0.00000
   3   10129.1    987.3   0.000000007   0.00000   0.00002   0.00002   0.00000
   4   12131.8    824.3   0.000000001   0.00000   0.00001   0.00001   0.00000
   5   12131.8    824.3   0.000000000   0.00000   0.00000   0.00000   0.00000
   6   12131.8    824.3   0.000000000   0.00000   0.00000   0.00000   0.00000
   7   14757.8    677.6   0.577360810   0.05823   0.18975   0.14792   0.01863
   8   16000.8    625.0   0.000000002   0.00000   0.00001   0.00001   0.00000
   9   16000.8    625.0   0.000000000   0.00000   0.00000   0.00000   0.00000
  10   16000.8    625.0   0.000000014   0.00000   0.00003   0.00002   0.00000
  11   17063.8    586.0   0.018309799   0.00214   0.00989   0.04271   0.01461
  12   18020.5    554.9   0.118930498   0.01465   0.08671   0.08128   0.02286

-------------------------------------------------------------------
                    SOC CORRECTED CD SPECTRUM*                     
-------------------------------------------------------------------
State   Energy Wavelength       R         MX        MY        MZ   
        (cm-1)   (nm)       (1e40*sgs)   (au)      (au)      (au)  
-------------------------------------------------------------------
   1   10129.1    987.3      0.00000   0.00000   0.00000   0.00004
   2   10129.1    987.3      0.00000   0.00000   0.00000   0.00001
   3   10129.1    987.3      0.00000   0.00001   0.00001   0.00001
   4   12131.8    824.3      0.00000   0.00000   0.00001   0.00001
   5   12131.8    824.3      0.00000   0.00000   0.00000   0.00001
   6   12131.8    824.3      0.00000   0.00000   0.00000   0.00002
   7   14757.8    677.6     78.30999   0.02851   0.05372   0.58419
   8   16000.8    625.0      0.00000   0.00000   0.00001   0.00003
   9   16000.8    625.0      0.00000   0.00000   0.00000   0.00000
  10   16000.8    625.0      0.00000   0.00001   0.00001   0.00007
  11   17063.8    586.0     13.74499   0.00683   0.07479   0.22935
  12   18020.5    554.9      5.73462   0.00039   0.03207   0.02890

*The X,Y and Z components are the absolute values of the complex numbers

Total run time:     3518.690 sec

           *** ORCA-CIS/TD-DFT FINISHED WITHOUT ERROR ***

---------------------------
SOC CIS/TD-DFT TOTAL ENERGY
---------------------------

    E(SCF)        =  -4798.219123101 Eh
    E(SOC CIS)    =      0.046151367 Eh (SOC Root  1)
    ----------------------------- ---------
    E(tot)        =  -4798.172971734 Eh


-------------------------   --------------------
FINAL SINGLE POINT ENERGY     -4798.172971734472
-------------------------   --------------------


                            ***************************************
                            *     ORCA property calculations      *
                            ***************************************

                                    ---------------------
                                    Active property flags
                                    ---------------------
   (+) Dipole Moment


------------------------------------------------------------------------------
                       ORCA ELECTRIC PROPERTIES CALCULATION
------------------------------------------------------------------------------

Dipole Moment Calculation                       ... on
Quadrupole Moment Calculation                   ... off
Polarizability Calculation                      ... off
GBWName                                         ... Y2.gbw
Electron density file                           ... Y2.scfp
The origin for moment calculation is the CENTER OF MASS  = (18.295547, -12.818084 -0.626432)

-------------
DIPOLE MOMENT
-------------
                                X             Y             Z
Electronic contribution:      5.24426       6.42588      -6.91069
Nuclear contribution   :     -5.24028      -4.47981       6.58182
                        -----------------------------------------
Total Dipole Moment    :      0.00398       1.94607      -0.32888
                        -----------------------------------------
Magnitude (a.u.)       :      1.97367
Magnitude (Debye)      :      5.01666



--------------------
Rotational spectrum 
--------------------
 
Rotational constants in cm-1:     0.002161     0.000311     0.000276 
Rotational constants in MHz :    64.784682     9.310306     8.260349 

 Dipole components along the rotational axes: 
x,y,z [a.u.] :    -1.269915     1.469461     0.351231 
x,y,z [Debye]:    -3.227869     3.735073     0.892759 

 

Timings for individual modules:

Sum of individual times         ...     6128.458 sec (= 102.141 min)
GTO integral calculation        ...        7.915 sec (=   0.132 min)   0.1 %
SCF iterations                  ...     2599.157 sec (=  43.319 min)  42.4 %
CIS module                      ...     3521.386 sec (=  58.690 min)  57.5 %
                             ****ORCA TERMINATED NORMALLY****
TOTAL RUN TIME: 0 days 1 hours 42 minutes 11 seconds 805 msec
