
                                 *****************
                                 * O   R   C   A *
                                 *****************

           --- An Ab Initio, DFT and Semiempirical electronic structure package ---

                  #######################################################
                  #                        -***-                        #
                  #          Department of theory and spectroscopy      #
                  #               Directorship: Frank Neese             #
                  #        Max Planck Institute fuer Kohlenforschung    #
                  #                Kaiser Wilhelm Platz 1               #
                  #                 D-45470 Muelheim/Ruhr               #
                  #                      Germany                        #
                  #                                                     #
                  #                  All rights reserved                #
                  #                        -***-                        #
                  #######################################################


                         Program Version 4.2.0 -  RELEASE  -


 With contributions from (in alphabetic order):
   Daniel Aravena         : Magnetic Suceptibility
   Michael Atanasov       : Ab Initio Ligand Field Theory (pilot matlab implementation)
   Alexander A. Auer      : GIAO ZORA, VPT2
   Ute Becker             : Parallelization
   Giovanni Bistoni       : ED, misc. LED, open-shell LED, HFLED
   Martin Brehm           : Molecular dynamics
   Dmytro Bykov           : SCF Hessian
   Vijay G. Chilkuri      : MRCI spin determinant printing, contributions to CSF-ICE
   Dipayan Datta          : RHF DLPNO-CCSD density
   Achintya Kumar Dutta   : EOM-CC, STEOM-CC
   Dmitry Ganyushin       : Spin-Orbit,Spin-Spin,Magnetic field MRCI
   Miquel Garcia          : C-PCM Hessian, Gaussian charge scheme
   Yang Guo               : DLPNO-NEVPT2, CIM, IAO-localization
   Andreas Hansen         : Spin unrestricted coupled pair/coupled cluster methods
   Benjamin Helmich-Paris : CASSCF linear response (MC-RPA)
   Lee Huntington         : MR-EOM, pCC
   Robert Izsak           : Overlap fitted RIJCOSX, COSX-SCS-MP3, EOM
   Christian Kollmar      : KDIIS, OOCD, Brueckner-CCSD(T), CCSD density
   Simone Kossmann        : Meta GGA functionals, TD-DFT gradient, OOMP2, MP2 Hessian
   Martin Krupicka        : AUTO-CI
   Lucas Lang             : DCDCAS
   Dagmar Lenk            : GEPOL surface, SMD
   Dimitrios Liakos       : Extrapolation schemes; Compound Job, initial MDCI parallelization
   Dimitrios Manganas     : Further ROCIS development; embedding schemes
   Dimitrios Pantazis     : SARC Basis sets
   Taras Petrenko         : DFT Hessian,TD-DFT gradient, ASA, ECA, R-Raman, ABS, FL, XAS/XES, NRVS
   Peter Pinski           : DLPNO-MP2, DLPNO-MP2 Gradient
   Christoph Reimann      : Effective Core Potentials
   Marius Retegan         : Local ZFS, SOC
   Christoph Riplinger    : Optimizer, TS searches, QM/MM, DLPNO-CCSD(T), (RO)-DLPNO pert. Triples
   Tobias Risthaus        : Range-separated hybrids, TD-DFT gradient, RPA, STAB
   Michael Roemelt        : Original ROCIS implementation
   Masaaki Saitow         : Open-shell DLPNO-CCSD energy and density
   Barbara Sandhoefer     : DKH picture change effects
   Avijit Sen             : IP-ROCIS
   Kantharuban Sivalingam : CASSCF convergence, NEVPT2, FIC-MRCI
   Bernardo de Souza      : ESD, SOC TD-DFT
   Georgi Stoychev        : AutoAux, RI-MP2 NMR
   Willem Van den Heuvel  : Paramagnetic NMR
   Boris Wezisla          : Elementary symmetry handling
   Frank Wennmohs         : Technical directorship


 We gratefully acknowledge several colleagues who have allowed us to
 interface, adapt or use parts of their codes:
   Stefan Grimme, W. Hujo, H. Kruse,             : VdW corrections, initial TS optimization,
                  C. Bannwarth                     DFT functionals, gCP, sTDA/sTD-DF
   Ed Valeev, F. Pavosevic, A. Kumar             : LibInt (2-el integral package), F12 methods
   Garnet Chan, S. Sharma, J. Yang, R. Olivares  : DMRG
   Ulf Ekstrom                                   : XCFun DFT Library
   Mihaly Kallay                                 : mrcc  (arbitrary order and MRCC methods)
   Andreas Klamt, Michael Diedenhofen            : otool_cosmo (COSMO solvation model)
   Jiri Pittner, Ondrej Demel                    : Mk-CCSD
   Frank Weinhold                                : gennbo (NPA and NBO analysis)
   Christopher J. Cramer and Donald G. Truhlar   : smd solvation model
   Lars Goerigk                                  : TD-DFT with DH, B97 family of functionals
   V. Asgeirsson, H. Jonsson                     : NEB implementation
   FAccTs GmbH                                   : IRC, NEB, NEB-TS, Multilevel, MM, QM/MM, CI optimization
   S Lehtola, MJT Oliveira, MAL Marques          : LibXC Library


 Your calculation uses the libint2 library for the computation of 2-el integrals
 For citations please refer to: http://libint.valeyev.net

 Your ORCA version has been built with support for libXC version: 4.2.3
 For citations please refer to: https://tddft.org/programs/libxc/

 This ORCA versions uses:
   CBLAS   interface :  Fast vector & matrix operations
   LAPACKE interface :  Fast linear algebra routines
   SCALAPACK package :  Parallel linear algebra routines


----- Orbital basis set information -----
Your calculation utilizes the basis: def2-TZVP
   F. Weigend and R. Ahlrichs, Phys. Chem. Chem. Phys. 7, 3297 (2005).

----- AuxJ basis set information -----
Your calculation utilizes the auxiliary basis: def2/J
   F. Weigend, Phys. Chem. Chem. Phys. 8, 1057 (2006).

================================================================================
                                        WARNINGS
                       Please study these warnings very carefully!
================================================================================

INFO   : Checking CIS options ...

WARNING: (CIS/TDDFT): Spin-orbit needs TRIPLETS set to TRUE
  ===> : ajusting flags

WARNING: CIS/ROCIS methods need fully converged wavefunctions
  ===> : Setting SCFConvForced true
         You can overwrite this default with %scf ConvForced false 


INFO   : the flag for use of LIBINT has been found!

================================================================================
                                       INPUT FILE
================================================================================
NAME = Y6.inp
|  1> # ORCA input file
|  2> # Y6.out: Geometry 184
|  3> ! B3LYP def2-TZVP def2/J RIJCOSX Grid4 TightSCF
|  4> 
|  5> %maxcore 6000
|  6> %tddft
|  7>   maxdim 5
|  8>   nroots 3
|  9>   dosoc true
| 10>   end
| 11> %pal
| 12>   nprocs 6
| 13>   end
| 14> 
| 15> 
| 16> * xyz 0 1
| 17>    C        2.66734         3.95000         1.81746
| 18>    O        2.70140         4.19135         0.62820
| 19>    C        1.96722         4.73311         2.86767
| 20>    C        1.23032         5.90147         2.71096
| 21>    C        0.66812         6.46740         3.84933
| 22>    F       -0.04883         7.58522         3.76940
| 23>    C        0.84907         5.86672         5.10953
| 24>    F        0.29260         6.45292         6.16751
| 25>    C        1.58046         4.68872         5.26353
| 26>    C        2.14479         4.10882         4.11927
| 27>    C        2.89282         2.83977         3.91260
| 28>    C        2.92844         1.77783         4.80123
| 29>    C        3.34024         0.47889         4.38339
| 30>    N        3.66087        -0.58030         4.02808
| 31>    C        2.47165         1.87998         6.15023
| 32>    N        2.12545         1.96749         7.25645
| 33>    C        3.35919         2.82347         2.53727
| 34>    C        4.24544         2.07391         1.79145
| 35>    C        5.32957         1.18553         2.03895
| 36>    S        5.82015         0.22939         0.61555
| 37>    C        7.19791        -0.38732         1.44991
| 38>    C        7.26449         0.11928         2.76613
| 39>    C        6.22834         1.01566         3.11454
| 40>    C        6.26119         1.84028         4.37329
| 41>    C        6.37122         1.04582         5.68196
| 42>    S        8.74293        -0.36263         3.60956
| 43>    C        9.27479        -1.19256         2.17212
| 44>    C        8.34048        -1.15385         1.12444
| 45>    N        8.89135        -1.71691        -0.01544
| 46>    C        8.30581        -1.43867        -1.32712
| 47>    C        8.73730        -0.09501        -1.90971
| 48>    C       10.20700        -2.07234         0.28610
| 49>    C       10.46292        -1.75281         1.65568
| 50>    C       11.79040        -1.82349         2.19290
| 51>    N       12.16355        -1.58475         3.44216
| 52>    S       13.81611        -1.69106         3.48056
| 53>    N       14.08581        -2.04072         1.88465
| 54>    C       12.90045        -2.08652         1.29294
| 55>    C       12.62512        -2.39906        -0.07855
| 56>    C       11.28557        -2.50994        -0.55079
| 57>    N       11.29888        -2.92669        -1.88893
| 58>    C       10.30744        -3.85605        -2.46167
| 59>    C        9.80341        -3.48881        -3.85246
| 60>    C       12.63723        -2.98106        -2.28038
| 61>    C       13.46124        -2.65605        -1.18857
| 62>    S       15.15812        -2.59384        -1.57738
| 63>    C       14.75991        -3.01573        -3.24639
| 64>    C       13.37702        -3.21565        -3.46146
| 65>    S       13.03243        -3.60279        -5.11144
| 66>    C       14.75549        -3.44606        -5.53540
| 67>    C       15.54854        -3.12211        -4.40032
| 68>    C       17.01807        -2.80267        -4.40546
| 69>    C       17.27746        -1.29137        -4.49402
| 70>    C       15.31533        -3.57307        -6.82656
| 71>    C       14.79600        -3.86545        -8.07614
| 72>    C       15.54332        -3.93750        -9.33480
| 73>    C       16.88234        -3.65436        -9.55260
| 74>    C       17.49679        -3.74735       -10.84000
| 75>    N       18.02180        -3.81006       -11.87500
| 76>    C       17.78380        -3.23561        -8.52390
| 77>    N       18.53807        -2.89977        -7.70456
| 78>    C       14.58867        -4.36717       -10.39284
| 79>    C       14.74844        -4.64376       -11.75863
| 80>    C       13.62918        -5.06856       -12.47349
| 81>    F       13.72869        -5.36061       -13.76697
| 82>    C       12.36784        -5.21371       -11.86934
| 83>    F       11.34878        -5.63414       -12.61165
| 84>    C       12.19633        -4.92746       -10.52235
| 85>    C       13.31594        -4.51592        -9.81172
| 86>    C       13.38319        -4.19424        -8.36982
| 87>    O       12.43402        -4.21520        -7.60301
| 88>    H        1.08945         6.36137         1.73145
| 89>    H        1.68442         4.26836         6.26290
| 90>    H        4.09880         2.28726         0.72194
| 91>    H        5.39161         2.50450         4.40808
| 92>    H        7.14106         2.50523         4.28836
| 93>    H        5.54105         0.33734         5.79978
| 94>    H        6.36489         1.73607         6.53885
| 95>    H        7.30374         0.46416         5.73327
| 96>    H        7.21423        -1.47311        -1.19484
| 97>    H        8.54970        -2.25110        -2.01308
| 98>    H        9.81456        -0.08831        -2.13564
| 99>    H        8.51679         0.72454        -1.20933
|100>    H        8.18896         0.10148        -2.84363
|101>    H        9.47691        -3.92063        -1.74756
|102>    H       10.76525        -4.85981        -2.48214
|103>    H        9.00792        -4.18874        -4.14923
|104>    H       10.59328        -3.55948        -4.61195
|105>    H        9.39567        -2.46767        -3.88537
|106>    H       17.53954        -3.30814        -5.22917
|107>    H       17.45740        -3.19869        -3.47496
|108>    H       16.88977        -0.88532        -5.44043
|109>    H       18.35657        -1.08116        -4.45267
|110>    H       16.78842        -0.75460        -3.66804
|111>    H       16.38742        -3.39213        -6.80328
|112>    H       15.69397        -4.54853       -12.28959
|113>    H       11.22402        -5.03760       -10.04041
|114> *
|115> 
|116>                          ****END OF INPUT****
================================================================================

                       ****************************
                       * Single Point Calculation *
                       ****************************

---------------------------------
CARTESIAN COORDINATES (ANGSTROEM)
---------------------------------
  C      2.667340    3.950000    1.817460
  O      2.701400    4.191350    0.628200
  C      1.967220    4.733110    2.867670
  C      1.230320    5.901470    2.710960
  C      0.668120    6.467400    3.849330
  F     -0.048830    7.585220    3.769400
  C      0.849070    5.866720    5.109530
  F      0.292600    6.452920    6.167510
  C      1.580460    4.688720    5.263530
  C      2.144790    4.108820    4.119270
  C      2.892820    2.839770    3.912600
  C      2.928440    1.777830    4.801230
  C      3.340240    0.478890    4.383390
  N      3.660870   -0.580300    4.028080
  C      2.471650    1.879980    6.150230
  N      2.125450    1.967490    7.256450
  C      3.359190    2.823470    2.537270
  C      4.245440    2.073910    1.791450
  C      5.329570    1.185530    2.038950
  S      5.820150    0.229390    0.615550
  C      7.197910   -0.387320    1.449910
  C      7.264490    0.119280    2.766130
  C      6.228340    1.015660    3.114540
  C      6.261190    1.840280    4.373290
  C      6.371220    1.045820    5.681960
  S      8.742930   -0.362630    3.609560
  C      9.274790   -1.192560    2.172120
  C      8.340480   -1.153850    1.124440
  N      8.891350   -1.716910   -0.015440
  C      8.305810   -1.438670   -1.327120
  C      8.737300   -0.095010   -1.909710
  C     10.207000   -2.072340    0.286100
  C     10.462920   -1.752810    1.655680
  C     11.790400   -1.823490    2.192900
  N     12.163550   -1.584750    3.442160
  S     13.816110   -1.691060    3.480560
  N     14.085810   -2.040720    1.884650
  C     12.900450   -2.086520    1.292940
  C     12.625120   -2.399060   -0.078550
  C     11.285570   -2.509940   -0.550790
  N     11.298880   -2.926690   -1.888930
  C     10.307440   -3.856050   -2.461670
  C      9.803410   -3.488810   -3.852460
  C     12.637230   -2.981060   -2.280380
  C     13.461240   -2.656050   -1.188570
  S     15.158120   -2.593840   -1.577380
  C     14.759910   -3.015730   -3.246390
  C     13.377020   -3.215650   -3.461460
  S     13.032430   -3.602790   -5.111440
  C     14.755490   -3.446060   -5.535400
  C     15.548540   -3.122110   -4.400320
  C     17.018070   -2.802670   -4.405460
  C     17.277460   -1.291370   -4.494020
  C     15.315330   -3.573070   -6.826560
  C     14.796000   -3.865450   -8.076140
  C     15.543320   -3.937500   -9.334800
  C     16.882340   -3.654360   -9.552600
  C     17.496790   -3.747350  -10.840000
  N     18.021800   -3.810060  -11.875000
  C     17.783800   -3.235610   -8.523900
  N     18.538070   -2.899770   -7.704560
  C     14.588670   -4.367170  -10.392840
  C     14.748440   -4.643760  -11.758630
  C     13.629180   -5.068560  -12.473490
  F     13.728690   -5.360610  -13.766970
  C     12.367840   -5.213710  -11.869340
  F     11.348780   -5.634140  -12.611650
  C     12.196330   -4.927460  -10.522350
  C     13.315940   -4.515920   -9.811720
  C     13.383190   -4.194240   -8.369820
  O     12.434020   -4.215200   -7.603010
  H      1.089450    6.361370    1.731450
  H      1.684420    4.268360    6.262900
  H      4.098800    2.287260    0.721940
  H      5.391610    2.504500    4.408080
  H      7.141060    2.505230    4.288360
  H      5.541050    0.337340    5.799780
  H      6.364890    1.736070    6.538850
  H      7.303740    0.464160    5.733270
  H      7.214230   -1.473110   -1.194840
  H      8.549700   -2.251100   -2.013080
  H      9.814560   -0.088310   -2.135640
  H      8.516790    0.724540   -1.209330
  H      8.188960    0.101480   -2.843630
  H      9.476910   -3.920630   -1.747560
  H     10.765250   -4.859810   -2.482140
  H      9.007920   -4.188740   -4.149230
  H     10.593280   -3.559480   -4.611950
  H      9.395670   -2.467670   -3.885370
  H     17.539540   -3.308140   -5.229170
  H     17.457400   -3.198690   -3.474960
  H     16.889770   -0.885320   -5.440430
  H     18.356570   -1.081160   -4.452670
  H     16.788420   -0.754600   -3.668040
  H     16.387420   -3.392130   -6.803280
  H     15.693970   -4.548530  -12.289590
  H     11.224020   -5.037600  -10.040410

----------------------------
CARTESIAN COORDINATES (A.U.)
----------------------------
  NO LB      ZA    FRAG     MASS         X           Y           Z
   0 C     6.0000    0    12.011    5.040542    7.464418    3.434502
   1 O     8.0000    0    15.999    5.104906    7.920504    1.187126
   2 C     6.0000    0    12.011    3.717507    8.944282    5.419111
   3 C     6.0000    0    12.011    2.324968   11.152162    5.122972
   4 C     6.0000    0    12.011    1.262564   12.221615    7.274179
   5 F     9.0000    0    18.998   -0.092275   14.333988    7.123134
   6 C     6.0000    0    12.011    1.604510   11.086494    9.655612
   7 F     9.0000    0    18.998    0.552934   12.194252   11.654905
   8 C     6.0000    0    12.011    2.986637    8.860397    9.946630
   9 C     6.0000    0    12.011    4.053066    7.764545    7.784292
  10 C     6.0000    0    12.011    5.466638    5.366388    7.393742
  11 C     6.0000    0    12.011    5.533950    3.359612    9.073010
  12 C     6.0000    0    12.011    6.312139    0.904971    8.283407
  13 N     7.0000    0    14.007    6.918042   -1.096608    7.611968
  14 C     6.0000    0    12.011    4.670742    3.552647   11.622250
  15 N     7.0000    0    14.007    4.016518    3.718017   13.712703
  16 C     6.0000    0    12.011    6.347949    5.335585    4.794745
  17 C     6.0000    0    12.011    8.022719    3.919122    3.385350
  18 C     6.0000    0    12.011   10.071428    2.240327    3.853057
  19 S    16.0000    0    32.060   10.998490    0.433484    1.163221
  20 C     6.0000    0    12.011   13.602079   -0.731929    2.739933
  21 C     6.0000    0    12.011   13.727897    0.225407    5.227228
  22 C     6.0000    0    12.011   11.769857    1.919319    5.885628
  23 C     6.0000    0    12.011   11.831934    3.477625    8.264320
  24 C     6.0000    0    12.011   12.039861    1.976313   10.737348
  25 S    16.0000    0    32.060   16.521743   -0.685271    6.821080
  26 C     6.0000    0    12.011   17.526813   -2.253612    4.104712
  27 C     6.0000    0    12.011   15.761223   -2.180460    2.124884
  28 N     7.0000    0    14.007   16.802216   -3.244490   -0.029177
  29 C     6.0000    0    12.011   15.695706   -2.718692   -2.507893
  30 C     6.0000    0    12.011   16.511104   -0.179543   -3.608829
  31 C     6.0000    0    12.011   19.288435   -3.916155    0.540651
  32 C     6.0000    0    12.011   19.772053   -3.312331    3.128782
  33 C     6.0000    0    12.011   22.280627   -3.445897    4.143980
  34 N     7.0000    0    14.007   22.985778   -2.994743    6.504740
  35 S    16.0000    0    32.060   26.108664   -3.195640    6.577305
  36 N     7.0000    0    14.007   26.618323   -3.856402    3.561472
  37 C     6.0000    0    12.011   24.378318   -3.942951    2.443303
  38 C     6.0000    0    12.011   23.858019   -4.533566   -0.148438
  39 C     6.0000    0    12.011   21.326637   -4.743099   -1.040842
  40 N     7.0000    0    14.007   21.351789   -5.530643   -3.569560
  41 C     6.0000    0    12.011   19.478239   -7.286878   -4.651882
  42 C     6.0000    0    12.011   18.525760   -6.592895   -7.280094
  43 C     6.0000    0    12.011   23.880904   -5.633387   -4.309294
  44 C     6.0000    0    12.011   25.438057   -5.019207   -2.246072
  45 S    16.0000    0    32.060   28.644696   -4.901647   -2.980816
  46 C     6.0000    0    12.011   27.892188   -5.698904   -6.134788
  47 C     6.0000    0    12.011   25.278904   -6.076698   -6.541211
  48 S    16.0000    0    32.060   24.627724   -6.808286   -9.659222
  49 C     6.0000    0    12.011   27.883835   -6.512110  -10.460390
  50 C     6.0000    0    12.011   29.382482   -5.899933   -8.315400
  51 C     6.0000    0    12.011   32.159492   -5.296279   -8.325113
  52 C     6.0000    0    12.011   32.649668   -2.440336   -8.492467
  53 C     6.0000    0    12.011   28.941779   -6.752124  -12.900329
  54 C     6.0000    0    12.011   27.960388   -7.304642  -15.261693
  55 C     6.0000    0    12.011   29.372618   -7.440797  -17.640216
  56 C     6.0000    0    12.011   31.902999   -6.905740  -18.051798
  57 C     6.0000    0    12.011   33.064141   -7.081465  -20.484631
  58 N     7.0000    0    14.007   34.056266   -7.199970  -22.440498
  59 C     6.0000    0    12.011   33.606512   -6.114417  -16.107837
  60 N     7.0000    0    14.007   35.031875   -5.479771  -14.559508
  61 C     6.0000    0    12.011   27.568591   -8.252755  -19.639621
  62 C     6.0000    0    12.011   27.870513   -8.775435  -22.220590
  63 C     6.0000    0    12.011   25.755418   -9.578190  -23.571480
  64 F     9.0000    0    18.998   25.943464  -10.130085  -26.015803
  65 C     6.0000    0    12.011   23.371830   -9.852484  -22.429802
  66 F     9.0000    0    18.998   21.446086  -10.646982  -23.832565
  67 C     6.0000    0    12.011   23.047724   -9.311550  -19.884360
  68 C     6.0000    0    12.011   25.163480   -8.533852  -18.541464
  69 C     6.0000    0    12.011   25.290564   -7.925965  -15.816668
  70 O     8.0000    0    15.999   23.496893   -7.965574  -14.367607
  71 H     1.0000    0     1.008    2.058762   12.021247    3.271966
  72 H     1.0000    0     1.008    3.183092    8.066031   11.835166
  73 H     1.0000    0     1.008    7.745609    4.322295    1.364269
  74 H     1.0000    0     1.008   10.188666    4.732819    8.330064
  75 H     1.0000    0     1.008   13.494648    4.734199    8.103826
  76 H     1.0000    0     1.008   10.471067    0.637480   10.959996
  77 H     1.0000    0     1.008   12.027899    3.280697   12.356636
  78 H     1.0000    0     1.008   13.802068    0.877135   10.834310
  79 H     1.0000    0     1.008   13.632919   -2.783774   -2.257920
  80 H     1.0000    0     1.008   16.156592   -4.253963   -3.804170
  81 H     1.0000    0     1.008   18.546831   -0.166882   -4.035775
  82 H     1.0000    0     1.008   16.094401    1.369182   -2.285303
  83 H     1.0000    0     1.008   15.474892    0.191769   -5.373682
  84 H     1.0000    0     1.008   17.908764   -7.408917   -3.302410
  85 H     1.0000    0     1.008   20.343374   -9.183710   -4.690565
  86 H     1.0000    0     1.008   17.022502   -7.915571   -7.840908
  87 H     1.0000    0     1.008   20.018398   -6.726442   -8.715322
  88 H     1.0000    0     1.008   17.755243   -4.663220   -7.342285
  89 H     1.0000    0     1.008   33.144927   -6.251479   -9.881699
  90 H     1.0000    0     1.008   32.989705   -6.044648   -6.566723
  91 H     1.0000    0     1.008   31.917040   -1.673012  -10.280923
  92 H     1.0000    0     1.008   34.688890   -2.043096   -8.414327
  93 H     1.0000    0     1.008   31.725516   -1.425987   -6.931591
  94 H     1.0000    0     1.008   30.967736   -6.410197  -12.856336
  95 H     1.0000    0     1.008   29.657305   -8.595476  -23.223959
  96 H     1.0000    0     1.008   21.210324   -9.519684  -18.973625

--------------------------------
INTERNAL COORDINATES (ANGSTROEM)
--------------------------------
 C      0   0   0     0.000000000000     0.00000000     0.00000000
 O      1   0   0     1.213980746841     0.00000000     0.00000000
 C      1   2   0     1.485385583140   126.94450499     0.00000000
 C      3   1   2     1.390195929968   127.82302000   359.01224944
 C      4   3   1     1.390047431493   117.66058006   180.44201176
 F      5   4   3     1.330386282175   120.71946705   180.00387412
 C      5   4   3     1.407715669054   120.49164645     0.05862261
 F      7   5   4     1.331394374819   118.01936727   179.77954147
 C      7   5   4     1.395109792131   121.76976063   359.44779153
 C      9   7   5     1.401457565002   118.05798758     0.23365142
 C     10   9   7     1.487531267671   131.98511639   184.41890387
 C     11  10   9     1.385152924734   125.29983282    16.13125717
 C     12  11  10     1.425277035948   121.20192620   162.06624225
 N     13  12  11     1.162296110765   178.96259926   302.60182400
 C     12  11  10     1.427898009873   122.88938761   346.69902711
 N     15  12  11     1.162426397025   178.65735056   263.36100336
 C     11  10   9     1.452342685388   107.61508768   185.91135870
 C     17  11  10     1.379683561002   136.40873289   167.83945582
 C     18  17  11     1.423310623617   137.25478632   341.95022807
 S     19  18  17     1.783518992329   113.91293968   165.86285370
 C     20  19  18     1.724734893049    91.45177460   172.23725460
 C     21  20  19     1.411917683436   111.12141103     0.32910933
 C     19  18  17     1.411926760813   133.82224623   335.62230651
 C     23  19  18     1.505167375876   125.80669460   358.86972885
 C     24  23  19     1.534891025904   115.53240755   133.66345708
 S     22  21  20     1.769009962267   112.71398046   185.48849630
 C     26  22  21     1.742955139440    89.51488922     1.69739430
 C     27  26  22     1.404303038023   113.52387837   357.33462398
 N     28  27  26     1.385575957824   109.75758289   174.11425021
 C     29  28  27     1.463140120289   120.07475044   198.81338635
 C     30  29  28     1.526766820376   113.34966814    80.58463673
 C     29  28  27     1.395776407237   107.48788118   357.68913349
 C     27  26  22     1.411468466881   138.38460023   165.69584249
 C     33  27  26     1.433807567702   131.43886847   359.04957160
 N     34  33  27     1.325476615297   127.22176331    13.80875560
 S     35  34  33     1.656421120881   106.92709714   184.53688803
 N     36  35  34     1.655877088947    98.84165998     0.23979172
 C     37  36  35     1.325630677715   106.96886038   359.77749478
 C     38  37  36     1.433343183121   127.32939043   182.21707630
 C     39  38  37     1.424675118931   120.98077150   175.12645645
 N     40  39  38     1.401597794733   109.30987537   184.75928627
 C     41  40  39     1.474684505513   123.49050750   142.86466548
 C     42  41  40     1.524207427682   115.14208167   138.10077249
 C     41  40  39     1.395481967601   106.76843779   355.76080646
 C     44  41  40     1.405942052967   109.58788366     2.36318872
 S     45  44  41     1.741965853454   113.94414348   183.55271582
 C     46  45  44     1.766962579202    89.01276642   359.93459321
 C     44  41  40     1.413248625897   137.98192665   185.57588018
 S     48  44  41     1.729466289958   136.90053547   358.58003545
 C     49  48  44     1.781359631882    90.83878234   174.40755651
 C     47  46  45     1.401716243111   131.98355409   175.19660929
 C     51  47  46     1.503857291800   122.44352765   357.18702571
 C     52  51  47     1.535953689308   111.97644024   279.78134070
 C     50  49  48     1.413027427653   126.35564680   182.86548830
 C     54  50  49     1.384427639749   134.03611447   358.15637177
 C     55  54  50     1.465572714163   126.46043657   179.07306639
 C     56  55  54     1.385849797056   128.14206859   355.71129195
 C     57  56  55     1.429543529453   122.92503661   180.78939583
 N     58  57  56     1.162236225644   178.48019175   171.90239239
 C     57  56  55     1.430456355189   123.75785136     0.44423891
 N     60  57  56     1.163198080337   178.63554245   167.04695592
 C     56  55  54     1.488429230095   107.31505924   176.39111740
 C     62  56  55     1.402644219002   132.53440412   182.47018036
 C     63  62  56     1.394353903139   117.89506053   178.22949501
 F     64  63  62     1.329769135226   120.36670045   180.85648705
 C     64  63  62     1.406074087877   122.08975672     0.44294071
 F     66  64  63     1.329010460681   118.71931391   180.56139478
 C     66  64  63     1.387709192410   120.44028538     0.30486813
 C     68  66  64     1.388483604729   117.27521647   359.16580779
 C     69  68  66     1.478876666561   126.88028361   181.78636398
 O     70  69  68     1.220393619534   124.99580723   357.95917284
 H      4   3   1     1.091234258535   121.58815406     0.74617840
 H      9   7   5     1.089151324702   118.50370988   180.17882454
 H     18  17  11     1.100396815790   109.53997055   167.01376510
 H     24  23  19     1.094791271841   109.97629961     8.27437414
 H     24  23  19     1.106138700299   106.40904471   254.32001068
 H     25  24  23     1.097728423473   111.79954807   301.71241141
 H     25  24  23     1.100338858489   109.80790295   181.25710533
 H     25  24  23     1.100252072073   111.97202344    61.95750563
 H     30  29  28     1.100104998807   106.45986596   318.61687333
 H     30  29  28     1.090901443119   109.42762867   204.58112578
 H     31  30  29     1.100717203690   111.11701214    65.93109131
 H     31  30  29     1.100372212935   110.85219401   304.81629526
 H     31  30  29     1.100677810306   109.88203455   185.64660648
 H     42  41  40     1.097225477921   107.05051303    14.23232222
 H     42  41  40     1.103423379578   107.55089579   260.90162818
 H     43  42  41     1.100353933014   109.38418695   185.03570489
 H     43  42  41     1.098050056191   112.19425241    66.44856416
 H     43  42  41     1.100028124777   111.93350950   305.10371372
 H     52  51  47     1.098148007283   111.64255011   156.93788970
 H     52  51  47     1.102575593463   108.07032155    40.53920598
 H     53  52  51     1.100396304383   110.68138417   297.09255944
 H     53  52  51     1.100171104283   110.57799874   177.57523228
 H     53  52  51     1.099784121953   111.21299143    57.15952261
 H     54  50  49     1.087500901195   110.85895198   177.83617648
 H     63  62  56     1.088583600556   123.82268296   358.40434746
 H     68  66  64     1.090772074863   121.21227793   180.12676003

---------------------------
INTERNAL COORDINATES (A.U.)
---------------------------
 C      0   0   0     0.000000000000     0.00000000     0.00000000
 O      1   0   0     2.294091143382     0.00000000     0.00000000
 C      1   2   0     2.806971955409   126.94450499     0.00000000
 C      3   1   2     2.627089580132   127.82302000   359.01224944
 C      4   3   1     2.626808958682   117.66058006   180.44201176
 F      5   4   3     2.514065725637   120.71946705   180.00387412
 C      5   4   3     2.660197088942   120.49164645     0.05862261
 F      7   5   4     2.515970744651   118.01936727   179.77954147
 C      7   5   4     2.636375433880   121.76976063   359.44779153
 C      9   7   5     2.648370986165   118.05798758     0.23365142
 C     10   9   7     2.811026711544   131.98511639   184.41890387
 C     11  10   9     2.617559681348   125.29983282    16.13125717
 C     12  11  10     2.693383262908   121.20192620   162.06624225
 N     13  12  11     2.196421335868   178.96259926   302.60182400
 C     12  11  10     2.698336185832   122.88938761   346.69902711
 N     15  12  11     2.196667541218   178.65735056   263.36100336
 C     11  10   9     2.744529927987   107.61508768   185.91135870
 C     17  11  10     2.607224081768   136.40873289   167.83945582
 C     18  17  11     2.689667282136   137.25478632   341.95022807
 S     19  18  17     3.370362450150   113.91293968   165.86285370
 C     20  19  18     3.259276601480    91.45177460   172.23725460
 C     21  20  19     2.668137745335   111.12141103     0.32910933
 C     19  18  17     2.668154899091   133.82224623   335.62230651
 C     23  19  18     2.844354126118   125.80669460   358.86972885
 C     24  23  19     2.900523684372   115.53240755   133.66345708
 S     22  21  20     3.342944356863   112.71398046   185.48849630
 C     26  22  21     3.293707877252    89.51488922     1.69739430
 C     27  26  22     2.653748150897   113.52387837   357.33462398
 N     28  27  26     2.618359098033   109.75758289   174.11425021
 C     29  28  27     2.764934122899   120.07475044   198.81338635
 C     30  29  28     2.885171160868   113.34966814    80.58463673
 C     29  28  27     2.637635153867   107.48788118   357.68913349
 C     27  26  22     2.667288849071   138.38460023   165.69584249
 C     33  27  26     2.709503631701   131.43886847   359.04957160
 N     34  33  27     2.504787799829   127.22176331    13.80875560
 S     35  34  33     3.130182280908   106.92709714   184.53688803
 N     36  35  34     3.129154209545    98.84165998     0.23979172
 C     37  36  35     2.505078935606   106.96886038   359.77749478
 C     38  37  36     2.708626072022   127.32939043   182.21707630
 C     39  38  37     2.692245804591   120.98077150   175.12645645
 N     40  39  38     2.648635981953   109.30987537   184.75928627
 C     41  40  39     2.786749849357   123.49050750   142.86466548
 C     42  41  40     2.880334609607   115.14208167   138.10077249
 C     41  40  39     2.637078743592   106.76843779   355.76080646
 C     44  41  40     2.656845440270   109.58788366     2.36318872
 S     45  44  41     3.291838397671   113.94414348   183.55271582
 C     46  45  44     3.339075363579    89.01276642   359.93459321
 C     44  41  40     2.670652862086   137.98192665   185.57588018
 S     48  44  41     3.268217645869   136.90053547   358.58003545
 C     49  48  44     3.366281850280    90.83878234   174.40755651
 C     47  46  45     2.648859816948   131.98355409   175.19660929
 C     51  47  46     2.841878426002   122.44352765   357.18702571
 C     52  51  47     2.902531827179   111.97644024   279.78134070
 C     50  49  48     2.670234857984   126.35564680   182.86548830
 C     54  50  49     2.616189091356   134.03611447   358.15637177
 C     55  54  50     2.769531059116   126.46043657   179.07306639
 C     56  55  54     2.618876579186   128.14206859   355.71129195
 C     57  56  55     2.701445767185   122.92503661   180.78939583
 N     58  57  56     2.196308169390   178.48019175   171.90239239
 C     57  56  55     2.703170757834   123.75785136     0.44423891
 N     60  57  56     2.198125811340   178.63554245   167.04695592
 C     56  55  54     2.812723614602   107.31505924   176.39111740
 C     62  56  55     2.650613437242   132.53440412   182.47018036
 C     63  62  56     2.634947010698   117.89506053   178.22949501
 F     64  63  62     2.512899486919   120.36670045   180.85648705
 C     64  63  62     2.657094950091   122.08975672     0.44294071
 F     66  64  63     2.511465799804   118.71931391   180.56139478
 C     66  64  63     2.622390327180   120.44028538     0.30486813
 C     68  66  64     2.623853754377   117.27521647   359.16580779
 C     69  68  66     2.794671885648   126.88028361   181.78636398
 O     70  69  68     2.306209716505   124.99580723   357.95917284
 H      4   3   1     2.062133896583   121.58815406     0.74617840
 H      9   7   5     2.058197722084   118.50370988   180.17882454
 H     18  17  11     2.079448620481   109.53997055   167.01376510
 H     24  23  19     2.068855677587   109.97629961     8.27437414
 H     24  23  19     2.090299209697   106.40904471   254.32001068
 H     25  24  23     2.074406089785   111.79954807   301.71241141
 H     25  24  23     2.079339097055   109.80790295   181.25710533
 H     25  24  23     2.079175094497   111.97202344    61.95750563
 H     30  29  28     2.078897166303   106.45986596   318.61687333
 H     30  29  28     2.061504966595   109.42762867   204.58112578
 H     31  30  29     2.080054065870   111.11701214    65.93109131
 H     31  30  29     2.079402127824   110.85219401   304.81629526
 H     31  30  29     2.079979623162   109.88203455   185.64660648
 H     42  41  40     2.073455660432   107.05051303    14.23232222
 H     42  41  40     2.085167997169   107.55089579   260.90162818
 H     43  42  41     2.079367583780   109.38418695   185.03570489
 H     43  42  41     2.075013887537   112.19425241    66.44856416
 H     43  42  41     2.078751895439   111.93350950   305.10371372
 H     52  51  47     2.075198988277   111.64255011   156.93788970
 H     52  51  47     2.083565913591   108.07032155    40.53920598
 H     53  52  51     2.079447654063   110.68138417   297.09255944
 H     53  52  51     2.079022087549   110.57799874   177.57523228
 H     53  52  51     2.078290796926   111.21299143    57.15952261
 H     54  50  49     2.055078873651   110.85895198   177.83617648
 H     63  62  56     2.057124878929   123.82268296   358.40434746
 H     68  66  64     2.061260496019   121.21227793   180.12676003

---------------------
BASIS SET INFORMATION
---------------------
There are 6 groups of distinct atoms

 Group   1 Type C   : 11s6p2d1f contracted to 5s3p2d1f pattern {62111/411/11/1}
 Group   2 Type O   : 11s6p2d1f contracted to 5s3p2d1f pattern {62111/411/11/1}
 Group   3 Type F   : 11s6p2d1f contracted to 5s3p2d1f pattern {62111/411/11/1}
 Group   4 Type N   : 11s6p2d1f contracted to 5s3p2d1f pattern {62111/411/11/1}
 Group   5 Type S   : 14s9p3d1f contracted to 5s5p2d1f pattern {73211/51111/21/1}
 Group   6 Type H   : 5s1p contracted to 3s1p pattern {311/1}

Atom   0C    basis set group =>   1
Atom   1O    basis set group =>   2
Atom   2C    basis set group =>   1
Atom   3C    basis set group =>   1
Atom   4C    basis set group =>   1
Atom   5F    basis set group =>   3
Atom   6C    basis set group =>   1
Atom   7F    basis set group =>   3
Atom   8C    basis set group =>   1
Atom   9C    basis set group =>   1
Atom  10C    basis set group =>   1
Atom  11C    basis set group =>   1
Atom  12C    basis set group =>   1
Atom  13N    basis set group =>   4
Atom  14C    basis set group =>   1
Atom  15N    basis set group =>   4
Atom  16C    basis set group =>   1
Atom  17C    basis set group =>   1
Atom  18C    basis set group =>   1
Atom  19S    basis set group =>   5
Atom  20C    basis set group =>   1
Atom  21C    basis set group =>   1
Atom  22C    basis set group =>   1
Atom  23C    basis set group =>   1
Atom  24C    basis set group =>   1
Atom  25S    basis set group =>   5
Atom  26C    basis set group =>   1
Atom  27C    basis set group =>   1
Atom  28N    basis set group =>   4
Atom  29C    basis set group =>   1
Atom  30C    basis set group =>   1
Atom  31C    basis set group =>   1
Atom  32C    basis set group =>   1
Atom  33C    basis set group =>   1
Atom  34N    basis set group =>   4
Atom  35S    basis set group =>   5
Atom  36N    basis set group =>   4
Atom  37C    basis set group =>   1
Atom  38C    basis set group =>   1
Atom  39C    basis set group =>   1
Atom  40N    basis set group =>   4
Atom  41C    basis set group =>   1
Atom  42C    basis set group =>   1
Atom  43C    basis set group =>   1
Atom  44C    basis set group =>   1
Atom  45S    basis set group =>   5
Atom  46C    basis set group =>   1
Atom  47C    basis set group =>   1
Atom  48S    basis set group =>   5
Atom  49C    basis set group =>   1
Atom  50C    basis set group =>   1
Atom  51C    basis set group =>   1
Atom  52C    basis set group =>   1
Atom  53C    basis set group =>   1
Atom  54C    basis set group =>   1
Atom  55C    basis set group =>   1
Atom  56C    basis set group =>   1
Atom  57C    basis set group =>   1
Atom  58N    basis set group =>   4
Atom  59C    basis set group =>   1
Atom  60N    basis set group =>   4
Atom  61C    basis set group =>   1
Atom  62C    basis set group =>   1
Atom  63C    basis set group =>   1
Atom  64F    basis set group =>   3
Atom  65C    basis set group =>   1
Atom  66F    basis set group =>   3
Atom  67C    basis set group =>   1
Atom  68C    basis set group =>   1
Atom  69C    basis set group =>   1
Atom  70O    basis set group =>   2
Atom  71H    basis set group =>   6
Atom  72H    basis set group =>   6
Atom  73H    basis set group =>   6
Atom  74H    basis set group =>   6
Atom  75H    basis set group =>   6
Atom  76H    basis set group =>   6
Atom  77H    basis set group =>   6
Atom  78H    basis set group =>   6
Atom  79H    basis set group =>   6
Atom  80H    basis set group =>   6
Atom  81H    basis set group =>   6
Atom  82H    basis set group =>   6
Atom  83H    basis set group =>   6
Atom  84H    basis set group =>   6
Atom  85H    basis set group =>   6
Atom  86H    basis set group =>   6
Atom  87H    basis set group =>   6
Atom  88H    basis set group =>   6
Atom  89H    basis set group =>   6
Atom  90H    basis set group =>   6
Atom  91H    basis set group =>   6
Atom  92H    basis set group =>   6
Atom  93H    basis set group =>   6
Atom  94H    basis set group =>   6
Atom  95H    basis set group =>   6
Atom  96H    basis set group =>   6
---------------------------------
AUXILIARY/J BASIS SET INFORMATION
---------------------------------
There are 6 groups of distinct atoms

 Group   1 Type C   : 12s5p4d2f1g contracted to 6s4p3d1f1g pattern {711111/2111/211/2/1}
 Group   2 Type O   : 12s5p4d2f1g contracted to 6s4p3d1f1g pattern {711111/2111/211/2/1}
 Group   3 Type F   : 12s5p4d2f1g contracted to 6s4p3d1f1g pattern {711111/2111/211/2/1}
 Group   4 Type N   : 12s5p4d2f1g contracted to 6s4p3d1f1g pattern {711111/2111/211/2/1}
 Group   5 Type S   : 14s5p5d2f1g contracted to 8s4p3d1f1g pattern {71111111/2111/311/2/1}
 Group   6 Type H   : 5s2p1d contracted to 3s1p1d pattern {311/2/1}

Atom   0C    basis set group =>   1
Atom   1O    basis set group =>   2
Atom   2C    basis set group =>   1
Atom   3C    basis set group =>   1
Atom   4C    basis set group =>   1
Atom   5F    basis set group =>   3
Atom   6C    basis set group =>   1
Atom   7F    basis set group =>   3
Atom   8C    basis set group =>   1
Atom   9C    basis set group =>   1
Atom  10C    basis set group =>   1
Atom  11C    basis set group =>   1
Atom  12C    basis set group =>   1
Atom  13N    basis set group =>   4
Atom  14C    basis set group =>   1
Atom  15N    basis set group =>   4
Atom  16C    basis set group =>   1
Atom  17C    basis set group =>   1
Atom  18C    basis set group =>   1
Atom  19S    basis set group =>   5
Atom  20C    basis set group =>   1
Atom  21C    basis set group =>   1
Atom  22C    basis set group =>   1
Atom  23C    basis set group =>   1
Atom  24C    basis set group =>   1
Atom  25S    basis set group =>   5
Atom  26C    basis set group =>   1
Atom  27C    basis set group =>   1
Atom  28N    basis set group =>   4
Atom  29C    basis set group =>   1
Atom  30C    basis set group =>   1
Atom  31C    basis set group =>   1
Atom  32C    basis set group =>   1
Atom  33C    basis set group =>   1
Atom  34N    basis set group =>   4
Atom  35S    basis set group =>   5
Atom  36N    basis set group =>   4
Atom  37C    basis set group =>   1
Atom  38C    basis set group =>   1
Atom  39C    basis set group =>   1
Atom  40N    basis set group =>   4
Atom  41C    basis set group =>   1
Atom  42C    basis set group =>   1
Atom  43C    basis set group =>   1
Atom  44C    basis set group =>   1
Atom  45S    basis set group =>   5
Atom  46C    basis set group =>   1
Atom  47C    basis set group =>   1
Atom  48S    basis set group =>   5
Atom  49C    basis set group =>   1
Atom  50C    basis set group =>   1
Atom  51C    basis set group =>   1
Atom  52C    basis set group =>   1
Atom  53C    basis set group =>   1
Atom  54C    basis set group =>   1
Atom  55C    basis set group =>   1
Atom  56C    basis set group =>   1
Atom  57C    basis set group =>   1
Atom  58N    basis set group =>   4
Atom  59C    basis set group =>   1
Atom  60N    basis set group =>   4
Atom  61C    basis set group =>   1
Atom  62C    basis set group =>   1
Atom  63C    basis set group =>   1
Atom  64F    basis set group =>   3
Atom  65C    basis set group =>   1
Atom  66F    basis set group =>   3
Atom  67C    basis set group =>   1
Atom  68C    basis set group =>   1
Atom  69C    basis set group =>   1
Atom  70O    basis set group =>   2
Atom  71H    basis set group =>   6
Atom  72H    basis set group =>   6
Atom  73H    basis set group =>   6
Atom  74H    basis set group =>   6
Atom  75H    basis set group =>   6
Atom  76H    basis set group =>   6
Atom  77H    basis set group =>   6
Atom  78H    basis set group =>   6
Atom  79H    basis set group =>   6
Atom  80H    basis set group =>   6
Atom  81H    basis set group =>   6
Atom  82H    basis set group =>   6
Atom  83H    basis set group =>   6
Atom  84H    basis set group =>   6
Atom  85H    basis set group =>   6
Atom  86H    basis set group =>   6
Atom  87H    basis set group =>   6
Atom  88H    basis set group =>   6
Atom  89H    basis set group =>   6
Atom  90H    basis set group =>   6
Atom  91H    basis set group =>   6
Atom  92H    basis set group =>   6
Atom  93H    basis set group =>   6
Atom  94H    basis set group =>   6
Atom  95H    basis set group =>   6
Atom  96H    basis set group =>   6


           ************************************************************
           *        Program running with 6 parallel MPI-processes     *
           *              working on a common directory               *
           ************************************************************
------------------------------------------------------------------------------
                           ORCA GTO INTEGRAL CALCULATION
                           -- RI-GTO INTEGRALS CHOSEN --
------------------------------------------------------------------------------

                         BASIS SET STATISTICS AND STARTUP INFO

Gaussian basis set:
 # of primitive gaussian shells          ... 1611
 # of primitive gaussian functions       ... 3559
 # of contracted shells                  ...  895
 # of contracted basis functions         ... 2387
 Highest angular momentum                ...    3
 Maximum contraction depth               ...    7
Auxiliary gaussian basis set:
 # of primitive gaussian shells          ... 1927
 # of primitive gaussian functions       ... 5421
 # of contracted shells                  ... 1205
 # of contracted aux-basis functions     ... 3775
 Highest angular momentum                ...    4
 Maximum contraction depth               ...    7
Ratio of auxiliary to basis functions    ...  1.58
Integral package used                  ... LIBINT
 One Electron integrals                  ... done
 Ordering auxiliary basis shells         ... done
 Integral threshhold             Thresh  ...  2.500e-11
 Primitive cut-off               TCut    ...  2.500e-12
 Pre-screening matrix                    ... done
 Shell pair data                         ... 
 Ordering of the shell pairs             ... done (   0.029 sec) 133179 of 400960 pairs
 Determination of significant pairs      ... done (   0.001 sec)
 Creation of shell pair data             ... done (   0.014 sec)
 Storage of shell pair data              ... done (   1.262 sec)
 Shell pair data done in (   1.305 sec)
 Computing two index integrals           ... done
 Cholesky decomposition of the V-matrix  ... done


Timings:
 Total evaluation time                   ...   8.627 sec (  0.144 min)
 One electron matrix time                ...   2.537 sec (  0.042 min) = 29.4%
 Schwartz matrix evaluation time         ...   3.215 sec (  0.054 min) = 37.3%
 Two index repulsion integral time       ...   0.454 sec (  0.008 min) =  5.3%
 Cholesky decomposition of V             ...   1.098 sec (  0.018 min) = 12.7%
 Three index repulsion integral time     ...   0.000 sec (  0.000 min) =  0.0%



           ************************************************************
           *        Program running with 6 parallel MPI-processes     *
           *              working on a common directory               *
           ************************************************************
-------------------------------------------------------------------------------
                                 ORCA SCF
-------------------------------------------------------------------------------

------------
SCF SETTINGS
------------
Hamiltonian:
 Density Functional     Method          .... DFT(GTOs)
 Exchange Functional    Exchange        .... B88
   X-Alpha parameter    XAlpha          ....  0.666667
   Becke's b parameter  XBeta           ....  0.004200
 Correlation Functional Correlation     .... LYP
 LDA part of GGA corr.  LDAOpt          .... VWN-5
 Gradients option       PostSCFGGA      .... off
 Hybrid DFT is turned on
   Fraction HF Exchange ScalHFX         ....  0.200000
   Scaling of DF-GGA-X  ScalDFX         ....  0.720000
   Scaling of DF-GGA-C  ScalDFC         ....  0.810000
   Scaling of DF-LDA-C  ScalLDAC        ....  1.000000
   Perturbative correction              ....  0.000000
   Density functional embedding theory  .... OFF
   NL short-range parameter             ....  4.800000
 RI-approximation to the Coulomb term is turned on
   Number of auxiliary basis functions  .... 3775
   RIJ-COSX (HFX calculated with COS-X)).... on


General Settings:
 Integral files         IntName         .... Y6
 Hartree-Fock type      HFTyp           .... RHF
 Total Charge           Charge          ....    0
 Multiplicity           Mult            ....    1
 Number of Electrons    NEL             ....  526
 Basis Dimension        Dim             .... 2387
 Nuclear Repulsion      ENuc            ....  10878.1330512977 Eh

Convergence Acceleration:
 DIIS                   CNVDIIS         .... on
   Start iteration      DIISMaxIt       ....    12
   Startup error        DIISStart       ....  0.200000
   # of expansion vecs  DIISMaxEq       ....     5
   Bias factor          DIISBfac        ....   1.050
   Max. coefficient     DIISMaxC        ....  10.000
 Newton-Raphson         CNVNR           .... off
 SOSCF                  CNVSOSCF        .... on
   Start iteration      SOSCFMaxIt      ....   150
   Startup grad/error   SOSCFStart      ....  0.003300
 Level Shifting         CNVShift        .... on
   Level shift para.    LevelShift      ....    0.2500
   Turn off err/grad.   ShiftErr        ....    0.0010
 Zerner damping         CNVZerner       .... off
 Static damping         CNVDamp         .... on
   Fraction old density DampFac         ....    0.7000
   Max. Damping (<1)    DampMax         ....    0.9800
   Min. Damping (>=0)   DampMin         ....    0.0000
   Turn off err/grad.   DampErr         ....    0.1000
 Fernandez-Rico         CNVRico         .... off

SCF Procedure:
 Maximum # iterations   MaxIter         ....   125
 SCF integral mode      SCFMode         .... Direct
   Integral package                     .... LIBINT
 Reset frequency        DirectResetFreq ....    20
 Integral Threshold     Thresh          ....  2.500e-11 Eh
 Primitive CutOff       TCut            ....  2.500e-12 Eh

Convergence Tolerance:
 Convergence Check Mode ConvCheckMode   .... Total+1el-Energy
 Convergence forced     ConvForced      .... 1
 Energy Change          TolE            ....  1.000e-08 Eh
 1-El. energy change                    ....  1.000e-05 Eh
 Orbital Gradient       TolG            ....  1.000e-05
 Orbital Rotation angle TolX            ....  1.000e-05
 DIIS Error             TolErr          ....  5.000e-07


Diagonalization of the overlap matrix:
Smallest eigenvalue                        ... 3.263e-06
Time for diagonalization                   ...    2.708 sec
Threshold for overlap eigenvalues          ... 1.000e-08
Number of eigenvalues below threshold      ... 0
Time for construction of square roots      ...    1.210 sec
Total time needed                          ...    3.930 sec

-------------------
DFT GRID GENERATION
-------------------

General Integration Accuracy     IntAcc      ...  4.670
Radial Grid Type                 RadialGrid  ... Gauss-Chebyshev
Angular Grid (max. acc.)         AngularGrid ... Lebedev-302
Angular grid pruning method      GridPruning ... 3 (G Style)
Weight generation scheme         WeightScheme... Becke
Basis function cutoff            BFCut       ...    1.0000e-11
Integration weight cutoff        WCut        ...    1.0000e-14
Grids for H and He will be reduced by one unit

# of grid points (after initial pruning)     ... 532706 (   0.0 sec)
# of grid points (after weights+screening)   ... 455016 (   6.9 sec)
nearest neighbour list constructed           ...    0.0 sec
Grid point re-assignment to atoms done       ...    0.1 sec
Grid point division into batches done        ...    1.6 sec
Reduced shell lists constructed in    3.2 sec

Total number of grid points                  ...   455016
Total number of batches                      ...     7158
Average number of points per batch           ...       63
Average number of grid points per atom       ...     4691
Average number of shells per batch           ...   139.59 (15.60%)
Average number of basis functions per batch  ...   365.11 (15.30%)
Average number of large shells per batch     ...    89.96 (64.45%)
Average number of large basis fcns per batch ...   238.00 (65.19%)
Maximum spatial batch extension              ...  20.65, 17.79, 15.25 au
Average spatial batch extension              ...   0.37,  0.36,  0.35 au

Time for grid setup =   11.708 sec

------------------------------
INITIAL GUESS: MODEL POTENTIAL
------------------------------
Loading Hartree-Fock densities                     ... done
Calculating cut-offs                               ... done
Setting up the integral package                    ... done
Initializing the effective Hamiltonian             ... done
Starting the Coulomb interaction                   ... done (   4.0 sec)
Reading the grid                                   ... done
Mapping shells                                     ... done
Starting the XC term evaluation                    ... done (   6.4 sec)
  promolecular density results
     # of electrons  =    525.989384078
     EX              =   -509.457389188
     EC              =    -18.862056727
     EX+EC           =   -528.319445915
Transforming the Hamiltonian                       ... done (   1.0 sec)
Diagonalizing the Hamiltonian                      ... done (   2.0 sec)
Back transforming the eigenvectors                 ... done (   0.5 sec)
Now organizing SCF variables                       ... done
                      ------------------
                      INITIAL GUESS DONE (  25.9 sec)
                      ------------------
--------------------
COSX GRID GENERATION
--------------------

General Integration Accuracy     IntAcc      ...  3.340
Radial Grid Type                 RadialGrid  ... Gauss-Chebyshev
Angular Grid (max. acc.)         AngularGrid ... Lebedev-50
Angular grid pruning method      GridPruning ... 3 (G Style)
Weight generation scheme         WeightScheme... Becke
Basis function cutoff            BFCut       ...    1.0000e-11
Integration weight cutoff        WCut        ...    1.0000e-14
Grids for H and He will be reduced by one unit

# of grid points (after initial pruning)     ...  50018 (   0.0 sec)
# of grid points (after weights+screening)   ...  44744 (   0.7 sec)
nearest neighbour list constructed           ...    0.0 sec
Grid point re-assignment to atoms done       ...    0.0 sec
Grid point division into batches done        ...    0.0 sec
Reduced shell lists constructed in    0.2 sec

Total number of grid points                  ...    44744
Total number of batches                      ...      753
Average number of points per batch           ...       59
Average number of grid points per atom       ...      461
Average number of shells per batch           ...   168.31 (18.81%)
Average number of basis functions per batch  ...   446.28 (18.70%)
Average number of large shells per batch     ...   109.21 (64.89%)
Average number of large basis fcns per batch ...   292.68 (65.58%)
Maximum spatial batch extension              ...  24.38, 15.37, 16.07 au
Average spatial batch extension              ...   0.87,  0.71,  0.67 au

Overlap Fitting                  UseSFitting ... on
Constructing numerical overlap ... done (      0.4 sec)
Inverting numerical overlap    ... done (      0.5 sec)
Obtaining analytic overlap     ... done (      0.0 sec)
Final contraction and storage  ... done (      0.6 sec)


General Integration Accuracy     IntAcc      ...  3.670
Radial Grid Type                 RadialGrid  ... Gauss-Chebyshev
Angular Grid (max. acc.)         AngularGrid ... Lebedev-50
Angular grid pruning method      GridPruning ... 3 (G Style)
Weight generation scheme         WeightScheme... Becke
Basis function cutoff            BFCut       ...    1.0000e-11
Integration weight cutoff        WCut        ...    1.0000e-14
Grids for H and He will be reduced by one unit

# of grid points (after initial pruning)     ...  62330 (   0.0 sec)
# of grid points (after weights+screening)   ...  55534 (   1.2 sec)
nearest neighbour list constructed           ...    0.0 sec
Grid point re-assignment to atoms done       ...    0.0 sec
Grid point division into batches done        ...    0.0 sec
Reduced shell lists constructed in    0.3 sec

Total number of grid points                  ...    55534
Total number of batches                      ...      922
Average number of points per batch           ...       60
Average number of grid points per atom       ...      573
Average number of shells per batch           ...   165.32 (18.47%)
Average number of basis functions per batch  ...   438.14 (18.36%)
Average number of large shells per batch     ...   107.13 (64.80%)
Average number of large basis fcns per batch ...   286.55 (65.40%)
Maximum spatial batch extension              ...  26.99, 15.80, 17.84 au
Average spatial batch extension              ...   0.78,  0.64,  0.60 au

Overlap Fitting                  UseSFitting ... on
Constructing numerical overlap ... done (      0.5 sec)
Inverting numerical overlap    ... done (      0.3 sec)
Obtaining analytic overlap     ... done (      0.0 sec)
Final contraction and storage  ... done (      0.7 sec)


General Integration Accuracy     IntAcc      ...  4.010
Radial Grid Type                 RadialGrid  ... Gauss-Chebyshev
Angular Grid (max. acc.)         AngularGrid ... Lebedev-110
Angular grid pruning method      GridPruning ... 3 (G Style)
Weight generation scheme         WeightScheme... Becke
Basis function cutoff            BFCut       ...    1.0000e-11
Integration weight cutoff        WCut        ...    1.0000e-14
Grids for H and He will be reduced by one unit

# of grid points (after initial pruning)     ... 122236 (   0.0 sec)
# of grid points (after weights+screening)   ... 107653 (   2.1 sec)
nearest neighbour list constructed           ...    0.0 sec
Grid point re-assignment to atoms done       ...    0.0 sec
Grid point division into batches done        ...    0.1 sec
Reduced shell lists constructed in    0.5 sec

Total number of grid points                  ...   107653
Total number of batches                      ...     1731
Average number of points per batch           ...       62
Average number of grid points per atom       ...     1110
Average number of shells per batch           ...   155.47 (17.37%)
Average number of basis functions per batch  ...   410.51 (17.20%)
Average number of large shells per batch     ...   101.00 (64.96%)
Average number of large basis fcns per batch ...   269.96 (65.76%)
Maximum spatial batch extension              ...  18.01, 18.11, 17.79 au
Average spatial batch extension              ...   0.63,  0.55,  0.53 au

Overlap Fitting                  UseSFitting ... on
Constructing numerical overlap ... done (      0.9 sec)
Inverting numerical overlap    ... done (      0.5 sec)
Obtaining analytic overlap     ... done (      0.0 sec)
Final contraction and storage  ... done (      0.8 sec)

Time for X-Grid setup             =   11.489 sec
--------------
SCF ITERATIONS
--------------
ITER       Energy         Delta-E        Max-DP      RMS-DP      [F,P]     Damp
               ***  Starting incremental Fock matrix formation  ***
  0  -4973.4445405708   0.000000000000 0.19436110  0.00094353  0.3029970 0.7000
  1  -4974.2633037395  -0.818763168698 0.16737619  0.00080015  0.1080687 0.7000
                               ***Turning on DIIS***
  2  -4974.5389605522  -0.275656812655 0.28170072  0.00119045  0.0438979 0.0000
  3  -4975.0231494586  -0.484188906352 0.17108296  0.00070470  0.0710820 0.0000
  4  -4975.1182971920  -0.095147733420 0.04673743  0.00022999  0.0355802 0.0000
  5  -4975.1312850404  -0.012987848446 0.02088000  0.00010807  0.0097230 0.0000
                      *** Initiating the SOSCF procedure ***
                           *** Shutting down DIIS ***
                      *** Re-Reading the Fockian *** 
                      *** Removing any level shift *** 
ITER      Energy       Delta-E        Grad      Rot      Max-DP    RMS-DP
  6  -4975.13231463  -0.0010295902  0.001051  0.001051  0.007092  0.000033
               *** Restarting incremental Fock matrix formation ***
  7  -4975.13243484  -0.0001202058  0.000546  0.006514  0.016587  0.000075
  8  -4975.13245127  -0.0000164380  0.000397  0.005548  0.009247  0.000038
  9  -4975.13246611  -0.0000148368  0.000516  0.004477  0.008781  0.000035
 10  -4975.13247199  -0.0000058792  0.000201  0.000754  0.002660  0.000013
 11  -4975.13247544  -0.0000034453  0.000146  0.001216  0.002830  0.000013
 12  -4975.13247598  -0.0000005409  0.000117  0.000422  0.001217  0.000005
 13  -4975.13247739  -0.0000014093  0.000040  0.000590  0.001759  0.000007
 14  -4975.13247763  -0.0000002435  0.000029  0.000089  0.000248  0.000001
 15  -4975.13247778  -0.0000001476  0.000020  0.000285  0.000590  0.000003
 16  -4975.13247774   0.0000000328  0.000017  0.000052  0.000239  0.000001
 17  -4975.13247780  -0.0000000533  0.000008  0.000158  0.000325  0.000002
 18  -4975.13247794  -0.0000001421  0.000011  0.000065  0.000250  0.000001
 19  -4975.13247787   0.0000000741  0.000005  0.000054  0.000253  0.000001
 20  -4975.13247776   0.0000001029  0.000004  0.000032  0.000343  0.000001
                  ***Gradient check signals convergence***
              ***Rediagonalizing the Fockian in SOSCF/NRSCF***

               *****************************************************
               *                     SUCCESS                       *
               *           SCF CONVERGED AFTER  21 CYCLES          *
               *****************************************************

Setting up the final grid:

General Integration Accuracy     IntAcc      ...  5.010
Radial Grid Type                 RadialGrid  ... Gauss-Chebyshev
Angular Grid (max. acc.)         AngularGrid ... Lebedev-434
Angular grid pruning method      GridPruning ... 3 (G Style)
Weight generation scheme         WeightScheme... Becke
Basis function cutoff            BFCut       ...    1.0000e-11
Integration weight cutoff        WCut        ...    1.0000e-14
Grids for H and He will be reduced by one unit

# of grid points (after initial pruning)     ... 938664 (   0.1 sec)
# of grid points (after weights+screening)   ... 798855 (  13.3 sec)
nearest neighbour list constructed           ...    0.0 sec
Grid point re-assignment to atoms done       ...    0.1 sec
Grid point division into batches done        ...    5.1 sec
Reduced shell lists constructed in    7.7 sec

Total number of grid points                  ...   798855
Total number of batches                      ...    12529
Average number of points per batch           ...       63
Average number of grid points per atom       ...     8236
Average number of shells per batch           ...   133.80 (14.95%)
Average number of basis functions per batch  ...   348.64 (14.61%)
Average number of large shells per batch     ...    85.95 (64.24%)
Average number of large basis fcns per batch ...   226.90 (65.08%)
Maximum spatial batch extension              ...  20.57, 18.56, 16.54 au
Average spatial batch extension              ...   0.32,  0.31,  0.30 au

Final grid set up in   25.1 sec
Final integration                            ... done (  11.2 sec)
Change in XC energy                          ...     0.000116792
Integrated number of electrons               ...   526.000048183
Previous integrated no of electrons          ...   526.000952317
Old exchange energy                            =   -102.681968640 Eh
New exchange energy                            =   -102.683691662 Eh
Exchange energy change after final integration =     -0.001723022 Eh
Total energy after final integration           =  -4975.134084194 Eh
Final COS-X integration done in                =   290.945 sec

----------------
TOTAL SCF ENERGY
----------------

Total Energy       :        -4975.13408419 Eh         -135380.28103 eV

Components:
Nuclear Repulsion  :        10878.13305130 Eh          296009.04914 eV
Electronic Energy  :       -15853.26713549 Eh         -431389.33017 eV
One Electron Energy:       -28488.15347600 Eh         -775202.06659 eV
Two Electron Energy:        12634.88634051 Eh          343812.73643 eV

Virial components:
Potential Energy   :        -9933.19761516 Eh         -270296.04869 eV
Kinetic Energy     :         4958.06353096 Eh          134915.76766 eV
Virial Ratio       :            2.00344299


DFT components:
N(Alpha)           :      263.000024091553 electrons
N(Beta)            :      263.000024091553 electrons
N(Total)           :      526.000048183106 electrons
E(X)               :     -408.361305252254 Eh       
E(C)               :      -22.129360009258 Eh       
E(XC)              :     -430.490665261512 Eh       
DFET-embed. en.    :        0.000000000000 Eh       

---------------
SCF CONVERGENCE
---------------

  Last Energy change         ...   -2.0169e-07  Tolerance :   1.0000e-08
  Last MAX-Density change    ...    4.3299e-15  Tolerance :   1.0000e-07
  Last RMS-Density change    ...    1.2574e-17  Tolerance :   5.0000e-09
  Last Orbital Gradient      ...    1.8200e-06  Tolerance :   1.0000e-05
  Last Orbital Rotation      ...    2.8027e-05  Tolerance :   1.0000e-05

             **** THE GBW FILE WAS UPDATED (Y6.gbw) ****
             **** DENSITY FILE WAS UPDATED (Y6.scfp) ****
             **** ENERGY FILE WAS UPDATED (Y6.en.tmp) ****
             **** THE GBW FILE WAS UPDATED (Y6.gbw) ****
             **** DENSITY FILE WAS UPDATED (Y6.scfp) ****
----------------
ORBITAL ENERGIES
----------------

  NO   OCC          E(Eh)            E(eV) 
   0   2.0000     -88.949540     -2420.4400 
   1   2.0000     -88.915807     -2419.5221 
   2   2.0000     -88.913249     -2419.4525 
   3   2.0000     -88.912568     -2419.4340 
   4   2.0000     -88.909877     -2419.3607 
   5   2.0000     -24.728977      -672.9097 
   6   2.0000     -24.728814      -672.9052 
   7   2.0000     -24.727942      -672.8815 
   8   2.0000     -24.726552      -672.8437 
   9   2.0000     -19.139492      -520.8120 
  10   2.0000     -19.137075      -520.7463 
  11   2.0000     -14.411662      -392.1613 
  12   2.0000     -14.407017      -392.0349 
  13   2.0000     -14.364251      -390.8711 
  14   2.0000     -14.363916      -390.8620 
  15   2.0000     -14.339195      -390.1893 
  16   2.0000     -14.336851      -390.1255 
  17   2.0000     -14.336165      -390.1069 
  18   2.0000     -14.333574      -390.0364 
  19   2.0000     -10.304083      -280.3884 
  20   2.0000     -10.302747      -280.3520 
  21   2.0000     -10.302167      -280.3362 
  22   2.0000     -10.301642      -280.3219 
  23   2.0000     -10.283250      -279.8215 
  24   2.0000     -10.283076      -279.8167 
  25   2.0000     -10.266566      -279.3675 
  26   2.0000     -10.266147      -279.3561 
  27   2.0000     -10.265493      -279.3383 
  28   2.0000     -10.264646      -279.3152 
  29   2.0000     -10.263856      -279.2937 
  30   2.0000     -10.263531      -279.2849 
  31   2.0000     -10.256182      -279.0849 
  32   2.0000     -10.254725      -279.0453 
  33   2.0000     -10.251897      -278.9683 
  34   2.0000     -10.250542      -278.9314 
  35   2.0000     -10.250518      -278.9308 
  36   2.0000     -10.249374      -278.8996 
  37   2.0000     -10.248906      -278.8869 
  38   2.0000     -10.246759      -278.8285 
  39   2.0000     -10.245106      -278.7835 
  40   2.0000     -10.242970      -278.7254 
  41   2.0000     -10.240175      -278.6493 
  42   2.0000     -10.239284      -278.6251 
  43   2.0000     -10.238652      -278.6079 
  44   2.0000     -10.238208      -278.5958 
  45   2.0000     -10.238168      -278.5947 
  46   2.0000     -10.236303      -278.5440 
  47   2.0000     -10.236225      -278.5418 
  48   2.0000     -10.236173      -278.5404 
  49   2.0000     -10.235895      -278.5328 
  50   2.0000     -10.235279      -278.5161 
  51   2.0000     -10.234551      -278.4963 
  52   2.0000     -10.233908      -278.4788 
  53   2.0000     -10.233787      -278.4755 
  54   2.0000     -10.231887      -278.4238 
  55   2.0000     -10.225657      -278.2543 
  56   2.0000     -10.225182      -278.2413 
  57   2.0000     -10.225066      -278.2382 
  58   2.0000     -10.224194      -278.2145 
  59   2.0000     -10.223919      -278.2070 
  60   2.0000     -10.223606      -278.1985 
  61   2.0000     -10.221452      -278.1399 
  62   2.0000     -10.221429      -278.1392 
  63   2.0000     -10.219482      -278.0863 
  64   2.0000     -10.218768      -278.0668 
  65   2.0000     -10.204887      -277.6891 
  66   2.0000     -10.202044      -277.6117 
  67   2.0000     -10.201583      -277.5992 
  68   2.0000     -10.200859      -277.5795 
  69   2.0000     -10.181054      -277.0406 
  70   2.0000     -10.179544      -276.9995 
  71   2.0000      -8.019964      -218.2343 
  72   2.0000      -7.991718      -217.4657 
  73   2.0000      -7.988324      -217.3733 
  74   2.0000      -7.987560      -217.3526 
  75   2.0000      -7.984707      -217.2749 
  76   2.0000      -5.984706      -162.8521 
  77   2.0000      -5.977632      -162.6596 
  78   2.0000      -5.976385      -162.6257 
  79   2.0000      -5.954450      -162.0288 
  80   2.0000      -5.951360      -161.9447 
  81   2.0000      -5.950697      -161.9267 
  82   2.0000      -5.950596      -161.9239 
  83   2.0000      -5.947880      -161.8500 
  84   2.0000      -5.947602      -161.8425 
  85   2.0000      -5.947600      -161.8424 
  86   2.0000      -5.946853      -161.8221 
  87   2.0000      -5.944046      -161.7457 
  88   2.0000      -5.943654      -161.7350 
  89   2.0000      -5.943237      -161.7237 
  90   2.0000      -5.940705      -161.6548 
  91   2.0000      -1.274691       -34.6861 
  92   2.0000      -1.274351       -34.6769 
  93   2.0000      -1.260156       -34.2906 
  94   2.0000      -1.259957       -34.2852 
  95   2.0000      -1.066724       -29.0270 
  96   2.0000      -1.064581       -28.9687 
  97   2.0000      -1.039254       -28.2795 
  98   2.0000      -1.025859       -27.9151 
  99   2.0000      -1.024104       -27.8673 
 100   2.0000      -0.942194       -25.6384 
 101   2.0000      -0.941869       -25.6295 
 102   2.0000      -0.933378       -25.3985 
 103   2.0000      -0.930918       -25.3316 
 104   2.0000      -0.925248       -25.1773 
 105   2.0000      -0.923280       -25.1237 
 106   2.0000      -0.922613       -25.1056 
 107   2.0000      -0.920951       -25.0604 
 108   2.0000      -0.906885       -24.6776 
 109   2.0000      -0.889172       -24.1956 
 110   2.0000      -0.881614       -23.9899 
 111   2.0000      -0.878487       -23.9049 
 112   2.0000      -0.872989       -23.7553 
 113   2.0000      -0.865884       -23.5619 
 114   2.0000      -0.835959       -22.7476 
 115   2.0000      -0.827323       -22.5126 
 116   2.0000      -0.824475       -22.4351 
 117   2.0000      -0.822375       -22.3780 
 118   2.0000      -0.819664       -22.3042 
 119   2.0000      -0.814377       -22.1603 
 120   2.0000      -0.805671       -21.9234 
 121   2.0000      -0.802603       -21.8399 
 122   2.0000      -0.799344       -21.7513 
 123   2.0000      -0.798571       -21.7302 
 124   2.0000      -0.783387       -21.3170 
 125   2.0000      -0.778379       -21.1808 
 126   2.0000      -0.760843       -20.7036 
 127   2.0000      -0.758806       -20.6482 
 128   2.0000      -0.752842       -20.4859 
 129   2.0000      -0.741515       -20.1777 
 130   2.0000      -0.731621       -19.9084 
 131   2.0000      -0.726984       -19.7822 
 132   2.0000      -0.718513       -19.5517 
 133   2.0000      -0.701355       -19.0848 
 134   2.0000      -0.698790       -19.0150 
 135   2.0000      -0.693872       -18.8812 
 136   2.0000      -0.684554       -18.6277 
 137   2.0000      -0.677878       -18.4460 
 138   2.0000      -0.673489       -18.3266 
 139   2.0000      -0.661339       -17.9959 
 140   2.0000      -0.655735       -17.8435 
 141   2.0000      -0.650196       -17.6927 
 142   2.0000      -0.644805       -17.5460 
 143   2.0000      -0.641332       -17.4515 
 144   2.0000      -0.637947       -17.3594 
 145   2.0000      -0.632091       -17.2001 
 146   2.0000      -0.626601       -17.0507 
 147   2.0000      -0.617827       -16.8119 
 148   2.0000      -0.613132       -16.6842 
 149   2.0000      -0.604346       -16.4451 
 150   2.0000      -0.594085       -16.1659 
 151   2.0000      -0.591962       -16.1081 
 152   2.0000      -0.588403       -16.0113 
 153   2.0000      -0.583296       -15.8723 
 154   2.0000      -0.575747       -15.6669 
 155   2.0000      -0.574705       -15.6385 
 156   2.0000      -0.572742       -15.5851 
 157   2.0000      -0.568109       -15.4590 
 158   2.0000      -0.559173       -15.2159 
 159   2.0000      -0.551669       -15.0117 
 160   2.0000      -0.547486       -14.8979 
 161   2.0000      -0.543178       -14.7806 
 162   2.0000      -0.539825       -14.6894 
 163   2.0000      -0.531723       -14.4689 
 164   2.0000      -0.528502       -14.3813 
 165   2.0000      -0.526721       -14.3328 
 166   2.0000      -0.523808       -14.2535 
 167   2.0000      -0.523676       -14.2500 
 168   2.0000      -0.523475       -14.2445 
 169   2.0000      -0.519255       -14.1296 
 170   2.0000      -0.512578       -13.9480 
 171   2.0000      -0.506999       -13.7961 
 172   2.0000      -0.501459       -13.6454 
 173   2.0000      -0.493943       -13.4409 
 174   2.0000      -0.492116       -13.3912 
 175   2.0000      -0.489093       -13.3089 
 176   2.0000      -0.488753       -13.2996 
 177   2.0000      -0.488415       -13.2905 
 178   2.0000      -0.483613       -13.1598 
 179   2.0000      -0.483531       -13.1575 
 180   2.0000      -0.481557       -13.1038 
 181   2.0000      -0.480301       -13.0697 
 182   2.0000      -0.476594       -12.9688 
 183   2.0000      -0.471799       -12.8383 
 184   2.0000      -0.467458       -12.7202 
 185   2.0000      -0.466489       -12.6938 
 186   2.0000      -0.465066       -12.6551 
 187   2.0000      -0.463882       -12.6229 
 188   2.0000      -0.462926       -12.5969 
 189   2.0000      -0.460743       -12.5375 
 190   2.0000      -0.459882       -12.5140 
 191   2.0000      -0.456110       -12.4114 
 192   2.0000      -0.453597       -12.3430 
 193   2.0000      -0.446691       -12.1551 
 194   2.0000      -0.444961       -12.1080 
 195   2.0000      -0.443440       -12.0666 
 196   2.0000      -0.440167       -11.9775 
 197   2.0000      -0.439317       -11.9544 
 198   2.0000      -0.433374       -11.7927 
 199   2.0000      -0.432799       -11.7771 
 200   2.0000      -0.431153       -11.7323 
 201   2.0000      -0.429858       -11.6970 
 202   2.0000      -0.428650       -11.6642 
 203   2.0000      -0.425783       -11.5861 
 204   2.0000      -0.423098       -11.5131 
 205   2.0000      -0.422061       -11.4849 
 206   2.0000      -0.419431       -11.4133 
 207   2.0000      -0.417659       -11.3651 
 208   2.0000      -0.416049       -11.3213 
 209   2.0000      -0.411886       -11.2080 
 210   2.0000      -0.410572       -11.1722 
 211   2.0000      -0.407679       -11.0935 
 212   2.0000      -0.405566       -11.0360 
 213   2.0000      -0.398977       -10.8567 
 214   2.0000      -0.395884       -10.7726 
 215   2.0000      -0.394997       -10.7484 
 216   2.0000      -0.394980       -10.7480 
 217   2.0000      -0.394105       -10.7241 
 218   2.0000      -0.392862       -10.6903 
 219   2.0000      -0.392302       -10.6751 
 220   2.0000      -0.391412       -10.6509 
 221   2.0000      -0.390072       -10.6144 
 222   2.0000      -0.387810       -10.5529 
 223   2.0000      -0.387500       -10.5444 
 224   2.0000      -0.384773       -10.4702 
 225   2.0000      -0.384261       -10.4563 
 226   2.0000      -0.383898       -10.4464 
 227   2.0000      -0.377011       -10.2590 
 228   2.0000      -0.372444       -10.1347 
 229   2.0000      -0.369161       -10.0454 
 230   2.0000      -0.368415       -10.0251 
 231   2.0000      -0.366164        -9.9638 
 232   2.0000      -0.365466        -9.9448 
 233   2.0000      -0.363686        -9.8964 
 234   2.0000      -0.363123        -9.8811 
 235   2.0000      -0.361042        -9.8244 
 236   2.0000      -0.360056        -9.7976 
 237   2.0000      -0.357688        -9.7332 
 238   2.0000      -0.351988        -9.5781 
 239   2.0000      -0.350561        -9.5392 
 240   2.0000      -0.349729        -9.5166 
 241   2.0000      -0.345566        -9.4033 
 242   2.0000      -0.345069        -9.3898 
 243   2.0000      -0.342004        -9.3064 
 244   2.0000      -0.340331        -9.2609 
 245   2.0000      -0.336147        -9.1470 
 246   2.0000      -0.317965        -8.6523 
 247   2.0000      -0.314805        -8.5663 
 248   2.0000      -0.309558        -8.4235 
 249   2.0000      -0.298363        -8.1189 
 250   2.0000      -0.295972        -8.0538 
 251   2.0000      -0.293446        -7.9851 
 252   2.0000      -0.287645        -7.8272 
 253   2.0000      -0.282798        -7.6953 
 254   2.0000      -0.281854        -7.6697 
 255   2.0000      -0.272400        -7.4124 
 256   2.0000      -0.269755        -7.3404 
 257   2.0000      -0.266701        -7.2573 
 258   2.0000      -0.263423        -7.1681 
 259   2.0000      -0.248038        -6.7495 
 260   2.0000      -0.239959        -6.5296 
 261   2.0000      -0.239080        -6.5057 
 262   2.0000      -0.210717        -5.7339 
 263   0.0000      -0.136917        -3.7257 
 264   0.0000      -0.127307        -3.4642 
 265   0.0000      -0.112414        -3.0589 
 266   0.0000      -0.109117        -2.9692 
 267   0.0000      -0.096231        -2.6186 
 268   0.0000      -0.068615        -1.8671 
 269   0.0000      -0.061140        -1.6637 
 270   0.0000      -0.040905        -1.1131 
 271   0.0000      -0.031995        -0.8706 
 272   0.0000      -0.030778        -0.8375 
 273   0.0000      -0.025760        -0.7010 
 274   0.0000      -0.020419        -0.5556 
 275   0.0000      -0.019866        -0.5406 
 276   0.0000      -0.016109        -0.4383 
 277   0.0000      -0.012477        -0.3395 
 278   0.0000      -0.009651        -0.2626 
 279   0.0000      -0.007161        -0.1949 
 280   0.0000      -0.004441        -0.1209 
 281   0.0000      -0.000125        -0.0034 
 282   0.0000       0.001932         0.0526 
 283   0.0000       0.008723         0.2374 
 284   0.0000       0.011471         0.3121 
 285   0.0000       0.014051         0.3823 
 286   0.0000       0.014945         0.4067 
 287   0.0000       0.019626         0.5341 
 288   0.0000       0.020560         0.5595 
 289   0.0000       0.023493         0.6393 
 290   0.0000       0.028130         0.7655 
 291   0.0000       0.029185         0.7942 
 292   0.0000       0.030084         0.8186 
 293   0.0000       0.030740         0.8365 
 294   0.0000       0.033015         0.8984 
 295   0.0000       0.033726         0.9177 
 296   0.0000       0.035488         0.9657 
[...]
   Time for Sigma-Completion:    14.110
   Size of expansion space: 12
   Lowest Energy          :     0.048755647309
   Maximum Energy change  :     0.004909232980 (vector 2)
   Maximum residual norm  :     0.000051790755

                       ****Iteration    2****
   Time for densities:     5.332
   Time for K (COSX):   249.783
   Time for XC-Integration:     5.119
   Time for Sigma-Completion:    14.775
   Size of expansion space: 15
   Lowest Energy          :     0.048650229704
   Maximum Energy change  :     0.000648798915 (vector 2)
   Maximum residual norm  :     0.000014795864
   Rebuilding the expansion space

                       ****Iteration    3****
   Time for densities:    10.420
   Time for K (COSX):   257.503
   Time for XC-Integration:     9.666
   Time for Sigma-Completion:    28.178
   Size of expansion space: 6
   Lowest Energy          :     0.048645795258
   Maximum Energy change  :     0.000131782724 (vector 2)
   Maximum residual norm  :     0.000003255714

                       ****Iteration    4****
   Time for densities:     5.324
   Time for K (COSX):   245.986
   Time for XC-Integration:     5.789
   Time for Sigma-Completion:    14.680
   Size of expansion space: 9
   Lowest Energy          :     0.048645396513
   Maximum Energy change  :     0.000031132646 (vector 2)
   Maximum residual norm  :     0.000001841698

                       ****Iteration    5****
   Time for densities:     5.323
   Time for K (COSX):   255.731
   Time for XC-Integration:     5.061
   Time for Sigma-Completion:    14.511
   Size of expansion space: 12
   Lowest Energy          :     0.048645376378
   Maximum Energy change  :     0.000024190703 (vector 2)
   Maximum residual norm  :     0.000001534269

                       ****Iteration    6****
   Time for densities:     5.325
   Time for K (COSX):   253.680
   Time for XC-Integration:     4.776
   Time for Sigma-Completion:    14.357
   Size of expansion space: 15
   Lowest Energy          :     0.048645375792
   Maximum Energy change  :     0.000014832448 (vector 2)
   Maximum residual norm  :     0.000000252098
   Rebuilding the expansion space

                       ****Iteration    7****
   Time for densities:    10.434
   Time for K (COSX):   260.743
   Time for XC-Integration:     8.647
   Time for Sigma-Completion:    29.307
   Size of expansion space: 6
   Lowest Energy          :     0.048645377240
   Maximum Energy change  :     0.000001733462 (vector 2)
   Maximum residual norm  :     0.000000104010

      *** CONVERGENCE OF RESIDUAL NORM REACHED ***

Storing the converged CI vectors               ... Y6.cis3

                 *** DAVIDSON DONE ***

------------------------------------
TD-DFT/TDA EXCITED STATES (TRIPLETS)
------------------------------------

the weight of the individual excitations are printed if larger than 1.0e-02

STATE  1:  E=   0.048645 au      1.324 eV    10676.4 cm**-1
   260a -> 264a  :     0.043622 (c=  0.20885908)
   261a -> 264a  :     0.011901 (c= -0.10909242)
   262a -> 263a  :     0.901514 (c=  0.94948106)
   262a -> 265a  :     0.010882 (c=  0.10431782)

STATE  2:  E=   0.057455 au      1.563 eV    12609.9 cm**-1
   258a -> 264a  :     0.012325 (c= -0.11101955)
   260a -> 263a  :     0.155689 (c= -0.39457450)
   261a -> 263a  :     0.051462 (c=  0.22685199)
   262a -> 264a  :     0.733761 (c= -0.85659839)
   262a -> 266a  :     0.022109 (c=  0.14869150)

STATE  3:  E=   0.075131 au      2.044 eV    16489.3 cm**-1
   257a -> 264a  :     0.014313 (c=  0.11963731)
   258a -> 263a  :     0.059490 (c= -0.24390492)
   258a -> 265a  :     0.011585 (c=  0.10763551)
   260a -> 264a  :     0.075454 (c= -0.27468845)
   260a -> 266a  :     0.025262 (c= -0.15893947)
   261a -> 264a  :     0.043496 (c=  0.20855814)
   262a -> 265a  :     0.631614 (c=  0.79474117)
   262a -> 266a  :     0.020814 (c= -0.14427128)
   262a -> 267a  :     0.050586 (c= -0.22491330)

------------------------------
TD-DFT/TDA SPIN-ORBIT COUPLING
------------------------------

Calculating the spin-orbit integrals:             

Loading the effective charges         ... done
Entering the SOC calc. section        ... 
------------------------------------------------------------------------------
                         ORCA SPIN-ORBIT COUPLING CALCULATION
------------------------------------------------------------------------------

GBW file                                    ... Y6.gbw
Input density                               ... Y6.cisp0
Output integrals                            ... Y6.cis
Operator type                               ... Mean-field/Effective potential
   One-Electron Terms                       ... 1
   Coulomb Contribution                     ... 2
   Exchange Contribution                    ... 3
   Correlation Contribution                 ... 0
   Maximum number of centers                ... 4
Setting up the integration grid             ... done
Evaluating density on the grid              ... (NumEl=  526.000952) done
Evaluating Coulomb term semi-analytically   ... done
One-Center Exchange (+SOO)                  ... done
Evaluating the spin-orbit operator          ... done
Transforming the SOC integrals              ... done
Constructing the SOC matrix:                ... done
Diagonalizing the SOC matrix:               ... done

      --------------------------------------------------------------------------------
                      CALCULATED SOCME BETWEEN TRIPLETS AND SINGLETS                  
      --------------------------------------------------------------------------------
           Root                          <T|HSO|S>  (Re, Im) cm-1                     
         T      S             Z                     X                     Y           
      --------------------------------------------------------------------------------
         1      0    (   0.00 ,    0.74 )    (   0.00 ,   -0.31 )    (  -0.00 ,   -0.94 )
         1      1    (   0.00 ,   -0.26 )    (   0.00 ,   -0.31 )    (  -0.00 ,   -0.17 )
         1      2    (   0.00 ,   -0.34 )    (   0.00 ,   -0.30 )    (  -0.00 ,   -0.35 )
         1      3    (   0.00 ,   -0.78 )    (   0.00 ,   -0.32 )    (  -0.00 ,   -0.11 )
         2      0    (   0.00 ,    0.43 )    (   0.00 ,   -1.43 )    (  -0.00 ,   -0.84 )
         2      1    (   0.00 ,   -0.19 )    (   0.00 ,   -0.12 )    (  -0.00 ,   -0.03 )
         2      2    (   0.00 ,   -0.41 )    (   0.00 ,   -0.31 )    (  -0.00 ,   -0.12 )
         2      3    (   0.00 ,   -0.65 )    (   0.00 ,   -0.13 )    (  -0.00 ,   -0.19 )
         3      0    (   0.00 ,    1.30 )    (   0.00 ,    0.11 )    (  -0.00 ,   -0.30 )
         3      1    (   0.00 ,   -0.23 )    (   0.00 ,   -0.26 )    (  -0.00 ,   -0.16 )
         3      2    (   0.00 ,    0.09 )    (   0.00 ,    0.00 )    (  -0.00 ,   -0.11 )
         3      3    (   0.00 ,    0.31 )    (   0.00 ,    0.19 )    (  -0.00 ,    0.02 )

SOC stabilization of the ground state:  -0.0005 cm-1
Eigenvalues of the SOC matrix:

   State:        cm-1         eV
     0:          0.00         0.0000
     1:      10676.43         1.3237
     2:      10676.43         1.3237
     3:      10676.43         1.3237
     4:      12609.86         1.5634
     5:      12609.86         1.5634
     6:      12609.86         1.5634
     7:      15019.52         1.8622
     8:      16489.27         2.0444
     9:      16489.27         2.0444
    10:      16489.27         2.0444
    11:      17070.33         2.1165
    12:      19113.95         2.3698

The threshold for printing is 0.0100
Eigenvectors of the SOC matrix:

             E(cm-1)  Weight      Real         Imag     : Root  Spin  Ms
 STATE  0:      0.00
                      1.00000     -0.94235      0.33463 : 0     0     0
 STATE  1:  10676.43
                      0.62465      0.46605     -0.63831 : 1     1     0
                      0.18768     -0.36846     -0.22784 : 1     1    -1
                      0.18768     -0.32923     -0.28157 : 1     1     1
 STATE  2:  10676.43
                      0.02901      0.03457     -0.16679 : 1     1     0
                      0.48549      0.24049     -0.65396 : 1     1    -1
                      0.48549     -0.03923      0.69567 : 1     1     1
 STATE  3:  10676.43
                      0.34634      0.46990      0.35430 : 1     1     0
                      0.32683     -0.45492      0.34623 : 1     1    -1
                      0.32683     -0.20772      0.53262 : 1     1     1
 STATE  4:  12609.86
                      0.90167     -0.86323     -0.39562 : 2     1     0
                      0.04916     -0.21690     -0.04602 : 2     1    -1
                      0.04916      0.17646      0.13426 : 2     1     1
 STATE  5:  12609.86
                      0.49616      0.61251      0.34785 : 2     1    -1
                      0.49616      0.05194      0.70247 : 2     1     1
 STATE  6:  12609.86
                      0.09065     -0.16633     -0.25097 : 2     1     0
                      0.45467      0.60195      0.30386 : 2     1    -1
                      0.45467     -0.04533     -0.67277 : 2     1     1
 STATE  7:  15019.52
                      1.00000     -0.51609     -0.85653 : 1     0     0
 STATE  8:  16489.27
                      0.53896     -0.68095      0.27435 : 3     1     0
                      0.23052     -0.34602      0.33285 : 3     1    -1
                      0.23052      0.48013     -0.00000 : 3     1     1
 STATE  9:  16489.27
                      0.49978     -0.48665      0.51279 : 3     1    -1
                      0.49978     -0.70695      0.00000 : 3     1     1
 STATE 10:  16489.27
                      0.46060     -0.61823      0.27997 : 3     1     0
                      0.26970      0.34257     -0.39032 : 3     1    -1
                      0.26970     -0.51933      0.00000 : 3     1     1
 STATE 11:  17070.33
                      1.00000      0.99986     -0.01652 : 2     0     0
 STATE 12:  19113.95
                      1.00000     -0.12865     -0.99169 : 3     0     0

-----------------------------
TD-DFT/TDA-EXCITATION SPECTRA
-----------------------------

Center of mass = ( 18.5020, -1.8359, -2.9031)
Calculating the Dipole integrals                  ... done
Transforming integrals                            ... done
Calculating the Linear Momentum integrals         ... done
Transforming integrals                            ... done
Calculating angular momentum integrals            ... done
Transforming integrals                            ... done

-----------------------------------------------------------------------------
         ABSORPTION SPECTRUM VIA TRANSITION ELECTRIC DIPOLE MOMENTS
-----------------------------------------------------------------------------
State   Energy    Wavelength  fosc         T2        TX        TY        TZ  
        (cm-1)      (nm)                 (au**2)    (au)      (au)      (au) 
-----------------------------------------------------------------------------
   1   15019.5    665.8   2.416564787  52.96852   4.80514  -2.60402  -4.80607
   2   17070.3    585.8   0.156216401   3.01273  -0.26320   0.12133   1.71136
   3   19114.0    523.2   0.321185921   5.53199  -1.42146   1.09312   1.52202
   4   10676.4    936.6   spin forbidden (mult=3)
   5   12609.9    793.0   spin forbidden (mult=3)
   6   16489.3    606.5   spin forbidden (mult=3)

-----------------------------------------------------------------------------
         ABSORPTION SPECTRUM VIA TRANSITION VELOCITY DIPOLE MOMENTS
-----------------------------------------------------------------------------
State   Energy    Wavelength   fosc        P2         PX        PY        PZ  
        (cm-1)      (nm)                 (au**2)     (au)      (au)      (au) 
-----------------------------------------------------------------------------
   1   15019.5    665.8   0.481950740   0.04947  -0.11600   0.10196   0.16007
   2   17070.3    585.8   0.016004931   0.00187   0.02978  -0.02683  -0.01613
   3   19114.0    523.2   0.163407619   0.02135   0.09420  -0.03724  -0.10529
   4   10676.4    936.6   spin forbidden (mult=3)
   5   12609.9    793.0   spin forbidden (mult=3)
   6   16489.3    606.5   spin forbidden (mult=3)

-------------------------------------------------------------------
                             CD SPECTRUM
-------------------------------------------------------------------
State  Energy     Wavelength     R         MX        MY        MZ   
       (cm-1)       (nm)     (1e40*cgs)   (au)      (au)      (au)  
-------------------------------------------------------------------
   1   15019.5    665.8    -175.83562   0.44377   0.59063   0.20127
   2   17070.3    585.8     63.08909   0.02303  -0.31948   0.10439
   3   19114.0    523.2     -7.13846  -0.08646   0.05181  -0.12790
   4   10676.4    936.6 spin forbidden
   5   12609.9    793.0 spin forbidden
   6   16489.3    606.5 spin forbidden

-------------------------------------------
SOC CORRECTED TD-DFT/TDA-EXCITATION SPECTRA
--------------------------------------------

-----------------------------------------------------------------------------
  SOC CORRECTED ABSORPTION SPECTRUM VIA TRANSITION ELECTRIC DIPOLE MOMENTS*  
-----------------------------------------------------------------------------
State   Energy  Wavelength   fosc         T2         TX        TY        TZ  
        (cm-1)    (nm)                  (au**2)     (au)      (au)      (au) 
-----------------------------------------------------------------------------
   1   10676.4    936.6   0.000000001   0.00000   0.00016   0.00006   0.00008
   2   10676.4    936.6   0.000000001   0.00000   0.00012   0.00007   0.00014
   3   10676.4    936.6   0.000000009   0.00000   0.00043   0.00023   0.00024
   4   12609.9    793.0   0.000000007   0.00000   0.00037   0.00017   0.00015
   5   12609.9    793.0   0.000000007   0.00000   0.00029   0.00016   0.00026
   6   12609.9    793.0   0.000000009   0.00000   0.00038   0.00024   0.00014
   7   15019.5    665.8   2.416564736  52.96852   4.80514   2.60402   4.80607
   8   16489.3    606.5   0.000000102   0.00000   0.00093   0.00048   0.00097
   9   16489.3    606.5   0.000000012   0.00000   0.00020   0.00010   0.00043
  10   16489.3    606.5   0.000000002   0.00000   0.00014   0.00006   0.00016
  11   17070.3    585.8   0.156216337   3.01273   0.26320   0.12133   1.71135
  12   19114.0    523.2   0.321185922   5.53199   1.42146   1.09312   1.52202

-----------------------------------------------------------------------------
  SOC CORRECTED ABSORPTION SPECTRUM VIA TRANSITION VELOCITY DIPOLE MOMENTS*  
-----------------------------------------------------------------------------
State   Energy  Wavelength   fosc         P2         PX        PY        PZ  
        (cm-1)    (nm)                  (au**2)     (au)      (au)      (au) 
-----------------------------------------------------------------------------
   1   10676.4    936.6   0.000000000   0.00000   0.00000   0.00000   0.00000
   2   10676.4    936.6   0.000000002   0.00000   0.00001   0.00001   0.00001
   3   10676.4    936.6   0.000000002   0.00000   0.00001   0.00000   0.00001
   4   12609.9    793.0   0.000000001   0.00000   0.00000   0.00000   0.00001
   5   12609.9    793.0   0.000000001   0.00000   0.00001   0.00000   0.00001
   6   12609.9    793.0   0.000000000   0.00000   0.00000   0.00000   0.00000
   7   15019.5    665.8   0.481950707   0.04947   0.11600   0.10196   0.16007
   8   16489.3    606.5   0.000000009   0.00000   0.00001   0.00002   0.00002
   9   16489.3    606.5   0.000000002   0.00000   0.00001   0.00001   0.00001
  10   16489.3    606.5   0.000000002   0.00000   0.00001   0.00001   0.00001
  11   17070.3    585.8   0.016004917   0.00187   0.02978   0.02683   0.01613
  12   19114.0    523.2   0.163407604   0.02135   0.09420   0.03724   0.10529

-------------------------------------------------------------------
                    SOC CORRECTED CD SPECTRUM*                     
-------------------------------------------------------------------
State   Energy Wavelength       R         MX        MY        MZ   
        (cm-1)   (nm)       (1e40*sgs)   (au)      (au)      (au)  
-------------------------------------------------------------------
   1   10676.4    936.6      0.00000   0.00002   0.00002   0.00001
   2   10676.4    936.6      0.00000   0.00004   0.00005   0.00001
   3   10676.4    936.6      0.00000   0.00002   0.00002   0.00001
   4   12609.9    793.0      0.00000   0.00004   0.00005   0.00002
   5   12609.9    793.0      0.00000   0.00001   0.00001   0.00001
   6   12609.9    793.0      0.00000   0.00000   0.00002   0.00001
   7   15019.5    665.8    175.83563   0.44377   0.59063   0.20127
   8   16489.3    606.5      0.00000   0.00010   0.00012   0.00004
   9   16489.3    606.5      0.00000   0.00001   0.00008   0.00001
  10   16489.3    606.5      0.00000   0.00001   0.00006   0.00000
  11   17070.3    585.8     63.08911   0.02303   0.31948   0.10439
  12   19114.0    523.2      7.13847   0.08646   0.05181   0.12790

*The X,Y and Z components are the absolute values of the complex numbers

Total run time:     6469.043 sec

           *** ORCA-CIS/TD-DFT FINISHED WITHOUT ERROR ***

---------------------------
SOC CIS/TD-DFT TOTAL ENERGY
---------------------------

    E(SCF)        =  -4975.134084194 Eh
    E(SOC CIS)    =      0.048645376 Eh (SOC Root  1)
    ----------------------------- ---------
    E(tot)        =  -4975.085438818 Eh


-------------------------   --------------------
FINAL SINGLE POINT ENERGY     -4975.085438818125
-------------------------   --------------------


                            ***************************************
                            *     ORCA property calculations      *
                            ***************************************

                                    ---------------------
                                    Active property flags
                                    ---------------------
   (+) Dipole Moment


------------------------------------------------------------------------------
                       ORCA ELECTRIC PROPERTIES CALCULATION
------------------------------------------------------------------------------

Dipole Moment Calculation                       ... on
Quadrupole Moment Calculation                   ... off
Polarizability Calculation                      ... off
GBWName                                         ... Y6.gbw
Electron density file                           ... Y6.scfp
The origin for moment calculation is the CENTER OF MASS  = (18.502030, -1.835911 -2.903141)

-------------
DIPOLE MOMENT
-------------
                                X             Y             Z
Electronic contribution:    -18.64807       4.91727      -7.06379
Nuclear contribution   :     18.14427      -4.89251       7.16667
                        -----------------------------------------
Total Dipole Moment    :     -0.50381       0.02476       0.10288
                        -----------------------------------------
Magnitude (a.u.)       :      0.51480
Magnitude (Debye)      :      1.30852



--------------------
Rotational spectrum 
--------------------
 
Rotational constants in cm-1:     0.001596     0.000261     0.000235 
Rotational constants in MHz :    47.853381     7.822356     7.055460 

 Dipole components along the rotational axes: 
x,y,z [a.u.] :     0.393730    -0.263765     0.201063 
x,y,z [Debye]:     1.000783    -0.670436     0.511061 

 

Timings for individual modules:

Sum of individual times         ...     9957.307 sec (= 165.955 min)
GTO integral calculation        ...       11.030 sec (=   0.184 min)   0.1 %
SCF iterations                  ...     3476.109 sec (=  57.935 min)  34.9 %
CIS module                      ...     6470.169 sec (= 107.836 min)  65.0 %
                             ****ORCA TERMINATED NORMALLY****
TOTAL RUN TIME: 0 days 2 hours 45 minutes 59 seconds 933 msec
