
                                 *****************
                                 * O   R   C   A *
                                 *****************

           --- An Ab Initio, DFT and Semiempirical electronic structure package ---

                  #######################################################
                  #                        -***-                        #
                  #          Department of theory and spectroscopy      #
                  #               Directorship: Frank Neese             #
                  #        Max Planck Institute fuer Kohlenforschung    #
                  #                Kaiser Wilhelm Platz 1               #
                  #                 D-45470 Muelheim/Ruhr               #
                  #                      Germany                        #
                  #                                                     #
                  #                  All rights reserved                #
                  #                        -***-                        #
                  #######################################################


                         Program Version 4.2.0 -  RELEASE  -


 With contributions from (in alphabetic order):
   Daniel Aravena         : Magnetic Suceptibility
   Michael Atanasov       : Ab Initio Ligand Field Theory (pilot matlab implementation)
   Alexander A. Auer      : GIAO ZORA, VPT2
   Ute Becker             : Parallelization
   Giovanni Bistoni       : ED, misc. LED, open-shell LED, HFLED
   Martin Brehm           : Molecular dynamics
   Dmytro Bykov           : SCF Hessian
   Vijay G. Chilkuri      : MRCI spin determinant printing, contributions to CSF-ICE
   Dipayan Datta          : RHF DLPNO-CCSD density
   Achintya Kumar Dutta   : EOM-CC, STEOM-CC
   Dmitry Ganyushin       : Spin-Orbit,Spin-Spin,Magnetic field MRCI
   Miquel Garcia          : C-PCM Hessian, Gaussian charge scheme
   Yang Guo               : DLPNO-NEVPT2, CIM, IAO-localization
   Andreas Hansen         : Spin unrestricted coupled pair/coupled cluster methods
   Benjamin Helmich-Paris : CASSCF linear response (MC-RPA)
   Lee Huntington         : MR-EOM, pCC
   Robert Izsak           : Overlap fitted RIJCOSX, COSX-SCS-MP3, EOM
   Christian Kollmar      : KDIIS, OOCD, Brueckner-CCSD(T), CCSD density
   Simone Kossmann        : Meta GGA functionals, TD-DFT gradient, OOMP2, MP2 Hessian
   Martin Krupicka        : AUTO-CI
   Lucas Lang             : DCDCAS
   Dagmar Lenk            : GEPOL surface, SMD
   Dimitrios Liakos       : Extrapolation schemes; Compound Job, initial MDCI parallelization
   Dimitrios Manganas     : Further ROCIS development; embedding schemes
   Dimitrios Pantazis     : SARC Basis sets
   Taras Petrenko         : DFT Hessian,TD-DFT gradient, ASA, ECA, R-Raman, ABS, FL, XAS/XES, NRVS
   Peter Pinski           : DLPNO-MP2, DLPNO-MP2 Gradient
   Christoph Reimann      : Effective Core Potentials
   Marius Retegan         : Local ZFS, SOC
   Christoph Riplinger    : Optimizer, TS searches, QM/MM, DLPNO-CCSD(T), (RO)-DLPNO pert. Triples
   Tobias Risthaus        : Range-separated hybrids, TD-DFT gradient, RPA, STAB
   Michael Roemelt        : Original ROCIS implementation
   Masaaki Saitow         : Open-shell DLPNO-CCSD energy and density
   Barbara Sandhoefer     : DKH picture change effects
   Avijit Sen             : IP-ROCIS
   Kantharuban Sivalingam : CASSCF convergence, NEVPT2, FIC-MRCI
   Bernardo de Souza      : ESD, SOC TD-DFT
   Georgi Stoychev        : AutoAux, RI-MP2 NMR
   Willem Van den Heuvel  : Paramagnetic NMR
   Boris Wezisla          : Elementary symmetry handling
   Frank Wennmohs         : Technical directorship


 We gratefully acknowledge several colleagues who have allowed us to
 interface, adapt or use parts of their codes:
   Stefan Grimme, W. Hujo, H. Kruse,             : VdW corrections, initial TS optimization,
                  C. Bannwarth                     DFT functionals, gCP, sTDA/sTD-DF
   Ed Valeev, F. Pavosevic, A. Kumar             : LibInt (2-el integral package), F12 methods
   Garnet Chan, S. Sharma, J. Yang, R. Olivares  : DMRG
   Ulf Ekstrom                                   : XCFun DFT Library
   Mihaly Kallay                                 : mrcc  (arbitrary order and MRCC methods)
   Andreas Klamt, Michael Diedenhofen            : otool_cosmo (COSMO solvation model)
   Jiri Pittner, Ondrej Demel                    : Mk-CCSD
   Frank Weinhold                                : gennbo (NPA and NBO analysis)
   Christopher J. Cramer and Donald G. Truhlar   : smd solvation model
   Lars Goerigk                                  : TD-DFT with DH, B97 family of functionals
   V. Asgeirsson, H. Jonsson                     : NEB implementation
   FAccTs GmbH                                   : IRC, NEB, NEB-TS, Multilevel, MM, QM/MM, CI optimization
   S Lehtola, MJT Oliveira, MAL Marques          : LibXC Library


 Your calculation uses the libint2 library for the computation of 2-el integrals
 For citations please refer to: http://libint.valeyev.net

 Your ORCA version has been built with support for libXC version: 4.2.3
 For citations please refer to: https://tddft.org/programs/libxc/

 This ORCA versions uses:
   CBLAS   interface :  Fast vector & matrix operations
   LAPACKE interface :  Fast linear algebra routines
   SCALAPACK package :  Parallel linear algebra routines


XCFun DFT library Copyright 2009-2010 Ulf Ekstrom and contributors.
See http://admol.org/xcfun for more information. This is free soft-
ware; see the source code for copying conditions. There is ABSOLUTELY
NO WARRANTY; not even for MERCHANTABILITY or FITNESS FOR A PARTICULAR
PURPOSE. For details see the documentation. Scientific users of this 
library should cite U. Ekstrom, L. Visscher, R. Bast, A. J. Thorvald-
sen and K. Ruud; J.Chem.Theor.Comp. 2010, DOI: 10.1021/ct100117s
XCFun Version 0.99 
----- Orbital basis set information -----
Your calculation utilizes the basis: def2-SVP
   F. Weigend and R. Ahlrichs, Phys. Chem. Chem. Phys. 7, 3297 (2005).

----- AuxJ basis set information -----
Your calculation utilizes the auxiliary basis: def2/J
   F. Weigend, Phys. Chem. Chem. Phys. 8, 1057 (2006).

================================================================================
                                        WARNINGS
                       Please study these warnings very carefully!
================================================================================

INFO   : Checking CIS options ...

WARNING: CIS/ROCIS methods need fully converged wavefunctions
  ===> : Setting SCFConvForced true
         You can overwrite this default with %scf ConvForced false 


INFO   : the flag for use of LIBINT has been found!

================================================================================
                                       INPUT FILE
================================================================================
NAME = AQx-2.inp
|  1> # ORCA input file
|  2> # AQx-2.out
|  3> ! CAM-B3LYP def2-SVP def2/J RIJCOSX Grid4 TightSCF
|  4> %maxcore 5000
|  5> %tddft
|  6>     Mode sTDDFT
|  7>     Ethresh 5.0
|  8>     maxcore 5000
|  9> end
| 10> * xyz 0 1
| 11>    C        4.92510         2.24815        -1.47993
| 12>    O        5.92084         1.77685        -2.00086
| 13>    C        4.04849         3.28400        -2.06674
| 14>    C        4.16400         3.91317        -3.29009
| 15>    C        3.20815         4.86178        -3.61648
| 16>    F        3.27963         5.49723        -4.79264
| 17>    C        2.17310         5.16060        -2.73060
| 18>    F        1.26434         6.08145        -3.07084
| 19>    C        2.05832         4.52717        -1.50139
| 20>    C        3.00957         3.57628        -1.16755
| 21>    C        3.17153         2.74183         0.02534
| 22>    C        2.33468         2.75600         1.11202
| 23>    C        2.46642         1.95874         2.26835
| 24>    N        2.49907         1.34649         3.24012
| 25>    C        1.20179         3.58974         1.22615
| 26>    N        0.26925         4.24039         1.38307
| 27>    C        4.35218         1.92780        -0.17388
| 28>    C        4.84568         1.01252         0.72927
| 29>    C        5.95722         0.17201         0.67051
| 30>    S        7.09011         0.08229        -0.68206
| 31>    C        7.99634        -1.12729         0.14255
| 32>    C        7.44379        -1.43742         1.40008
| 33>    C        6.30217        -0.71417         1.71014
| 34>    C        5.53180        -0.92320         2.97212
| 35>    C        4.38269        -1.91084         2.74941
| 36>    S        8.34443        -2.65815         2.28148
| 37>    C        9.45591        -2.74146         0.96279
| 38>    C        9.14286        -1.88629        -0.10066
| 39>    N       10.06978        -2.02117        -1.10368
| 40>    C       10.20867        -0.93585        -2.05174
| 41>    C       11.15940         0.13288        -1.51668
| 42>    C       10.99950        -2.95622        -0.68468
| 43>    C       10.64342        -3.40373         0.62075
| 44>    C       11.44106        -4.27930         1.40352
| 45>    N       11.05215        -4.65113         2.62805
| 46>    C       11.88054        -5.41637         3.30519
| 47>    C       13.11397        -5.82346         2.78257
| 48>    N       13.51086        -5.47947         1.57651
| 49>    C       12.67949        -4.70824         0.86697
| 50>    C       12.98818        -4.34023        -0.46868
| 51>    C       12.13939        -3.54053        -1.28812
| 52>    N       12.65867        -3.51847        -2.56615
| 53>    C       12.07481        -3.11870        -3.82569
| 54>    C       12.72114        -1.85015        -4.37895
| 55>    C       13.82175        -4.23985        -2.55889
| 56>    C       14.06105        -4.74447        -1.27596
| 57>    S       15.49679        -5.69492        -1.15849
| 58>    C       15.78924        -5.42777        -2.86294
| 59>    C       14.79370        -4.65032        -3.47438
| 60>    S       15.07685        -4.49109        -5.16230
| 61>    C       16.58155        -5.39821        -5.02424
| 62>    C       16.81123        -5.84361        -3.72561
| 63>    C       17.89187        -6.78784        -3.30054
| 64>    C       18.71817        -6.25527        -2.12888
| 65>    C       17.27238        -5.63288        -6.23447
| 66>    C       18.60349        -5.81190        -6.47493
| 67>    C       19.78356        -5.50264        -5.70173
| 68>    C       19.89575        -4.51652        -4.75718
| 69>    C       21.10150        -4.18542        -4.10583
| 70>    N       22.05108        -3.89134        -3.53252
| 71>    C       18.82974        -3.67110        -4.38847
| 72>    N       18.00350        -2.93554        -4.08231
| 73>    C       20.90247        -6.22324        -6.30949
| 74>    C       22.20940        -6.39777        -5.88553
| 75>    C       23.06446        -7.12233        -6.70291
| 76>    F       24.32721        -7.31740        -6.30872
| 77>    C       22.63733        -7.65436        -7.92031
| 78>    F       23.49888        -8.34096        -8.67962
| 79>    C       21.33050        -7.48349        -8.34940
| 80>    C       20.47518        -6.77233        -7.53141
| 81>    C       19.03771        -6.47185        -7.73180
| 82>    O       18.35132        -6.74132        -8.68937
| 83>    H        4.96684         3.67926        -3.97090
| 84>    H        1.23942         4.79609        -0.85475
| 85>    H        4.28672         0.91526         1.64979
| 86>    H        5.13145         0.01817         3.35087
| 87>    H        6.21176        -1.33273         3.72166
| 88>    H        3.68558        -1.53057         2.00654
| 89>    H        3.84391        -2.06216         3.68013
| 90>    H        4.76817        -2.86857         2.40782
| 91>    H        9.21270        -0.50696        -2.18795
| 92>    H       10.55308        -1.29674        -3.01537
| 93>    H       10.78373         0.53594        -0.57923
| 94>    H       11.24255         0.94554        -2.23274
| 95>    H       12.14808        -0.28600        -1.33867
| 96>    H       11.55811        -5.71421         4.29316
| 97>    H       13.79250        -6.44424         3.35091
| 98>    H       10.99608        -3.01661        -3.70066
| 99>    H       12.24529        -3.93482        -4.53691
|100>    H       12.23074        -1.56109        -5.30410
|101>    H       13.77122        -2.03252        -4.59042
|102>    H       12.65633        -1.02765        -3.67255
|103>    H       18.53892        -7.01998        -4.14683
|104>    H       17.41164        -7.71968        -2.98520
|105>    H       19.11925        -5.26764        -2.34070
|106>    H       19.54693        -6.92906        -1.92664
|107>    H       18.10660        -6.18289        -1.23390
|108>    H       16.64309        -5.72598        -7.11614
|109>    H       22.58139        -6.00685        -4.95234
|110>    H       20.99973        -7.89444        -9.28987
|111> *
|112> 
|113>                          ****END OF INPUT****
================================================================================

                       ****************************
                       * Single Point Calculation *
                       ****************************

---------------------------------
CARTESIAN COORDINATES (ANGSTROEM)
---------------------------------
  C      4.925100    2.248150   -1.479930
  O      5.920840    1.776850   -2.000860
  C      4.048490    3.284000   -2.066740
  C      4.164000    3.913170   -3.290090
  C      3.208150    4.861780   -3.616480
  F      3.279630    5.497230   -4.792640
  C      2.173100    5.160600   -2.730600
  F      1.264340    6.081450   -3.070840
  C      2.058320    4.527170   -1.501390
  C      3.009570    3.576280   -1.167550
  C      3.171530    2.741830    0.025340
  C      2.334680    2.756000    1.112020
  C      2.466420    1.958740    2.268350
  N      2.499070    1.346490    3.240120
  C      1.201790    3.589740    1.226150
  N      0.269250    4.240390    1.383070
  C      4.352180    1.927800   -0.173880
  C      4.845680    1.012520    0.729270
  C      5.957220    0.172010    0.670510
  S      7.090110    0.082290   -0.682060
  C      7.996340   -1.127290    0.142550
  C      7.443790   -1.437420    1.400080
  C      6.302170   -0.714170    1.710140
  C      5.531800   -0.923200    2.972120
  C      4.382690   -1.910840    2.749410
  S      8.344430   -2.658150    2.281480
  C      9.455910   -2.741460    0.962790
  C      9.142860   -1.886290   -0.100660
  N     10.069780   -2.021170   -1.103680
  C     10.208670   -0.935850   -2.051740
  C     11.159400    0.132880   -1.516680
  C     10.999500   -2.956220   -0.684680
  C     10.643420   -3.403730    0.620750
  C     11.441060   -4.279300    1.403520
  N     11.052150   -4.651130    2.628050
  C     11.880540   -5.416370    3.305190
  C     13.113970   -5.823460    2.782570
  N     13.510860   -5.479470    1.576510
  C     12.679490   -4.708240    0.866970
  C     12.988180   -4.340230   -0.468680
  C     12.139390   -3.540530   -1.288120
  N     12.658670   -3.518470   -2.566150
  C     12.074810   -3.118700   -3.825690
  C     12.721140   -1.850150   -4.378950
  C     13.821750   -4.239850   -2.558890
  C     14.061050   -4.744470   -1.275960
  S     15.496790   -5.694920   -1.158490
  C     15.789240   -5.427770   -2.862940
  C     14.793700   -4.650320   -3.474380
  S     15.076850   -4.491090   -5.162300
  C     16.581550   -5.398210   -5.024240
  C     16.811230   -5.843610   -3.725610
  C     17.891870   -6.787840   -3.300540
  C     18.718170   -6.255270   -2.128880
  C     17.272380   -5.632880   -6.234470
  C     18.603490   -5.811900   -6.474930
  C     19.783560   -5.502640   -5.701730
  C     19.895750   -4.516520   -4.757180
  C     21.101500   -4.185420   -4.105830
  N     22.051080   -3.891340   -3.532520
  C     18.829740   -3.671100   -4.388470
  N     18.003500   -2.935540   -4.082310
  C     20.902470   -6.223240   -6.309490
  C     22.209400   -6.397770   -5.885530
  C     23.064460   -7.122330   -6.702910
  F     24.327210   -7.317400   -6.308720
  C     22.637330   -7.654360   -7.920310
  F     23.498880   -8.340960   -8.679620
  C     21.330500   -7.483490   -8.349400
  C     20.475180   -6.772330   -7.531410
  C     19.037710   -6.471850   -7.731800
  O     18.351320   -6.741320   -8.689370
  H      4.966840    3.679260   -3.970900
  H      1.239420    4.796090   -0.854750
  H      4.286720    0.915260    1.649790
  H      5.131450    0.018170    3.350870
  H      6.211760   -1.332730    3.721660
  H      3.685580   -1.530570    2.006540
  H      3.843910   -2.062160    3.680130
  H      4.768170   -2.868570    2.407820
  H      9.212700   -0.506960   -2.187950
  H     10.553080   -1.296740   -3.015370
  H     10.783730    0.535940   -0.579230
  H     11.242550    0.945540   -2.232740
  H     12.148080   -0.286000   -1.338670
  H     11.558110   -5.714210    4.293160
  H     13.792500   -6.444240    3.350910
  H     10.996080   -3.016610   -3.700660
  H     12.245290   -3.934820   -4.536910
  H     12.230740   -1.561090   -5.304100
  H     13.771220   -2.032520   -4.590420
  H     12.656330   -1.027650   -3.672550
  H     18.538920   -7.019980   -4.146830
  H     17.411640   -7.719680   -2.985200
  H     19.119250   -5.267640   -2.340700
  H     19.546930   -6.929060   -1.926640
  H     18.106600   -6.182890   -1.233900
  H     16.643090   -5.725980   -7.116140
  H     22.581390   -6.006850   -4.952340
  H     20.999730   -7.894440   -9.289870

----------------------------
CARTESIAN COORDINATES (A.U.)
----------------------------
  NO LB      ZA    FRAG     MASS         X           Y           Z
   0 C     6.0000    0    12.011    9.307090    4.248388   -2.796662
   1 O     8.0000    0    15.999   11.188766    3.357760   -3.781077
   2 C     6.0000    0    12.011    7.650537    6.205861   -3.905573
   3 C     6.0000    0    12.011    7.868820    7.394820   -6.217369
   4 C     6.0000    0    12.011    6.062525    9.187433   -6.834157
   5 F     9.0000    0    18.998    6.197603   10.388259   -9.056777
   6 C     6.0000    0    12.011    4.106564    9.752121   -5.160086
   7 F     9.0000    0    18.998    2.389256   11.492275   -5.803047
   8 C     6.0000    0    12.011    3.889661    8.555111   -2.837216
   9 C     6.0000    0    12.011    5.687263    6.758190   -2.206350
  10 C     6.0000    0    12.011    5.993323    5.181308    0.047886
  11 C     6.0000    0    12.011    4.411906    5.208085    2.101413
  12 C     6.0000    0    12.011    4.660858    3.701482    4.286560
  13 N     7.0000    0    14.007    4.722558    2.544497    6.122939
  14 C     6.0000    0    12.011    2.271054    6.783625    2.317088
  15 N     7.0000    0    14.007    0.508809    8.013176    2.613624
  16 C     6.0000    0    12.011    8.224428    3.643014   -0.328586
  17 C     6.0000    0    12.011    9.157008    1.913386    1.378121
  18 C     6.0000    0    12.011   11.257514    0.325052    1.267080
  19 S    16.0000    0    32.060   13.398366    0.155506   -1.288907
  20 C     6.0000    0    12.011   15.110893   -2.130269    0.269380
  21 C     6.0000    0    12.011   14.066724   -2.716330    2.645768
  22 C     6.0000    0    12.011   11.909375   -1.349586    3.231696
  23 C     6.0000    0    12.011   10.453587   -1.744595    5.616493
  24 C     6.0000    0    12.011    8.282084   -3.610964    5.195632
  25 S    16.0000    0    32.060   15.768687   -5.023176    4.311372
  26 C     6.0000    0    12.011   17.869080   -5.180609    1.819409
  27 C     6.0000    0    12.011   17.277501   -3.564572   -0.190220
  28 N     7.0000    0    14.007   19.029126   -3.819458   -2.085653
  29 C     6.0000    0    12.011   19.291590   -1.768500   -3.877227
  30 C     6.0000    0    12.011   21.088210    0.251107   -2.866110
  31 C     6.0000    0    12.011   20.786043   -5.586446   -1.293858
  32 C     6.0000    0    12.011   20.113149   -6.432118    1.173047
  33 C     6.0000    0    12.011   21.620470   -8.086705    2.652268
  34 N     7.0000    0    14.007   20.885537   -8.789362    4.966295
  35 C     6.0000    0    12.011   22.450967  -10.235456    6.245904
  36 C     6.0000    0    12.011   24.781812  -11.004745    5.258295
  37 N     7.0000    0    14.007   25.531825  -10.354698    2.979172
  38 C     6.0000    0    12.011   23.960764   -8.897284    1.638336
  39 C     6.0000    0    12.011   24.544103   -8.201846   -0.885677
  40 C     6.0000    0    12.011   22.940123   -6.690632   -2.434194
  41 N     7.0000    0    14.007   23.921420   -6.648945   -4.849321
  42 C     6.0000    0    12.011   22.818084   -5.893489   -7.229506
  43 C     6.0000    0    12.011   24.039471   -3.496277   -8.275016
  44 C     6.0000    0    12.011   26.119322   -8.012155   -4.835601
  45 C     6.0000    0    12.011   26.571534   -8.965749   -2.411215
  46 S    16.0000    0    32.060   29.284689  -10.761839   -2.189229
  47 C     6.0000    0    12.011   29.837339  -10.256999   -5.410173
  48 C     6.0000    0    12.011   27.956042   -8.787831   -6.565627
  49 S    16.0000    0    32.060   28.491117   -8.486930   -9.755333
  50 C     6.0000    0    12.011   31.334588  -10.201139   -9.494438
  51 C     6.0000    0    12.011   31.768621  -11.042823   -7.040383
  52 C     6.0000    0    12.011   33.810734  -12.827159   -6.237117
  53 C     6.0000    0    12.011   35.372215  -11.820747   -4.023000
  54 C     6.0000    0    12.011   32.640068  -10.644601  -11.781441
  55 C     6.0000    0    12.011   35.155501  -10.982899  -12.235844
  56 C     6.0000    0    12.011   37.385510  -10.398483  -10.774708
  57 C     6.0000    0    12.011   37.597519   -8.534986   -8.989767
  58 C     6.0000    0    12.011   39.876056   -7.909298   -7.758894
  59 N     7.0000    0    14.007   41.670502   -7.353567   -6.675495
  60 C     6.0000    0    12.011   35.583052   -6.937374   -8.293006
  61 N     7.0000    0    14.007   34.021684   -5.547367   -7.714448
  62 C     6.0000    0    12.011   39.499944  -11.760219  -11.923208
  63 C     6.0000    0    12.011   41.969684  -12.090033  -11.122040
  64 C     6.0000    0    12.011   43.585513  -13.459253  -12.666664
  65 F     9.0000    0    18.998   45.971765  -13.827882  -11.921753
  66 C     6.0000    0    12.011   42.778354  -14.464644  -14.967217
  67 F     9.0000    0    18.998   44.406448  -15.762130  -16.402105
  68 C     6.0000    0    12.011   40.308803  -14.141747  -15.778079
  69 C     6.0000    0    12.011   38.692483  -12.797849  -14.232302
  70 C     6.0000    0    12.011   35.976058  -12.230024  -14.610985
  71 O     8.0000    0    15.999   34.678969  -12.739249  -16.420530
  72 H     1.0000    0     1.008    9.385967    6.952794   -7.503914
  73 H     1.0000    0     1.008    2.342164    9.063297   -1.615243
  74 H     1.0000    0     1.008    8.100727    1.729591    3.117651
  75 H     1.0000    0     1.008    9.697035    0.034336    6.332227
  76 H     1.0000    0     1.008   11.738525   -2.518495    7.032918
  77 H     1.0000    0     1.008    6.964737   -2.892358    3.791811
  78 H     1.0000    0     1.008    7.263937   -3.896918    6.954438
  79 H     1.0000    0     1.008    9.010535   -5.420812    4.550120
  80 H     1.0000    0     1.008   17.409480   -0.958016   -4.134626
  81 H     1.0000    0     1.008   19.942431   -2.450483   -5.698223
  82 H     1.0000    0     1.008   20.378296    1.012780   -1.094586
  83 H     1.0000    0     1.008   21.245341    1.786812   -4.219267
  84 H     1.0000    0     1.008   22.956544   -0.540462   -2.529720
  85 H     1.0000    0     1.008   21.841663  -10.798292    8.112897
  86 H     1.0000    0     1.008   26.064048  -12.177849    6.332302
  87 H     1.0000    0     1.008   20.779580   -5.700567   -6.993234
  88 H     1.0000    0     1.008   23.140245   -7.435732   -8.573517
  89 H     1.0000    0     1.008   23.112749   -2.950033  -10.023296
  90 H     1.0000    0     1.008   26.023834   -3.840906   -8.674637
  91 H     1.0000    0     1.008   23.916998   -1.941977   -6.940114
  92 H     1.0000    0     1.008   35.033482  -13.265840   -7.836373
  93 H     1.0000    0     1.008   32.903231  -14.588081   -5.641210
  94 H     1.0000    0     1.008   36.130146   -9.954397   -4.423282
  95 H     1.0000    0     1.008   36.938344  -13.094026   -3.640822
  96 H     1.0000    0     1.008   34.216515  -11.683969   -2.331733
  97 H     1.0000    0     1.008   31.450882  -10.820534  -13.447556
  98 H     1.0000    0     1.008   42.672643  -11.351301   -9.358566
  99 H     1.0000    0     1.008   39.683739  -14.918330  -17.555310

--------------------------------
INTERNAL COORDINATES (ANGSTROEM)
--------------------------------
 C      0   0   0     0.000000000000     0.00000000     0.00000000
 O      1   0   0     1.218601617634     0.00000000     0.00000000
 C      1   2   0     1.478437110837   125.85922775     0.00000000
 C      3   1   2     1.380500877037   128.42113832     0.26006365
 C      4   3   1     1.385655291442   117.58234874   180.12146281
 F      5   4   3     1.338752568065   119.67356767   180.02683103
 C      5   4   3     1.394777856614   120.59514294     0.05387259
 F      7   5   4     1.337749123603   119.34395716   179.95162800
 C      7   5   4     1.387575308731   121.75142819   359.93590662
 C      9   7   5     1.385827370274   118.02469381     0.00000000
 C     10   9   7     1.464760866558   131.52686864   180.11253963
 C     11  10   9     1.371638485097   124.87977410     0.18727051
 C     12  11  10     1.410701245516   125.91472293   179.70519688
 N     13  12  11     1.149022635939   175.58168305   181.96147503
 C     12  11  10     1.411236265336   124.05224427   359.64205954
 N     15  12  11     1.147867658095   176.47485724   181.24020579
 C     11  10   9     1.447849395414   107.36167384   180.08656634
 C     17  11  10     1.377301583133   125.14068138   179.66427844
 C     18  17  11     1.394787069520   131.17651708   180.03710525
 S     19  18  17     1.766616833215   125.02318427     0.36190176
 C     20  19  18     1.721719559452    90.37372786   180.15791318
 C     21  20  19     1.408145525257   112.08039807   359.90992247
 C     22  21  20     1.386551113555   114.07297076   359.92766185
 C     23  22  21     1.493237087070   122.73414266   177.75076085
 C     24  23  22     1.531498059352   110.76088240   265.82990005
 S     22  21  20     1.754480009148   113.60596597   180.46093710
 C     26  22  21     1.726635938060    88.87360560     0.14194561
 C     21  20  19     1.396330983148   136.94021599   180.15193125
 N     28  21  20     1.372378381205   137.33254622   359.79302491
 C     29  28  21     1.447766451504   118.01599977    20.60691557
 C     30  29  28     1.527206780171   110.78715776    85.05984941
 C     29  28  21     1.383567411043   107.39424954   178.57049344
 C     27  26  22     1.402060239291   138.96664793   177.42940771
 C     33  27  26     1.419711684604   129.24691991   355.58900473
 N     34  33  27     1.337528413866   120.85473562     4.49828811
 C     35  34  33     1.315424201275   116.73677451   182.93543344
 C     36  35  34     1.400072675757   122.12661282     0.26372843
 N     37  36  35     1.315458671263   122.14097108   359.10009678
 C     38  37  36     1.337691594277   116.71545518     0.42962179
 C     39  38  37     1.419394870605   120.89348044   183.18558554
 C     32  29  28     1.415947464350   133.69259712   177.35322162
 N     41  32  29     1.379673527651   133.72339522   350.83890205
 C     42  41  32     1.444697049246   131.29387464   344.84988460
 C     43  42  41     1.527435170146   111.99937879   111.99174868
 C     42  41  32     1.368647835785   107.84881340   178.08232559
 C     45  42  41     1.399219503616   109.89433204     0.43397575
 S     46  45  42     1.725834218863   113.78456705   179.10526810
 C     47  46  45     1.749870260191    89.35014464   359.65353824
 C     45  42  41     1.396887383972   137.96126737   177.19790482
 S     49  45  42     1.718895587812   136.96734476   359.26980647
 C     50  49  45     1.762398748297    90.91886711   179.08275577
 C     51  50  49     1.391967650235   112.25045522     2.31051748
 C     52  51  50     1.496675518407   125.87170799   171.38991383
 C     53  52  51     1.529440960122   112.82848020   128.51521512
 C     51  50  49     1.413142862806   115.83396722   177.56877266
 C     55  51  50     1.364449707428   130.51375555   151.88997837
 C     56  55  51     1.444314783037   132.42643609   341.72709801
 C     57  56  55     1.370107277917   126.16254987   333.67501898
 C     58  57  56     1.409864211547   123.88689446   185.28084468
 N     59  58  57     1.147549379722   177.05456154   201.06778214
 C     58  57  56     1.409630930634   123.37109308     1.48309194
 N     61  58  57     1.147804424456   176.84065869   216.58452440
 C     57  56  55     1.463077634885   107.27794146   165.87697192
 C     63  57  56     1.385015822076   131.03780575   188.20546207
 C     64  63  57     1.387164323936   117.84659560   181.31004515
 F     65  64  63     1.337152056985   118.98640237   180.73573694
 C     65  64  63     1.395549611372   121.63415461     0.50486743
 F     67  65  64     1.337998370178   119.57785412   179.66298916
 C     67  65  64     1.386044528109   120.77279904   359.44808773
 C     69  67  65     1.380734763849   117.65558956     0.00000000
 C     70  69  67     1.482148569948   128.69063058   181.49400206
 O     71  70  69     1.208588274765   127.78693461   356.12025234
 H      4   3   1     1.078317304786   121.52867120     0.10518581
 H      9   7   5     1.077524229890   118.72199736   179.97695724
 H     18  17  11     1.081319961713   115.64412246     0.04299423
 H     24  23  22     1.090829575094   111.22186874   143.98142371
 H     24  23  22     1.091728278511   108.14512394    25.18836669
 H     25  24  23     1.087392965721   110.78369256   298.81498886
 H     25  24  23     1.086011670840   109.72273647   179.12534346
 H     25  24  23     1.087439796678   110.34469458    59.24725535
 H     30  29  28     1.092911724294   106.76060429   325.71515962
 H     30  29  28     1.085100279744   111.26381813   208.09684560
 H     31  30  29     1.087381172818   110.26516079   300.31948846
 H     31  30  29     1.086311245316   109.89027187   180.75360639
 H     31  30  29     1.088409921353   110.69958404    60.25451619
 H     36  35  34     1.081089492780   116.28775945   180.11928561
 H     37  36  35     1.081101810608   121.57736391   179.36384247
 H     43  42  41     1.090739786521   109.00511310   346.87680328
 H     43  42  41     1.095878265685   107.26989867   230.95891029
 H     44  43  42     1.086255203026   109.78336176   182.17917889
 H     44  43  42     1.086575530831   109.87913478    63.08425409
 H     44  43  42     1.086143427960   111.59803871   303.13616544
 H     53  52  51     1.090307042167   110.02124097     4.77645653
 H     53  52  51     1.094708159328   107.58339443   247.81266015
 H     54  53  52     1.086805362381   111.50049842   306.02948647
 H     54  53  52     1.087077329034   109.79003513   185.68694789
 H     54  53  52     1.086391241542   110.49723422    66.05602891
 H     55  51  50     1.087205363765   115.19923968   329.14850354
 H     64  63  57     1.077978934210   123.01908486     1.97303459
 H     69  67  65     1.078319301645   120.81289319   180.01011206

---------------------------
INTERNAL COORDINATES (A.U.)
---------------------------
 C      0   0   0     0.000000000000     0.00000000     0.00000000
 O      1   0   0     2.302823323682     0.00000000     0.00000000
 C      1   2   0     2.793841245708   125.85922775     0.00000000
 C      3   1   2     2.608768585238   128.42113832     0.26006365
 C      4   3   1     2.618509016843   117.58234874   180.12146281
 F      5   4   3     2.529875714726   119.67356767   180.02683103
 C      5   4   3     2.635748166658   120.59514294     0.05387259
 F      7   5   4     2.527979479502   119.34395716   179.95162800
 C      7   5   4     2.622137323693   121.75142819   359.93590662
 C      9   7   5     2.618834198710   118.02469381     0.00000000
 C     10   9   7     2.767996889480   131.52686864   180.11253963
 C     11  10   9     2.592021091581   124.87977410     0.18727051
 C     12  11  10     2.665839010807   125.91472293   179.70519688
 N     13  12  11     2.171338103601   175.58168305   181.96147503
 C     12  11  10     2.666850051743   124.05224427   359.64205954
 N     15  12  11     2.169155511785   176.47485724   181.24020579
 C     11  10   9     2.736038840495   107.36167384   180.08656634
 C     17  11  10     2.602722795937   125.14068138   179.66427844
 C     18  17  11     2.635765576527   131.17651708   180.03710525
 S     19  18  17     3.338421998352   125.02318427     0.36190176
 C     20  19  18     3.253578446780    90.37372786   180.15791318
 C     21  20  19     2.661009399442   112.08039807   359.90992247
 C     22  21  20     2.620201875302   114.07297076   359.92766185
 C     23  22  21     2.821809147576   122.73414266   177.75076085
 C     24  23  22     2.894111906808   110.76088240   265.82990005
 S     22  21  20     3.315486724729   113.60596597   180.46093710
 C     26  22  21     3.262869055919    88.87360560     0.14194561
 C     21  20  19     2.638683150459   136.94021599   180.15193125
 N     28  21  20     2.593419292592   137.33254622   359.79302491
 C     29  28  21     2.735882099221   118.01599977    20.60691557
 C     30  29  28     2.886002564391   110.78715776    85.05984941
 C     29  28  21     2.614563494690   107.39424954   178.57049344
 C     27  26  22     2.649509875520   138.96664793   177.42940771
 C     33  27  26     2.682866273029   129.24691991   355.58900473
 N     34  33  27     2.527562398546   120.85473562     4.49828811
 C     35  34  33     2.485791490342   116.73677451   182.93543344
 C     36  35  34     2.645753924766   122.12661282     0.26372843
 N     37  36  35     2.485856629178   122.14097108   359.10009678
 C     38  37  36     2.527870764832   116.71545518     0.42962179
 C     39  38  37     2.682267581336   120.89348044   183.18558554
 C     32  29  28     2.675752927642   133.69259712   177.35322162
 N     41  32  29     2.607205121481   133.72339522   350.83890205
 C     42  41  32     2.730081769559   131.29387464   344.84988460
 C     43  42  41     2.886434158896   111.99937879   111.99174868
 C     42  41  32     2.586369583418   107.84881340   178.08232559
 C     45  42  41     2.644141663076   109.89433204     0.43397575
 S     46  45  42     3.261354026202   113.78456705   179.10526810
 C     47  46  45     3.306775561654    89.35014464   359.65353824
 C     45  42  41     2.639734595637   137.96126737   177.19790482
 S     49  45  42     3.248241913771   136.96734476   359.26980647
 C     50  49  45     3.330450973048    90.91886711   179.08275577
 C     51  50  49     2.630437646222   112.25045522     2.31051748
 C     52  51  50     2.828306841135   125.87170799   171.38991383
 C     53  52  51     2.890224552633   112.82848020   128.51521512
 C     51  50  49     2.670452998809   115.83396722   177.56877266
 C     55  51  50     2.578436270548   130.51375555   151.88997837
 C     56  55  51     2.729359391114   132.42643609   341.72709801
 C     57  56  55     2.589127529355   126.16254987   333.67501898
 C     58  57  56     2.664257245840   123.88689446   185.28084468
 N     59  58  57     2.168554052825   177.05456154   201.06778214
 C     58  57  56     2.663816408803   123.37109308     1.48309194
 N     61  58  57     2.169036017524   176.84065869   216.58452440
 C     57  56  55     2.764816042597   107.27794146   165.87697192
 C     63  57  56     2.617300594871   131.03780575   188.20546207
 C     64  63  57     2.621360674985   117.84659560   181.31004515
 F     65  64  63     2.526851187112   118.98640237   180.73573694
 C     65  64  63     2.637206571793   121.63415461     0.50486743
 F     67  65  64     2.528450487270   119.57785412   179.66298916
 C     67  65  64     2.619244567546   120.77279904   359.44808773
 C     69  67  65     2.609210567258   117.65558956     0.00000000
 C     70  69  67     2.800854886985   128.69063058   181.49400206
 O     71  70  69     2.283900847975   127.78693461   356.12025234
 H      4   3   1     2.037724391513   121.52867120     0.10518581
 H      9   7   5     2.036225697156   118.72199736   179.97695724
 H     18  17  11     2.043398590781   115.64412246     0.04299423
 H     24  23  22     2.061369155710   111.22186874   143.98142371
 H     24  23  22     2.063067459043   108.14512394    25.18836669
 H     25  24  23     2.054874905166   110.78369256   298.81498886
 H     25  24  23     2.052264636129   109.72273647   179.12534346
 H     25  24  23     2.054963402849   110.34469458    59.24725535
 H     30  29  28     2.065303847468   106.76060429   325.71515962
 H     30  29  28     2.050542356557   111.26381813   208.09684560
 H     31  30  29     2.054852619809   110.26516079   300.31948846
 H     31  30  29     2.052830749846   109.89027187   180.75360639
 H     31  30  29     2.056796672800   110.69958404    60.25451619
 H     36  35  34     2.042963067615   116.28775945   180.11928561
 H     37  36  35     2.042986344936   121.57736391   179.36384247
 H     43  42  41     2.061199479897   109.00511310   346.87680328
 H     43  42  41     2.070909798261   107.26989867   230.95891029
 H     44  43  42     2.052724845265   109.78336176   182.17917889
 H     44  43  42     2.053330177090   109.87913478    63.08425409
 H     44  43  42     2.052513621002   111.59803871   303.13616544
 H     53  52  51     2.060381711582   110.02124097     4.77645653
 H     53  52  51     2.068698617700   107.58339443   247.81266015
 H     54  53  52     2.053764495777   111.50049842   306.02948647
 H     54  53  52     2.054278438269   109.79003513   185.68694789
 H     54  53  52     2.052981920806   110.49723422    66.05602891
 H     55  51  50     2.054520388847   115.19923968   329.14850354
 H     64  63  57     2.037084963793   123.01908486     1.97303459
 H     69  67  65     2.037728165030   120.81289319   180.01011206

---------------------
BASIS SET INFORMATION
---------------------
There are 6 groups of distinct atoms

 Group   1 Type C   : 7s4p1d contracted to 3s2p1d pattern {511/31/1}
 Group   2 Type O   : 7s4p1d contracted to 3s2p1d pattern {511/31/1}
 Group   3 Type F   : 7s4p1d contracted to 3s2p1d pattern {511/31/1}
 Group   4 Type N   : 7s4p1d contracted to 3s2p1d pattern {511/31/1}
 Group   5 Type S   : 10s7p1d contracted to 4s3p1d pattern {5311/511/1}
 Group   6 Type H   : 4s1p contracted to 2s1p pattern {31/1}

Atom   0C    basis set group =>   1
Atom   1O    basis set group =>   2
Atom   2C    basis set group =>   1
Atom   3C    basis set group =>   1
Atom   4C    basis set group =>   1
Atom   5F    basis set group =>   3
Atom   6C    basis set group =>   1
Atom   7F    basis set group =>   3
Atom   8C    basis set group =>   1
Atom   9C    basis set group =>   1
Atom  10C    basis set group =>   1
Atom  11C    basis set group =>   1
Atom  12C    basis set group =>   1
Atom  13N    basis set group =>   4
Atom  14C    basis set group =>   1
Atom  15N    basis set group =>   4
Atom  16C    basis set group =>   1
Atom  17C    basis set group =>   1
Atom  18C    basis set group =>   1
Atom  19S    basis set group =>   5
Atom  20C    basis set group =>   1
Atom  21C    basis set group =>   1
Atom  22C    basis set group =>   1
Atom  23C    basis set group =>   1
Atom  24C    basis set group =>   1
Atom  25S    basis set group =>   5
Atom  26C    basis set group =>   1
Atom  27C    basis set group =>   1
Atom  28N    basis set group =>   4
Atom  29C    basis set group =>   1
Atom  30C    basis set group =>   1
Atom  31C    basis set group =>   1
Atom  32C    basis set group =>   1
Atom  33C    basis set group =>   1
Atom  34N    basis set group =>   4
Atom  35C    basis set group =>   1
Atom  36C    basis set group =>   1
Atom  37N    basis set group =>   4
Atom  38C    basis set group =>   1
Atom  39C    basis set group =>   1
Atom  40C    basis set group =>   1
Atom  41N    basis set group =>   4
Atom  42C    basis set group =>   1
Atom  43C    basis set group =>   1
Atom  44C    basis set group =>   1
Atom  45C    basis set group =>   1
Atom  46S    basis set group =>   5
Atom  47C    basis set group =>   1
Atom  48C    basis set group =>   1
Atom  49S    basis set group =>   5
Atom  50C    basis set group =>   1
Atom  51C    basis set group =>   1
Atom  52C    basis set group =>   1
Atom  53C    basis set group =>   1
Atom  54C    basis set group =>   1
Atom  55C    basis set group =>   1
Atom  56C    basis set group =>   1
Atom  57C    basis set group =>   1
Atom  58C    basis set group =>   1
Atom  59N    basis set group =>   4
Atom  60C    basis set group =>   1
Atom  61N    basis set group =>   4
Atom  62C    basis set group =>   1
Atom  63C    basis set group =>   1
Atom  64C    basis set group =>   1
Atom  65F    basis set group =>   3
Atom  66C    basis set group =>   1
Atom  67F    basis set group =>   3
Atom  68C    basis set group =>   1
Atom  69C    basis set group =>   1
Atom  70C    basis set group =>   1
Atom  71O    basis set group =>   2
Atom  72H    basis set group =>   6
Atom  73H    basis set group =>   6
Atom  74H    basis set group =>   6
Atom  75H    basis set group =>   6
Atom  76H    basis set group =>   6
Atom  77H    basis set group =>   6
Atom  78H    basis set group =>   6
Atom  79H    basis set group =>   6
Atom  80H    basis set group =>   6
Atom  81H    basis set group =>   6
Atom  82H    basis set group =>   6
Atom  83H    basis set group =>   6
Atom  84H    basis set group =>   6
Atom  85H    basis set group =>   6
Atom  86H    basis set group =>   6
Atom  87H    basis set group =>   6
Atom  88H    basis set group =>   6
Atom  89H    basis set group =>   6
Atom  90H    basis set group =>   6
Atom  91H    basis set group =>   6
Atom  92H    basis set group =>   6
Atom  93H    basis set group =>   6
Atom  94H    basis set group =>   6
Atom  95H    basis set group =>   6
Atom  96H    basis set group =>   6
Atom  97H    basis set group =>   6
Atom  98H    basis set group =>   6
Atom  99H    basis set group =>   6
---------------------------------
AUXILIARY/J BASIS SET INFORMATION
---------------------------------
There are 6 groups of distinct atoms

 Group   1 Type C   : 12s5p4d2f1g contracted to 6s4p3d1f1g pattern {711111/2111/211/2/1}
 Group   2 Type O   : 12s5p4d2f1g contracted to 6s4p3d1f1g pattern {711111/2111/211/2/1}
 Group   3 Type F   : 12s5p4d2f1g contracted to 6s4p3d1f1g pattern {711111/2111/211/2/1}
 Group   4 Type N   : 12s5p4d2f1g contracted to 6s4p3d1f1g pattern {711111/2111/211/2/1}
 Group   5 Type S   : 14s5p5d2f1g contracted to 8s4p3d1f1g pattern {71111111/2111/311/2/1}
 Group   6 Type H   : 5s2p1d contracted to 3s1p1d pattern {311/2/1}

Atom   0C    basis set group =>   1
Atom   1O    basis set group =>   2
Atom   2C    basis set group =>   1
Atom   3C    basis set group =>   1
Atom   4C    basis set group =>   1
Atom   5F    basis set group =>   3
Atom   6C    basis set group =>   1
Atom   7F    basis set group =>   3
Atom   8C    basis set group =>   1
Atom   9C    basis set group =>   1
Atom  10C    basis set group =>   1
Atom  11C    basis set group =>   1
Atom  12C    basis set group =>   1
Atom  13N    basis set group =>   4
Atom  14C    basis set group =>   1
Atom  15N    basis set group =>   4
Atom  16C    basis set group =>   1
Atom  17C    basis set group =>   1
Atom  18C    basis set group =>   1
Atom  19S    basis set group =>   5
Atom  20C    basis set group =>   1
Atom  21C    basis set group =>   1
Atom  22C    basis set group =>   1
Atom  23C    basis set group =>   1
Atom  24C    basis set group =>   1
Atom  25S    basis set group =>   5
Atom  26C    basis set group =>   1
Atom  27C    basis set group =>   1
Atom  28N    basis set group =>   4
Atom  29C    basis set group =>   1
Atom  30C    basis set group =>   1
Atom  31C    basis set group =>   1
Atom  32C    basis set group =>   1
Atom  33C    basis set group =>   1
Atom  34N    basis set group =>   4
Atom  35C    basis set group =>   1
Atom  36C    basis set group =>   1
Atom  37N    basis set group =>   4
Atom  38C    basis set group =>   1
Atom  39C    basis set group =>   1
Atom  40C    basis set group =>   1
Atom  41N    basis set group =>   4
Atom  42C    basis set group =>   1
Atom  43C    basis set group =>   1
Atom  44C    basis set group =>   1
Atom  45C    basis set group =>   1
Atom  46S    basis set group =>   5
Atom  47C    basis set group =>   1
Atom  48C    basis set group =>   1
Atom  49S    basis set group =>   5
Atom  50C    basis set group =>   1
Atom  51C    basis set group =>   1
Atom  52C    basis set group =>   1
Atom  53C    basis set group =>   1
Atom  54C    basis set group =>   1
Atom  55C    basis set group =>   1
Atom  56C    basis set group =>   1
Atom  57C    basis set group =>   1
Atom  58C    basis set group =>   1
Atom  59N    basis set group =>   4
Atom  60C    basis set group =>   1
Atom  61N    basis set group =>   4
Atom  62C    basis set group =>   1
Atom  63C    basis set group =>   1
Atom  64C    basis set group =>   1
Atom  65F    basis set group =>   3
Atom  66C    basis set group =>   1
Atom  67F    basis set group =>   3
Atom  68C    basis set group =>   1
Atom  69C    basis set group =>   1
Atom  70C    basis set group =>   1
Atom  71O    basis set group =>   2
Atom  72H    basis set group =>   6
Atom  73H    basis set group =>   6
Atom  74H    basis set group =>   6
Atom  75H    basis set group =>   6
Atom  76H    basis set group =>   6
Atom  77H    basis set group =>   6
Atom  78H    basis set group =>   6
Atom  79H    basis set group =>   6
Atom  80H    basis set group =>   6
Atom  81H    basis set group =>   6
Atom  82H    basis set group =>   6
Atom  83H    basis set group =>   6
Atom  84H    basis set group =>   6
Atom  85H    basis set group =>   6
Atom  86H    basis set group =>   6
Atom  87H    basis set group =>   6
Atom  88H    basis set group =>   6
Atom  89H    basis set group =>   6
Atom  90H    basis set group =>   6
Atom  91H    basis set group =>   6
Atom  92H    basis set group =>   6
Atom  93H    basis set group =>   6
Atom  94H    basis set group =>   6
Atom  95H    basis set group =>   6
Atom  96H    basis set group =>   6
Atom  97H    basis set group =>   6
Atom  98H    basis set group =>   6
Atom  99H    basis set group =>   6
------------------------------------------------------------------------------
                           ORCA GTO INTEGRAL CALCULATION
                           -- RI-GTO INTEGRALS CHOSEN --
------------------------------------------------------------------------------

                         BASIS SET STATISTICS AND STARTUP INFO

Gaussian basis set:
 # of primitive gaussian shells          ... 1028
 # of primitive gaussian functions       ... 1972
 # of contracted shells                  ...  524
 # of contracted basis functions         ... 1164
 Highest angular momentum                ...    2
 Maximum contraction depth               ...    5
Auxiliary gaussian basis set:
 # of primitive gaussian shells          ... 1964
 # of primitive gaussian functions       ... 5516
 # of contracted shells                  ... 1228
 # of contracted aux-basis functions     ... 3844
 Highest angular momentum                ...    4
 Maximum contraction depth               ...    7
Ratio of auxiliary to basis functions    ...  3.30
Integral package used                  ... LIBINT
 One Electron integrals                  ... done
 Ordering auxiliary basis shells         ... done
 Integral threshhold             Thresh  ...  2.500e-11
 Primitive cut-off               TCut    ...  2.500e-12
 Pre-screening matrix                    ... done
 Shell pair data                         ... 
 Ordering of the shell pairs             ... done (   0.009 sec) 47992 of 137550 pairs
 Determination of significant pairs      ... done (   0.000 sec)
 Creation of shell pair data             ... done (   0.007 sec)
 Storage of shell pair data              ... done (   0.009 sec)
 Shell pair data done in (   0.026 sec)
 Computing two index integrals           ... done
 Cholesky decomposition of the V-matrix  ... done


Timings:
 Total evaluation time                   ...   2.083 sec (  0.035 min)
 One electron matrix time                ...   0.564 sec (  0.009 min) = 27.1%
 Schwartz matrix evaluation time         ...   0.644 sec (  0.011 min) = 30.9%
 Two index repulsion integral time       ...   0.336 sec (  0.006 min) = 16.1%
 Cholesky decomposition of V             ...   0.496 sec (  0.008 min) = 23.8%
 Three index repulsion integral time     ...   0.000 sec (  0.000 min) =  0.0%

-------------------------------------------------------------------------------
                                 ORCA SCF
-------------------------------------------------------------------------------

------------
SCF SETTINGS
------------
Hamiltonian:
 Density Functional     Method          .... DFT(GTOs)
 Exchange Functional    Exchange        .... WB88
 Correlation Functional Correlation     .... LYP
 LDA part of GGA corr.  LDAOpt          .... VWN-5
 Gradients option       PostSCFGGA      .... off
 Hybrid DFT is turned on
   Fraction HF Exchange ScalHFX         ....  0.190000
   Scaling of DF-GGA-X  ScalDFX         ....  0.350000
   Scaling of DF-GGA-C  ScalDFC         ....  0.810000
   Scaling of DF-LDA-C  ScalLDAC        ....  1.000000
   Perturbative correction              ....  0.000000
   Density functional embedding theory  .... OFF
 Long-range corrected/Screened/Range-Separated Hybrid DFT is turned on
   Amount of maximum screened exact exchange              ....  0.460000
   Range separation parameter mu (erf(mu*r12)/r12)        ....  0.330000
 RI-approximation to the Coulomb term is turned on
   Number of auxiliary basis functions  .... 3844
   RIJ-COSX (HFX calculated with COS-X)).... on


General Settings:
 Integral files         IntName         .... AQx-2
 Hartree-Fock type      HFTyp           .... RHF
 Total Charge           Charge          ....    0
 Multiplicity           Mult            ....    1
 Number of Electrons    NEL             ....  524
 Basis Dimension        Dim             .... 1164
 Nuclear Repulsion      ENuc            ....  10946.8006983789 Eh

Convergence Acceleration:
 DIIS                   CNVDIIS         .... on
   Start iteration      DIISMaxIt       ....    12
   Startup error        DIISStart       ....  0.200000
   # of expansion vecs  DIISMaxEq       ....     5
   Bias factor          DIISBfac        ....   1.050
   Max. coefficient     DIISMaxC        ....  10.000
 Newton-Raphson         CNVNR           .... off
 SOSCF                  CNVSOSCF        .... on
   Start iteration      SOSCFMaxIt      ....   150
   Startup grad/error   SOSCFStart      ....  0.003300
 Level Shifting         CNVShift        .... on
   Level shift para.    LevelShift      ....    0.2500
   Turn off err/grad.   ShiftErr        ....    0.0010
 Zerner damping         CNVZerner       .... off
 Static damping         CNVDamp         .... on
   Fraction old density DampFac         ....    0.7000
   Max. Damping (<1)    DampMax         ....    0.9800
   Min. Damping (>=0)   DampMin         ....    0.0000
   Turn off err/grad.   DampErr         ....    0.1000
 Fernandez-Rico         CNVRico         .... off

SCF Procedure:
 Maximum # iterations   MaxIter         ....   125
 SCF integral mode      SCFMode         .... Direct
   Integral package                     .... LIBINT
 Reset frequency        DirectResetFreq ....    20
 Integral Threshold     Thresh          ....  2.500e-11 Eh
 Primitive CutOff       TCut            ....  2.500e-12 Eh

Convergence Tolerance:
 Convergence Check Mode ConvCheckMode   .... Total+1el-Energy
 Convergence forced     ConvForced      .... 1
 Energy Change          TolE            ....  1.000e-08 Eh
 1-El. energy change                    ....  1.000e-05 Eh
 Orbital Gradient       TolG            ....  1.000e-05
 Orbital Rotation angle TolX            ....  1.000e-05
 DIIS Error             TolErr          ....  5.000e-07


Diagonalization of the overlap matrix:
Smallest eigenvalue                        ... 8.716e-05
Time for diagonalization                   ...    0.339 sec
Threshold for overlap eigenvalues          ... 1.000e-08
Number of eigenvalues below threshold      ... 0
Time for construction of square roots      ...    0.127 sec
Total time needed                          ...    0.471 sec

-------------------
DFT GRID GENERATION
-------------------

General Integration Accuracy     IntAcc      ...  4.670
Radial Grid Type                 RadialGrid  ... Gauss-Chebyshev
Angular Grid (max. acc.)         AngularGrid ... Lebedev-302
Angular grid pruning method      GridPruning ... 3 (G Style)
Weight generation scheme         WeightScheme... Becke
Basis function cutoff            BFCut       ...    1.0000e-11
Integration weight cutoff        WCut        ...    1.0000e-14
Grids for H and He will be reduced by one unit

# of grid points (after initial pruning)     ... 545072 (   1.1 sec)
# of grid points (after weights+screening)   ... 464334 (  22.4 sec)
nearest neighbour list constructed           ...    0.0 sec
Grid point re-assignment to atoms done       ...    0.1 sec
Grid point division into batches done        ...    1.6 sec
Reduced shell lists constructed in    7.9 sec

Total number of grid points                  ...   464334
Total number of batches                      ...     7305
Average number of points per batch           ...       63
Average number of grid points per atom       ...     4643
Average number of shells per batch           ...    98.92 (18.88%)
Average number of basis functions per batch  ...   204.93 (17.61%)
Average number of large shells per batch     ...    59.27 (59.92%)
Average number of large basis fcns per batch ...   124.55 (60.78%)
Maximum spatial batch extension              ...  23.09, 21.44, 23.15 au
Average spatial batch extension              ...   2.13,  2.24,  2.14 au

Time for grid setup =   31.501 sec

------------------------------
INITIAL GUESS: MODEL POTENTIAL
------------------------------
Loading Hartree-Fock densities                     ... done
Calculating cut-offs                               ... done
Setting up the integral package                    ... done
Initializing the effective Hamiltonian             ... done
Starting the Coulomb interaction                   ... done (   8.5 sec)
Reading the grid                                   ... done
Mapping shells                                     ... done
Starting the XC term evaluation                    ... done (   7.8 sec)
  promolecular density results
     # of electrons  =    523.985722789
     EX              =   -493.024852306
     EC              =    -18.225263178
     EX+EC           =   -511.250115485
Transforming the Hamiltonian                       ... done (   0.1 sec)
Diagonalizing the Hamiltonian                      ... done (   0.3 sec)
Back transforming the eigenvectors                 ... done (   0.0 sec)
Now organizing SCF variables                       ... done
                      ------------------
                      INITIAL GUESS DONE (  48.4 sec)
                      ------------------
--------------------
COSX GRID GENERATION
--------------------

General Integration Accuracy     IntAcc      ...  3.340
Radial Grid Type                 RadialGrid  ... Gauss-Chebyshev
Angular Grid (max. acc.)         AngularGrid ... Lebedev-50
Angular grid pruning method      GridPruning ... 3 (G Style)
Weight generation scheme         WeightScheme... Becke
Basis function cutoff            BFCut       ...    1.0000e-11
Integration weight cutoff        WCut        ...    1.0000e-14
Grids for H and He will be reduced by one unit

# of grid points (after initial pruning)     ...  51112 (   0.0 sec)
# of grid points (after weights+screening)   ...  45515 (   2.1 sec)
nearest neighbour list constructed           ...    0.0 sec
Grid point re-assignment to atoms done       ...    0.0 sec
Grid point division into batches done        ...    0.0 sec
Reduced shell lists constructed in    0.8 sec

Total number of grid points                  ...    45515
Total number of batches                      ...      768
Average number of points per batch           ...       59
Average number of grid points per atom       ...      455
Average number of shells per batch           ...   120.81 (23.06%)
Average number of basis functions per batch  ...   253.39 (21.77%)
Average number of large shells per batch     ...    72.72 (60.19%)
Average number of large basis fcns per batch ...   154.97 (61.16%)
Maximum spatial batch extension              ...  20.86, 25.32, 17.60 au
Average spatial batch extension              ...   4.26,  4.81,  4.36 au

Overlap Fitting                  UseSFitting ... on
Constructing numerical overlap ... done (      0.5 sec)
Inverting numerical overlap    ... done (      0.0 sec)
Obtaining analytic overlap     ... done (      0.0 sec)
Final contraction and storage  ... done (      0.1 sec)


General Integration Accuracy     IntAcc      ...  3.670
Radial Grid Type                 RadialGrid  ... Gauss-Chebyshev
Angular Grid (max. acc.)         AngularGrid ... Lebedev-50
Angular grid pruning method      GridPruning ... 3 (G Style)
Weight generation scheme         WeightScheme... Becke
Basis function cutoff            BFCut       ...    1.0000e-11
Integration weight cutoff        WCut        ...    1.0000e-14
Grids for H and He will be reduced by one unit

# of grid points (after initial pruning)     ...  63744 (   0.1 sec)
# of grid points (after weights+screening)   ...  56543 (   2.6 sec)
nearest neighbour list constructed           ...    0.0 sec
Grid point re-assignment to atoms done       ...    0.0 sec
Grid point division into batches done        ...    0.0 sec
Reduced shell lists constructed in    1.0 sec

Total number of grid points                  ...    56543
Total number of batches                      ...      929
Average number of points per batch           ...       60
Average number of grid points per atom       ...      565
Average number of shells per batch           ...   118.10 (22.54%)
Average number of basis functions per batch  ...   247.37 (21.25%)
Average number of large shells per batch     ...    70.92 (60.05%)
Average number of large basis fcns per batch ...   150.78 (60.95%)
Maximum spatial batch extension              ...  20.35, 20.78, 28.41 au
Average spatial batch extension              ...   4.01,  4.53,  4.14 au

Overlap Fitting                  UseSFitting ... on
Constructing numerical overlap ... done (      0.6 sec)
Inverting numerical overlap    ... done (      0.0 sec)
Obtaining analytic overlap     ... done (      0.0 sec)
Final contraction and storage  ... done (      0.1 sec)


General Integration Accuracy     IntAcc      ...  4.010
Radial Grid Type                 RadialGrid  ... Gauss-Chebyshev
Angular Grid (max. acc.)         AngularGrid ... Lebedev-110
Angular grid pruning method      GridPruning ... 3 (G Style)
Weight generation scheme         WeightScheme... Becke
Basis function cutoff            BFCut       ...    1.0000e-11
Integration weight cutoff        WCut        ...    1.0000e-14
Grids for H and He will be reduced by one unit

# of grid points (after initial pruning)     ... 124876 (   0.1 sec)
# of grid points (after weights+screening)   ... 109690 (   5.3 sec)
nearest neighbour list constructed           ...    0.0 sec
Grid point re-assignment to atoms done       ...    0.0 sec
Grid point division into batches done        ...    0.1 sec
Reduced shell lists constructed in    2.4 sec

Total number of grid points                  ...   109690
Total number of batches                      ...     1763
Average number of points per batch           ...       62
Average number of grid points per atom       ...     1097
Average number of shells per batch           ...   111.58 (21.29%)
Average number of basis functions per batch  ...   233.11 (20.03%)
Average number of large shells per batch     ...    67.35 (60.36%)
Average number of large basis fcns per batch ...   142.81 (61.26%)
Maximum spatial batch extension              ...  23.19, 19.13, 21.80 au
Average spatial batch extension              ...   3.40,  3.68,  3.43 au

Overlap Fitting                  UseSFitting ... on
Constructing numerical overlap ... done (      1.4 sec)
Inverting numerical overlap    ... done (      0.0 sec)
Obtaining analytic overlap     ... done (      0.0 sec)
Final contraction and storage  ... done (      0.1 sec)

Time for X-Grid setup             =   17.392 sec
--------------
SCF ITERATIONS
--------------
ITER       Energy         Delta-E        Max-DP      RMS-DP      [F,P]     Damp
               ***  Starting incremental Fock matrix formation  ***
  0  -4649.6667578925   0.000000000000 0.07884765  0.00094864  0.2278404 0.7000
  1  -4650.1990482222  -0.532290329649 0.04601107  0.00067599  0.0979979 0.7000
                               ***Turning on DIIS***
  2  -4650.4302221067  -0.231173884513 0.07987816  0.00124569  0.0398504 0.0000
  3  -4650.8151735008  -0.384951394090 0.04268904  0.00048087  0.0526497 0.0000
  4  -4650.8817391894  -0.066565688576 0.01595911  0.00015870  0.0228590 0.0000
  5  -4650.8868512424  -0.005112052997 0.00581417  0.00006449  0.0081545 0.0000
                      *** Initiating the SOSCF procedure ***
                           *** Shutting down DIIS ***
                      *** Re-Reading the Fockian *** 
                      *** Removing any level shift *** 
ITER      Energy       Delta-E        Grad      Rot      Max-DP    RMS-DP
  6  -4650.88781743  -0.0009661893  0.002803  0.002803  0.002313  0.000035
               *** Restarting incremental Fock matrix formation ***
  7  -4650.88806354  -0.0002461087  0.001954  0.012780  0.001917  0.000036
  8  -4650.88826810  -0.0002045631  0.000658  0.011685  0.002398  0.000041
  9  -4650.88827057  -0.0000024704  0.000930  0.004049  0.001554  0.000016
 10  -4650.88832610  -0.0000555284  0.000235  0.001120  0.000590  0.000007
 11  -4650.88832425   0.0000018519  0.000228  0.000807  0.000333  0.000004
 12  -4650.88832881  -0.0000045602  0.000028  0.000128  0.000130  0.000002
 13  -4650.88832889  -0.0000000760  0.000023  0.000047  0.000068  0.000001
 14  -4650.88832898  -0.0000000975  0.000007  0.000043  0.000022  0.000000
 15  -4650.88832898   0.0000000043  0.000004  0.000008  0.000011  0.000000
                  ***Gradient check signals convergence***
              ***Rediagonalizing the Fockian in SOSCF/NRSCF***

               *****************************************************
               *                     SUCCESS                       *
               *           SCF CONVERGED AFTER  16 CYCLES          *
               *****************************************************

Setting up the final grid:

General Integration Accuracy     IntAcc      ...  5.010
Radial Grid Type                 RadialGrid  ... Gauss-Chebyshev
Angular Grid (max. acc.)         AngularGrid ... Lebedev-434
Angular grid pruning method      GridPruning ... 3 (G Style)
Weight generation scheme         WeightScheme... Becke
Basis function cutoff            BFCut       ...    1.0000e-11
Integration weight cutoff        WCut        ...    1.0000e-14
Grids for H and He will be reduced by one unit

# of grid points (after initial pruning)     ... 961704 (   1.9 sec)
# of grid points (after weights+screening)   ... 816261 (  44.8 sec)
nearest neighbour list constructed           ...    0.0 sec
Grid point re-assignment to atoms done       ...    0.1 sec
Grid point division into batches done        ...    6.0 sec
Reduced shell lists constructed in   20.0 sec

Total number of grid points                  ...   816261
Total number of batches                      ...    12806
Average number of points per batch           ...       63
Average number of grid points per atom       ...     8163
Average number of shells per batch           ...    95.38 (18.20%)
Average number of basis functions per batch  ...   196.98 (16.92%)
Average number of large shells per batch     ...    57.09 (59.85%)
Average number of large basis fcns per batch ...   119.59 (60.71%)
Maximum spatial batch extension              ...  21.87, 23.05, 22.80 au
Average spatial batch extension              ...   1.73,  1.81,  1.75 au

Final grid set up in   66.7 sec
Final integration                            ... done (  25.3 sec)
Change in XC energy                          ...    -0.000041794
Integrated number of electrons               ...   523.999662767
Previous integrated no of electrons          ...   523.999620785
Old exchange energy                            =   -136.125450845 Eh
New exchange energy                            =   -136.124352754 Eh
Exchange energy change after final integration =      0.001098091 Eh
Total energy after final integration           =  -4650.887272693 Eh
Final COS-X integration done in                =   454.751 sec

----------------
TOTAL SCF ENERGY
----------------

Total Energy       :        -4650.88727269 Eh         -126557.07673 eV

Components:
Nuclear Repulsion  :        10946.80069838 Eh          297877.59081 eV
Electronic Energy  :       -15597.68797107 Eh         -424434.66753 eV
One Electron Energy:       -28171.83615611 Eh         -766594.63473 eV
Two Electron Energy:        12574.14818504 Eh          342159.96719 eV

Virial components:
Potential Energy   :        -9270.63089363 Eh         -252266.69161 eV
Kinetic Energy     :         4619.74362093 Eh          125709.61488 eV
Virial Ratio       :            2.00674142


DFT components:
N(Alpha)           :      261.999831383493 electrons
N(Beta)            :      261.999831383493 electrons
N(Total)           :      523.999662766985 electrons
E(XC)              :     -383.087348749366 Eh       
DFET-embed. en.    :        0.000000000000 Eh       

---------------
SCF CONVERGENCE
---------------

  Last Energy change         ...   -9.5752e-09  Tolerance :   1.0000e-08
  Last MAX-Density change    ...    7.1054e-15  Tolerance :   1.0000e-07
  Last RMS-Density change    ...    3.5915e-17  Tolerance :   5.0000e-09
  Last Orbital Gradient      ...    1.8296e-06  Tolerance :   1.0000e-05
  Last Orbital Rotation      ...    5.5897e-06  Tolerance :   1.0000e-05

             **** THE GBW FILE WAS UPDATED (AQx-2.gbw) ****
             **** DENSITY FILE WAS UPDATED (AQx-2.scfp) ****
             **** ENERGY FILE WAS UPDATED (AQx-2.en.tmp) ****
             **** THE GBW FILE WAS UPDATED (AQx-2.gbw) ****
             **** DENSITY FILE WAS UPDATED (AQx-2.scfp) ****
----------------
ORBITAL ENERGIES
----------------

  NO   OCC          E(Eh)            E(eV) 
   0   2.0000     -88.974512     -2421.1196 
   1   2.0000     -88.967608     -2420.9317 
   2   2.0000     -88.966740     -2420.9081 
   3   2.0000     -88.964840     -2420.8564 
   4   2.0000     -24.804946      -674.9769 
   5   2.0000     -24.804637      -674.9685 
   6   2.0000     -24.802075      -674.8988 
   7   2.0000     -24.800080      -674.8445 
   8   2.0000     -19.224169      -523.1162 
   9   2.0000     -19.222777      -523.0784 
  10   2.0000     -14.487102      -394.2141 
  11   2.0000     -14.484123      -394.1330 
  12   2.0000     -14.425396      -392.5350 
  13   2.0000     -14.425202      -392.5297 
  14   2.0000     -14.422203      -392.4481 
  15   2.0000     -14.421210      -392.4211 
  16   2.0000     -14.420618      -392.4050 
  17   2.0000     -14.414571      -392.2404 
  18   2.0000     -10.390901      -282.7508 
  19   2.0000     -10.390177      -282.7311 
  20   2.0000     -10.386453      -282.6297 
  21   2.0000     -10.385802      -282.6120 
  22   2.0000     -10.374570      -282.3064 
  23   2.0000     -10.373214      -282.2695 
  24   2.0000     -10.349998      -281.6378 
  25   2.0000     -10.349105      -281.6135 
  26   2.0000     -10.344482      -281.4877 
  27   2.0000     -10.342660      -281.4381 
  28   2.0000     -10.342179      -281.4250 
  29   2.0000     -10.341675      -281.4113 
  30   2.0000     -10.339554      -281.3536 
  31   2.0000     -10.334340      -281.2117 
  32   2.0000     -10.327177      -281.0168 
  33   2.0000     -10.324934      -280.9557 
  34   2.0000     -10.324541      -280.9450 
  35   2.0000     -10.324493      -280.9437 
  36   2.0000     -10.324360      -280.9401 
  37   2.0000     -10.323046      -280.9044 
  38   2.0000     -10.322560      -280.8911 
  39   2.0000     -10.321851      -280.8718 
  40   2.0000     -10.321783      -280.8700 
  41   2.0000     -10.320355      -280.8311 
  42   2.0000     -10.319961      -280.8204 
  43   2.0000     -10.319857      -280.8176 
  44   2.0000     -10.317989      -280.7668 
  45   2.0000     -10.317886      -280.7639 
  46   2.0000     -10.316215      -280.7185 
  47   2.0000     -10.315618      -280.7022 
  48   2.0000     -10.314791      -280.6797 
  49   2.0000     -10.314402      -280.6691 
  50   2.0000     -10.313481      -280.6441 
  51   2.0000     -10.313353      -280.6406 
  52   2.0000     -10.312571      -280.6193 
  53   2.0000     -10.310561      -280.5646 
  54   2.0000     -10.310036      -280.5504 
  55   2.0000     -10.309559      -280.5374 
  56   2.0000     -10.308132      -280.4985 
  57   2.0000     -10.307771      -280.4887 
  58   2.0000     -10.307216      -280.4736 
  59   2.0000     -10.306851      -280.4637 
  60   2.0000     -10.305333      -280.4224 
  61   2.0000     -10.302305      -280.3400 
  62   2.0000     -10.301953      -280.3304 
  63   2.0000     -10.294907      -280.1387 
  64   2.0000     -10.291236      -280.0388 
  65   2.0000     -10.290683      -280.0237 
  66   2.0000     -10.288864      -279.9742 
  67   2.0000     -10.284734      -279.8618 
  68   2.0000     -10.283705      -279.8338 
  69   2.0000     -10.281144      -279.7642 
  70   2.0000     -10.268966      -279.4328 
  71   2.0000     -10.263876      -279.2943 
  72   2.0000      -8.069217      -219.5746 
  73   2.0000      -8.060545      -219.3386 
  74   2.0000      -8.060123      -219.3271 
  75   2.0000      -8.058817      -219.2916 
  76   2.0000      -6.038871      -164.3260 
  77   2.0000      -6.034737      -164.2136 
  78   2.0000      -6.030680      -164.1031 
  79   2.0000      -6.030441      -164.0967 
  80   2.0000      -6.030011      -164.0849 
  81   2.0000      -6.028682      -164.0488 
  82   2.0000      -6.026328      -163.9847 
  83   2.0000      -6.025379      -163.9589 
  84   2.0000      -6.024681      -163.9399 
  85   2.0000      -6.021627      -163.8568 
  86   2.0000      -6.021586      -163.8557 
  87   2.0000      -6.019811      -163.8074 
  88   2.0000      -1.328733       -36.1567 
  89   2.0000      -1.324716       -36.0474 
  90   2.0000      -1.313467       -35.7413 
  91   2.0000      -1.309488       -35.6330 
  92   2.0000      -1.139725       -31.0135 
  93   2.0000      -1.138444       -30.9786 
  94   2.0000      -1.117523       -30.4094 
  95   2.0000      -1.104927       -30.0666 
  96   2.0000      -1.079620       -29.3780 
  97   2.0000      -1.028047       -27.9746 
  98   2.0000      -1.022887       -27.8342 
  99   2.0000      -1.016693       -27.6656 
 100   2.0000      -1.012748       -27.5583 
 101   2.0000      -1.007598       -27.4181 
 102   2.0000      -1.005170       -27.3521 
 103   2.0000      -1.003175       -27.2978 
 104   2.0000      -0.999401       -27.1951 
 105   2.0000      -0.995904       -27.0999 
 106   2.0000      -0.968842       -26.3635 
 107   2.0000      -0.964514       -26.2458 
 108   2.0000      -0.960382       -26.1333 
 109   2.0000      -0.954445       -25.9718 
 110   2.0000      -0.945983       -25.7415 
 111   2.0000      -0.915276       -24.9059 
 112   2.0000      -0.908880       -24.7319 
 113   2.0000      -0.904229       -24.6053 
 114   2.0000      -0.903011       -24.5722 
 115   2.0000      -0.898624       -24.4528 
 116   2.0000      -0.892902       -24.2971 
 117   2.0000      -0.885245       -24.0887 
 118   2.0000      -0.880619       -23.9629 
 119   2.0000      -0.879396       -23.9296 
 120   2.0000      -0.874686       -23.8014 
 121   2.0000      -0.860864       -23.4253 
 122   2.0000      -0.850999       -23.1569 
 123   2.0000      -0.834660       -22.7123 
 124   2.0000      -0.831990       -22.6396 
 125   2.0000      -0.827409       -22.5150 
 126   2.0000      -0.816019       -22.2050 
 127   2.0000      -0.806873       -21.9561 
 128   2.0000      -0.800484       -21.7823 
 129   2.0000      -0.793574       -21.5943 
 130   2.0000      -0.778610       -21.1871 
 131   2.0000      -0.775294       -21.0968 
 132   2.0000      -0.772263       -21.0143 
 133   2.0000      -0.767021       -20.8717 
 134   2.0000      -0.763922       -20.7874 
 135   2.0000      -0.746485       -20.3129 
 136   2.0000      -0.735755       -20.0209 
 137   2.0000      -0.733296       -19.9540 
 138   2.0000      -0.722890       -19.6709 
 139   2.0000      -0.720891       -19.6164 
 140   2.0000      -0.717517       -19.5246 
 141   2.0000      -0.711009       -19.3475 
 142   2.0000      -0.708615       -19.2824 
 143   2.0000      -0.699892       -19.0450 
 144   2.0000      -0.692518       -18.8444 
 145   2.0000      -0.686298       -18.6751 
 146   2.0000      -0.681966       -18.5572 
 147   2.0000      -0.674907       -18.3651 
 148   2.0000      -0.662849       -18.0370 
 149   2.0000      -0.661594       -18.0029 
 150   2.0000      -0.656890       -17.8749 
 151   2.0000      -0.648368       -17.6430 
 152   2.0000      -0.647162       -17.6102 
 153   2.0000      -0.644848       -17.5472 
 154   2.0000      -0.640673       -17.4336 
 155   2.0000      -0.633105       -17.2277 
 156   2.0000      -0.624055       -16.9814 
 157   2.0000      -0.621441       -16.9103 
 158   2.0000      -0.614931       -16.7331 
 159   2.0000      -0.612492       -16.6667 
 160   2.0000      -0.609512       -16.5857 
 161   2.0000      -0.603961       -16.4346 
 162   2.0000      -0.602139       -16.3850 
 163   2.0000      -0.595627       -16.2078 
 164   2.0000      -0.593581       -16.1522 
 165   2.0000      -0.592415       -16.1204 
 166   2.0000      -0.589763       -16.0483 
 167   2.0000      -0.586806       -15.9678 
 168   2.0000      -0.585354       -15.9283 
 169   2.0000      -0.575873       -15.6703 
 170   2.0000      -0.570651       -15.5282 
 171   2.0000      -0.567627       -15.4459 
 172   2.0000      -0.564886       -15.3713 
 173   2.0000      -0.558071       -15.1859 
 174   2.0000      -0.556861       -15.1530 
 175   2.0000      -0.556520       -15.1437 
 176   2.0000      -0.555500       -15.1159 
 177   2.0000      -0.553461       -15.0604 
 178   2.0000      -0.551414       -15.0047 
 179   2.0000      -0.549704       -14.9582 
 180   2.0000      -0.548831       -14.9344 
 181   2.0000      -0.541595       -14.7375 
 182   2.0000      -0.540642       -14.7116 
 183   2.0000      -0.537565       -14.6279 
 184   2.0000      -0.534488       -14.5442 
 185   2.0000      -0.532800       -14.4982 
 186   2.0000      -0.532243       -14.4831 
 187   2.0000      -0.531550       -14.4642 
 188   2.0000      -0.527379       -14.3507 
 189   2.0000      -0.523629       -14.2487 
 190   2.0000      -0.521593       -14.1933 
 191   2.0000      -0.519763       -14.1435 
 192   2.0000      -0.517427       -14.0799 
 193   2.0000      -0.513316       -13.9680 
 194   2.0000      -0.509696       -13.8695 
 195   2.0000      -0.506748       -13.7893 
 196   2.0000      -0.501856       -13.6562 
 197   2.0000      -0.500093       -13.6082 
 198   2.0000      -0.499389       -13.5891 
 199   2.0000      -0.498729       -13.5711 
 200   2.0000      -0.497490       -13.5374 
 201   2.0000      -0.494798       -13.4641 
 202   2.0000      -0.491466       -13.3735 
 203   2.0000      -0.490324       -13.3424 
 204   2.0000      -0.486698       -13.2437 
 205   2.0000      -0.485546       -13.2124 
 206   2.0000      -0.483083       -13.1454 
 207   2.0000      -0.477745       -13.0001 
 208   2.0000      -0.476815       -12.9748 
 209   2.0000      -0.474519       -12.9123 
 210   2.0000      -0.470657       -12.8072 
 211   2.0000      -0.466225       -12.6866 
 212   2.0000      -0.464314       -12.6346 
 213   2.0000      -0.463825       -12.6213 
 214   2.0000      -0.461384       -12.5549 
 215   2.0000      -0.458900       -12.4873 
 216   2.0000      -0.458266       -12.4701 
 217   2.0000      -0.457676       -12.4540 
 218   2.0000      -0.455947       -12.4070 
 219   2.0000      -0.453908       -12.3515 
 220   2.0000      -0.453319       -12.3354 
 221   2.0000      -0.452124       -12.3029 
 222   2.0000      -0.449389       -12.2285 
 223   2.0000      -0.447934       -12.1889 
 224   2.0000      -0.444559       -12.0971 
 225   2.0000      -0.443986       -12.0815 
 226   2.0000      -0.441162       -12.0046 
 227   2.0000      -0.436649       -11.8818 
 228   2.0000      -0.434126       -11.8132 
 229   2.0000      -0.432381       -11.7657 
 230   2.0000      -0.431660       -11.7461 
 231   2.0000      -0.428886       -11.6706 
 232   2.0000      -0.427365       -11.6292 
 233   2.0000      -0.425566       -11.5802 
 234   2.0000      -0.423621       -11.5273 
 235   2.0000      -0.421682       -11.4746 
 236   2.0000      -0.418887       -11.3985 
 237   2.0000      -0.416597       -11.3362 
 238   2.0000      -0.412646       -11.2287 
 239   2.0000      -0.410431       -11.1684 
 240   2.0000      -0.406035       -11.0488 
 241   2.0000      -0.404112       -10.9964 
 242   2.0000      -0.400779       -10.9057 
 243   2.0000      -0.395787       -10.7699 
 244   2.0000      -0.388950       -10.5839 
 245   2.0000      -0.372182       -10.1276 
 246   2.0000      -0.366747        -9.9797 
 247   2.0000      -0.354571        -9.6484 
 248   2.0000      -0.352166        -9.5829 
 249   2.0000      -0.348341        -9.4788 
 250   2.0000      -0.342938        -9.3318 
 251   2.0000      -0.340749        -9.2723 
 252   2.0000      -0.338933        -9.2228 
 253   2.0000      -0.325424        -8.8552 
 254   2.0000      -0.323211        -8.7950 
 255   2.0000      -0.318999        -8.6804 
 256   2.0000      -0.315303        -8.5798 
 257   2.0000      -0.310921        -8.4606 
 258   2.0000      -0.290593        -7.9074 
 259   2.0000      -0.279163        -7.5964 
 260   2.0000      -0.275076        -7.4852 
 261   2.0000      -0.242496        -6.5987 
 262   0.0000      -0.098203        -2.6722 
 263   0.0000      -0.089440        -2.4338 
 264   0.0000      -0.067942        -1.8488 
 265   0.0000      -0.064694        -1.7604 
 266   0.0000      -0.038579        -1.0498 
 267   0.0000      -0.016183        -0.4404 
 268   0.0000      -0.012312        -0.3350 
 269   0.0000       0.005390         0.1467 
 270   0.0000       0.014329         0.3899 
 271   0.0000       0.030666         0.8345 
 272   0.0000       0.035694         0.9713 
 273   0.0000       0.037041         1.0079 
 274   0.0000       0.042652         1.1606 
 275   0.0000       0.049389         1.3439 
 276   0.0000       0.055493         1.5100 
 277   0.0000       0.056988         1.5507 
 278   0.0000       0.064673         1.7599 
 279   0.0000       0.068391         1.8610 
 280   0.0000       0.073518         2.0005 
 281   0.0000       0.075726         2.0606 
 282   0.0000       0.082870         2.2550 
 283   0.0000       0.088856         2.4179 
 284   0.0000       0.090996         2.4761 
 285   0.0000       0.094426         2.5695 
 286   0.0000       0.096455         2.6247 
[...]
  19      4.58     270.8    86 ->  93      gap,J,K:    6.008     1.742     0.156
  20      4.59     269.9    89 ->  95      gap,J,K:    6.059     1.536     0.036
  21      4.62     268.4    87 ->  94      gap,J,K:    6.146     1.712     0.092
  22      4.62     268.4    84 ->  93      gap,J,K:    6.183     1.564     0.000
  23      4.65     266.9    89 ->  96      gap,J,K:    6.147     1.566     0.033
  24      4.65     266.8    88 ->  94      gap,J,K:    6.027     1.818     0.219

average / max PT2 energy lowering (eV):       0.039       0.066

CSF included by PT:                   204 
total number of CSF included:         242 
 
sTD-DFT procedure...
setting up A+B and A-B matrices...  done
estimated time (min):    0.001
calculating (A-B)^0.5 ... done
calculating (A+B)*(A-B)^0.5 ... done
calculating (A-B)^0.5 *(A+B)*(A-B)^0.5 ... done
diagonalizing ...using LAPACKE_ssyevr ...done

   42 roots found, lowest/highest eigenvalue :     2.077     4.956

excitation energies, transition moments and amplitudes

molecular weight: 1025.104
state   eV        nm        fL         fV        Rl        RV
   0   2.077     596.9   2.023930   2.329171  730.923518  784.378218     0.87 (  92->  93)    0.10 (  90->  94)    0.01 (  90->  93)
   1   2.418     512.9   0.458058   0.516727  -800.217312  -833.763917     0.81 (  92->  94)    0.14 (  90->  93)    0.01 (  90->  95)
   2   2.940     421.7   0.059046   0.056917  -131.646999  -142.850130     0.49 (  92->  95)    0.18 (  92->  96)    0.11 (  91->  93)
   3   2.958     419.1   0.071922   0.063002  58.541057  50.860413     0.65 (  91->  93)    0.13 (  89->  94)    0.09 (  92->  95)
   4   3.078     402.8   0.092146   0.085271  16.246951  19.519615     0.49 (  91->  94)    0.39 (  89->  93)    0.03 (  91->  93)
   5   3.087     401.6   0.308532   0.303946  152.507579  147.769930     0.58 (  92->  96)    0.17 (  92->  95)    0.13 (  90->  95)
   6   3.300     375.7   0.100837   0.099537  -290.392291  -279.571526     0.71 (  90->  93)    0.13 (  92->  94)    0.06 (  88->  94)
   7   3.457     358.7   0.009045   0.008729  14.073302  15.510898     0.80 (  92->  97)    0.07 (  92->  98)    0.04 (  90->  94)
   8   3.561     348.1   0.066249   0.080049  131.447273  140.387063     0.60 (  90->  94)    0.12 (  88->  93)    0.09 (  92->  93)
   9   3.634     341.2   0.054670   0.055762  -13.757672  -15.320523     0.41 (  89->  94)    0.18 (  87->  93)    0.08 (  91->  97)
  10   3.716     333.7   0.021453   0.019121  -34.857176  -38.543156     0.39 (  91->  94)    0.37 (  89->  93)    0.06 (  87->  94)
  11   3.805     325.8   0.001584   0.001942   1.598763   1.863349     0.39 (  83->  93)    0.28 (  83->  94)    0.21 (  83->  96)
  12   3.808     325.6   0.085141   0.077809  27.979665  38.796478     0.17 (  86->  93)    0.10 (  85->  93)    0.07 (  86->  94)
  13   3.886     319.0   0.056437   0.050997   1.186130   4.809451     0.12 (  91->  96)    0.09 (  86->  94)    0.09 (  88->  93)
  14   3.992     310.6   0.138912   0.125011  -171.501585  -174.490320     0.15 (  91->  96)    0.13 (  91->  95)    0.10 (  88->  93)
  15   4.012     309.0   0.081509   0.071143  207.138967  186.292241     0.20 (  81->  93)    0.09 (  81->  94)    0.08 (  91->  96)
  16   4.033     307.4   0.110027   0.094860  -79.402266  -45.308517     0.30 (  91->  95)    0.12 (  91->  96)    0.11 (  89->  96)
  17   4.062     305.3   0.001775   0.001545  -2.023364  -1.497768     0.34 (  83->  96)    0.32 (  83->  95)    0.19 (  83->  94)
  18   4.085     303.5   0.038177   0.034690  65.646230  69.600703     0.44 (  84->  97)    0.17 (  84->  93)    0.09 (  84->  98)
  19   4.086     303.4   0.080420   0.077341  250.156631  220.265479     0.13 (  81->  95)    0.13 (  84->  97)    0.10 (  81->  94)
  20   4.109     301.7   0.154564   0.135435  129.160939  115.795440     0.28 (  91->  97)    0.14 (  90->  95)    0.04 (  89->  94)
  21   4.167     297.5   0.088277   0.081031  104.698806  104.128143     0.27 (  90->  95)    0.18 (  91->  97)    0.11 (  90->  96)
  22   4.206     294.8   0.026288   0.024465  -111.793523  -103.625494     0.29 (  90->  96)    0.15 (  92->  98)    0.08 (  92->  95)
  23   4.268     290.5   0.076431   0.066917  25.879834  25.899724     0.44 (  87->  93)    0.23 (  89->  94)    0.06 (  86->  93)
  24   4.297     288.5   0.055900   0.046263   7.442714   7.086939     0.28 (  87->  94)    0.19 (  82->  93)    0.13 (  89->  97)
  25   4.335     286.0   0.085248   0.077662  81.159181  74.976260     0.25 (  88->  93)    0.19 (  85->  93)    0.14 (  92->  98)
  26   4.398     281.9   0.255394   0.228682  -173.271152  -160.736291     0.39 (  92->  98)    0.16 (  90->  96)    0.08 (  85->  93)
  27   4.425     280.2   0.356920   0.319465  428.155212  401.917481     0.43 (  92->  99)    0.11 (  90->  97)    0.09 (  91->  97)
  28   4.534     273.4   0.225582   0.192854  288.241949  274.748313     0.14 (  88->  94)    0.09 (  92->  99)    0.07 (  86->  95)
  29   4.599     269.6   0.194214   0.166643  -1463.627047  -1353.007126     0.10 (  86->  96)    0.10 (  88->  94)    0.09 (  86->  94)
  30   4.617     268.5   0.542543   0.453487  802.723557  739.954222     0.18 (  85->  94)    0.09 (  78->  93)    0.09 (  86->  95)
  31   4.626     268.0   0.035250   0.029655  -119.265639  -115.614273     0.24 (  89->  95)    0.24 (  89->  97)    0.12 (  91->  96)
  32   4.655     266.3   0.008410   0.007855  -19.442563  -14.870509     0.59 (  84->  93)    0.12 (  84->  97)    0.10 (  84->  98)
  33   4.675     265.2   0.019923   0.015705  -14.665084  -13.848285     0.32 (  89->  96)    0.23 (  91->  95)    0.08 (  87->  95)
  34   4.742     261.5   0.063937   0.046903  -33.496415  -26.715255     0.13 (  89->  97)    0.13 (  78->  93)    0.10 (  90->  97)
  35   4.768     260.0   0.072105   0.057522  -246.485653  -258.383966     0.37 (  90->  97)    0.08 (  78->  93)    0.08 (  92->  99)
  36   4.778     259.5   0.031422   0.024698  71.518343  66.461021     0.46 (  84->  94)    0.09 (  89->  97)    0.07 (  90->  97)
  37   4.783     259.2   0.038932   0.030014  96.640723  82.855487     0.30 (  84->  94)    0.12 (  89->  97)    0.07 (  90->  97)
  38   4.809     257.8   0.129624   0.099815  -51.763940  -42.090075     0.21 (  79->  93)    0.11 (  79->  94)    0.06 (  80->  94)
  39   4.839     256.2   0.050947   0.039187  89.479061  97.429444     0.31 (  92-> 100)    0.06 (  80->  93)    0.06 (  90->  97)
  40   4.918     252.1   0.028980   0.023595  -53.656698  -49.901391     0.38 (  82->  93)    0.29 (  87->  94)    0.03 (  89->  93)
  41   4.956     250.2   0.083828   0.069707  93.974932  90.358417     0.21 (  82->  94)    0.16 (  92-> 100)    0.09 (  87->  93)

-----------------------------------------------------------------------------
         ABSORPTION SPECTRUM VIA TRANSITION ELECTRIC DIPOLE MOMENTS
-----------------------------------------------------------------------------
State   Energy  Wavelength   fosc         T2         TX        TY        TZ  
        (cm-1)    (nm)                  (au**2)     (au)      (au)      (au) 
-----------------------------------------------------------------------------
   0   16754.2    596.9   2.023929936  39.76924   5.46134  -2.56513  -1.83388
   1   19498.5    512.9   0.458057748   7.73385  -1.28270   2.25572  -1.00012
   2   23714.7    421.7   0.059046152   0.81969   0.57192  -0.65459  -0.25320
   3   23860.7    419.1   0.071921536   0.99232   0.50302  -0.58277   0.63219
   4   24825.1    402.8   0.092145684   1.22197   0.99425  -0.23312  -0.42318
   5   24898.0    401.6   0.308531849   4.07954  -0.65179  -0.08563   1.90981
   6   26619.6    375.7   0.100837434   1.24709   0.15690   0.82922  -0.73134
   7   27879.5    358.7   0.009045461   0.10681  -0.15232   0.06093   0.28266
   8   28723.9    348.1   0.066249314   0.75930  -0.85066   0.15379  -0.10964
   9   29307.2    341.2   0.054670372   0.61412   0.38700  -0.50087   0.46205
  10   29968.6    333.7   0.021452600   0.23566   0.15217  -0.29862  -0.35118
  11   30689.9    325.8   0.001583712   0.01699  -0.01898  -0.10912  -0.06871
  12   30710.1    325.6   0.085141033   0.91271   0.39276  -0.54619  -0.67832
  13   31345.5    319.0   0.056437007   0.59274   0.26940   0.20018  -0.69289
  14   32198.8    310.6   0.138912063   1.42028   0.56700  -0.90844   0.52299
  15   32358.4    309.0   0.081508607   0.82926  -0.31575   0.17580   0.83586
  16   32528.9    307.4   0.110026883   1.11354   0.65388  -0.72039  -0.40867
  17   32759.6    305.3   0.001775234   0.01784   0.01627  -0.09251   0.09496
  18   32950.0    303.5   0.038176912   0.38144   0.05515  -0.32841   0.52014
  19   32956.4    303.4   0.080420265   0.80334   0.24213   0.10210   0.85691
  20   33145.2    301.7   0.154564016   1.53519   0.16732   0.31022  -1.18784
  21   33612.5    297.5   0.088276978   0.86461  -0.50286   0.18698   0.75946
  22   33922.6    294.8   0.026288450   0.25512  -0.08896  -0.47616   0.14311
  23   34420.1    290.5   0.076431356   0.73103  -0.00947  -0.33328   0.78732
  24   34657.2    288.5   0.055900227   0.53100   0.61355  -0.30645  -0.24626
  25   34964.1    286.0   0.085247725   0.80267   0.21463  -0.16282  -0.85445
  26   35469.6    281.9   0.255394327   2.37045  -0.95808   0.67221   1.00033
  27   35688.0    280.2   0.356919827   3.29249  -0.57335   0.82289  -1.51216
  28   36571.3    273.4   0.225581882   2.03067   0.84514  -0.31831  -1.10231
  29   37090.4    269.6   0.194214180   1.72383   0.42179   1.12535  -0.52869
  30   37240.6    268.5   0.542542980   4.79615  -1.01442   0.79596   1.77018
  31   37308.9    268.0   0.035249840   0.31104   0.18412   0.33756  -0.40398
  32   37544.6    266.3   0.008410200   0.07375   0.11984   0.18634  -0.15704
  33   37708.2    265.2   0.019923304   0.17394  -0.23506   0.31819  -0.13207
  34   38246.9    261.5   0.063937305   0.55034   0.08118  -0.40509  -0.61616
  35   38454.3    260.0   0.072105026   0.61730  -0.17636   0.72417   0.24854
  36   38536.5    259.5   0.031421750   0.26843   0.00825  -0.11855  -0.50429
  37   38575.4    259.2   0.038932169   0.33226   0.03420   0.17973   0.54661
  38   38788.1    257.8   0.129624061   1.10018  -0.90881   0.35182   0.38791
  39   39027.3    256.2   0.050947049   0.42976  -0.31189  -0.06180  -0.57329
  40   39667.7    252.1   0.028980436   0.24052  -0.43833  -0.02229   0.21883
  41   39970.6    250.2   0.083827952   0.69044  -0.04416   0.22745  -0.79797

-----------------------------------------------------------------------------
         ABSORPTION SPECTRUM VIA TRANSITION VELOCITY DIPOLE MOMENTS
-----------------------------------------------------------------------------
State   Energy  Wavelength   fosc         P2         PX        PY        PZ  
        (cm-1)    (nm)                  (au**2)     (au)      (au)      (au) 
-----------------------------------------------------------------------------
   0   16754.2    596.9   2.329170546   0.26671   0.44783  -0.20995  -0.14857
   1   19498.5    512.9   0.516727378   0.06886  -0.12049   0.21372  -0.09309
   2   23714.7    421.7   0.056917200   0.00923   0.05925  -0.07136  -0.02494
   3   23860.7    419.1   0.063001544   0.01027   0.05176  -0.05838   0.06470
   4   24825.1    402.8   0.085271398   0.01447   0.10929  -0.02505  -0.04354
   5   24898.0    401.6   0.303946066   0.05172  -0.07013  -0.01007   0.21610
   6   26619.6    375.7   0.099536563   0.01811   0.01665   0.10186  -0.08635
   7   27879.5    358.7   0.008728795   0.00166  -0.01822   0.00695   0.03582
   8   28723.9    348.1   0.080049367   0.01571  -0.12222   0.02644  -0.00885
   9   29307.2    341.2   0.055762499   0.01117   0.04948  -0.06778   0.06424
  10   29968.6    333.7   0.019121138   0.00392   0.01744  -0.03972  -0.04510
  11   30689.9    325.8   0.001941901   0.00041  -0.00280  -0.01687  -0.01072
  12   30710.1    325.6   0.077809088   0.01633   0.05023  -0.07187  -0.09297
  13   31345.5    319.0   0.050997401   0.01093   0.03420   0.02892  -0.09444
  14   32198.8    310.6   0.125010821   0.02751   0.07614  -0.12607   0.07629
  15   32358.4    309.0   0.071143377   0.01573  -0.04566   0.02520   0.11408
  16   32528.9    307.4   0.094859947   0.02109   0.08801  -0.09767  -0.06167
  17   32759.6    305.3   0.001545203   0.00035   0.00208  -0.01168   0.01432
  18   32950.0    303.5   0.034690214   0.00781   0.00238  -0.04969   0.07306
  19   32956.4    303.4   0.077341423   0.01742   0.03495   0.01978   0.12573
  20   33145.2    301.7   0.135435193   0.03068   0.02307   0.04269  -0.16830
  21   33612.5    297.5   0.081031017   0.01861  -0.07284   0.02672   0.11223
  22   33922.6    294.8   0.024464901   0.00567  -0.00644  -0.07258   0.01906
  23   34420.1    290.5   0.066916907   0.01574   0.00100  -0.04989   0.11512
  24   34657.2    288.5   0.046262762   0.01096   0.08922  -0.04266  -0.03432
  25   34964.1    286.0   0.077662072   0.01856   0.03508  -0.02543  -0.12915
  26   35469.6    281.9   0.228682239   0.05544  -0.14592   0.10231   0.15387
  27   35688.0    280.2   0.319464963   0.07792  -0.08699   0.12612  -0.23334
  28   36571.3    273.4   0.192853868   0.04820   0.12899  -0.04824  -0.17099
  29   37090.4    269.6   0.166643346   0.04224   0.06278   0.17774  -0.08192
  30   37240.6    268.5   0.453486806   0.11542  -0.15723   0.12298   0.27491
  31   37308.9    268.0   0.029655220   0.00756   0.02542   0.05207  -0.06484
  32   37544.6    266.3   0.007854938   0.00202   0.02093   0.03250  -0.02283
  33   37708.2    265.2   0.015704559   0.00405  -0.03487   0.04898  -0.02079
  34   38246.9    261.5   0.046903013   0.01226   0.01181  -0.06016  -0.09221
  35   38454.3    260.0   0.057521872   0.01512  -0.03078   0.11469   0.03188
  36   38536.5    259.5   0.024698133   0.00650   0.00383  -0.01775  -0.07858
  37   38575.4    259.2   0.030014124   0.00791   0.00234   0.02839   0.08427
  38   38788.1    257.8   0.099814519   0.02646  -0.14013   0.05262   0.06368
  39   39027.3    256.2   0.039186979   0.01045  -0.04728  -0.00611  -0.09044
  40   39667.7    252.1   0.023594734   0.00640  -0.07046  -0.00373   0.03766
  41   39970.6    250.2   0.069706569   0.01904  -0.01028   0.03949  -0.13182

-------------------------------------------------------------------
                             CD SPECTRUM
-------------------------------------------------------------------
State   Energy Wavelength       R         MX        MY        MZ   
        (cm-1)   (nm)       (1e40*cgs)   (au)      (au)      (au)  
-------------------------------------------------------------------
   0   16754.2    596.9    730.92352  -1.62441  -2.76925   0.72679
   1   19498.5    512.9    -800.21731  -0.62060  -0.64050  -4.04303
   2   23714.7    421.7    -131.64700  -0.74161  -1.83482   0.86267
   3   23860.7    419.1     58.54106   0.33134   1.47241   0.70082
   4   24825.1    402.8     16.24695  -0.43201  -0.70294  -0.46488
   5   24898.0    401.6    152.50758   1.06720   4.68811   0.23566
   6   26619.6    375.7    -290.39229  -0.63491  -0.70734  -2.62271
   7   27879.5    358.7     14.07330  -0.19760   0.74930  -0.47923
   8   28723.9    348.1    131.44727   0.34142  -1.04473   0.97164
   9   29307.2    341.2    -13.75767   0.41830   1.27560   1.15873
  10   29968.6    333.7    -34.85718  -0.39614  -1.82533   0.95942
  11   30689.9    325.8      1.59876  -0.13678  -0.15825   0.38780
  12   30710.1    325.6     27.97966  -0.04083  -2.31535   2.01570
  13   31345.5    319.0      1.18613   0.50544  -0.58599   0.03449
  14   32198.8    310.6    -171.50158  -0.49722  -0.12444   1.71405
  15   32358.4    309.0    207.13897  -0.40139   1.96603  -1.61644
  16   32528.9    307.4    -79.40227   0.51977  -1.52218   2.69063
  17   32759.6    305.3     -2.02336   0.21215  -0.11786  -0.06076
  18   32950.0    303.5     65.64623  -0.17167   1.72308   0.57072
  19   32956.4    303.4    250.15663   0.31303   3.24548  -1.71357
  20   33145.2    301.7    129.16094  -0.25088  -2.60393  -0.25410
  21   33612.5    297.5    104.69881  -0.62013   1.22256  -1.29643
  22   33922.6    294.8    -111.79352   0.09446  -0.46610   1.82184
  23   34420.1    290.5     25.87983   0.68428   2.42392   0.89484
  24   34657.2    288.5      7.44271  -0.08761  -0.38609   0.39039
  25   34964.1    286.0     81.15918  -0.58671  -3.55429   0.93287
  26   35469.6    281.9    -173.27115   1.92254   5.19484  -0.91469
  27   35688.0    280.2    428.15521  -0.82382  -4.97513  -1.19383
  28   36571.3    273.4    288.24195   1.70790  -0.83310   2.65931
  29   37090.4    269.6    -1463.62705   0.98870   3.10336  -4.34988
  30   37240.6    268.5    802.72356  -0.43858   5.71377  -4.74425
  31   37308.9    268.0    -119.26564  -0.39545  -0.25486  -1.64561
  32   37544.6    266.3    -19.44256   0.16874  -0.33094  -0.78913
  33   37708.2    265.2    -14.66508   0.21338   0.14036  -0.51268
  34   38246.9    261.5    -33.49642  -0.56479  -3.69633   2.12506
  35   38454.3    260.0    -246.48565  -0.05365   2.63733  -3.51524
  36   38536.5    259.5     71.51834  -0.18108  -2.42429   1.16861
  37   38575.4    259.2     96.64072   0.17523   2.86290  -1.70234
  38   38788.1    257.8    -51.76394  -1.15379  -1.16035  -1.08465
  39   39027.3    256.2     89.47906  -0.49477  -3.47786   1.30623
  40   39667.7    252.1    -53.65670  -0.17294  -0.52005   0.64083
  41   39970.6    250.2     93.97493  -0.51239  -2.85933  -0.28706

sTD-DFT done

Total run time:        4.445 sec

           *** ORCA-CIS/TD-DFT FINISHED WITHOUT ERROR ***

-------------------------   --------------------
FINAL SINGLE POINT ENERGY     -4650.887272692968
-------------------------   --------------------


                            ***************************************
                            *     ORCA property calculations      *
                            ***************************************

                                    ---------------------
                                    Active property flags
                                    ---------------------
   (+) Dipole Moment


------------------------------------------------------------------------------
                       ORCA ELECTRIC PROPERTIES CALCULATION
------------------------------------------------------------------------------

Dipole Moment Calculation                       ... on
Quadrupole Moment Calculation                   ... off
Polarizability Calculation                      ... off
GBWName                                         ... AQx-2.gbw
Electron density file                           ... AQx-2.scfp
The origin for moment calculation is the CENTER OF MASS  = (22.240063, -4.499806 -4.018958)

-------------
DIPOLE MOMENT
-------------
                                X             Y             Z
Electronic contribution:      6.94001      11.34503     -27.38951
Nuclear contribution   :     -6.06639     -13.19634      26.33251
                        -----------------------------------------
Total Dipole Moment    :      0.87362      -1.85131      -1.05700
                        -----------------------------------------
Magnitude (a.u.)       :      2.30387
Magnitude (Debye)      :      5.85597



--------------------
Rotational spectrum 
--------------------
 
Rotational constants in cm-1:     0.001998     0.000259     0.000235 
Rotational constants in MHz :    59.892351     7.752177     7.034430 

 Dipole components along the rotational axes: 
x,y,z [a.u.] :    -1.868696     0.036368     1.347023 
x,y,z [Debye]:    -4.749847     0.092439     3.423861 

 

Timings for individual modules:

Sum of individual times         ...     4186.780 sec (=  69.780 min)
GTO integral calculation        ...        3.178 sec (=   0.053 min)   0.1 %
SCF iterations                  ...     4178.838 sec (=  69.647 min)  99.8 %
CIS module                      ...        4.764 sec (=   0.079 min)   0.1 %
                             ****ORCA TERMINATED NORMALLY****
TOTAL RUN TIME: 0 days 1 hours 9 minutes 47 seconds 559 msec
