
                                 *****************
                                 * O   R   C   A *
                                 *****************

           --- An Ab Initio, DFT and Semiempirical electronic structure package ---

                  #######################################################
                  #                        -***-                        #
                  #          Department of theory and spectroscopy      #
                  #               Directorship: Frank Neese             #
                  #        Max Planck Institute fuer Kohlenforschung    #
                  #                Kaiser Wilhelm Platz 1               #
                  #                 D-45470 Muelheim/Ruhr               #
                  #                      Germany                        #
                  #                                                     #
                  #                  All rights reserved                #
                  #                        -***-                        #
                  #######################################################


                         Program Version 4.2.0 -  RELEASE  -


 With contributions from (in alphabetic order):
   Daniel Aravena         : Magnetic Suceptibility
   Michael Atanasov       : Ab Initio Ligand Field Theory (pilot matlab implementation)
   Alexander A. Auer      : GIAO ZORA, VPT2
   Ute Becker             : Parallelization
   Giovanni Bistoni       : ED, misc. LED, open-shell LED, HFLED
   Martin Brehm           : Molecular dynamics
   Dmytro Bykov           : SCF Hessian
   Vijay G. Chilkuri      : MRCI spin determinant printing, contributions to CSF-ICE
   Dipayan Datta          : RHF DLPNO-CCSD density
   Achintya Kumar Dutta   : EOM-CC, STEOM-CC
   Dmitry Ganyushin       : Spin-Orbit,Spin-Spin,Magnetic field MRCI
   Miquel Garcia          : C-PCM Hessian, Gaussian charge scheme
   Yang Guo               : DLPNO-NEVPT2, CIM, IAO-localization
   Andreas Hansen         : Spin unrestricted coupled pair/coupled cluster methods
   Benjamin Helmich-Paris : CASSCF linear response (MC-RPA)
   Lee Huntington         : MR-EOM, pCC
   Robert Izsak           : Overlap fitted RIJCOSX, COSX-SCS-MP3, EOM
   Christian Kollmar      : KDIIS, OOCD, Brueckner-CCSD(T), CCSD density
   Simone Kossmann        : Meta GGA functionals, TD-DFT gradient, OOMP2, MP2 Hessian
   Martin Krupicka        : AUTO-CI
   Lucas Lang             : DCDCAS
   Dagmar Lenk            : GEPOL surface, SMD
   Dimitrios Liakos       : Extrapolation schemes; Compound Job, initial MDCI parallelization
   Dimitrios Manganas     : Further ROCIS development; embedding schemes
   Dimitrios Pantazis     : SARC Basis sets
   Taras Petrenko         : DFT Hessian,TD-DFT gradient, ASA, ECA, R-Raman, ABS, FL, XAS/XES, NRVS
   Peter Pinski           : DLPNO-MP2, DLPNO-MP2 Gradient
   Christoph Reimann      : Effective Core Potentials
   Marius Retegan         : Local ZFS, SOC
   Christoph Riplinger    : Optimizer, TS searches, QM/MM, DLPNO-CCSD(T), (RO)-DLPNO pert. Triples
   Tobias Risthaus        : Range-separated hybrids, TD-DFT gradient, RPA, STAB
   Michael Roemelt        : Original ROCIS implementation
   Masaaki Saitow         : Open-shell DLPNO-CCSD energy and density
   Barbara Sandhoefer     : DKH picture change effects
   Avijit Sen             : IP-ROCIS
   Kantharuban Sivalingam : CASSCF convergence, NEVPT2, FIC-MRCI
   Bernardo de Souza      : ESD, SOC TD-DFT
   Georgi Stoychev        : AutoAux, RI-MP2 NMR
   Willem Van den Heuvel  : Paramagnetic NMR
   Boris Wezisla          : Elementary symmetry handling
   Frank Wennmohs         : Technical directorship


 We gratefully acknowledge several colleagues who have allowed us to
 interface, adapt or use parts of their codes:
   Stefan Grimme, W. Hujo, H. Kruse,             : VdW corrections, initial TS optimization,
                  C. Bannwarth                     DFT functionals, gCP, sTDA/sTD-DF
   Ed Valeev, F. Pavosevic, A. Kumar             : LibInt (2-el integral package), F12 methods
   Garnet Chan, S. Sharma, J. Yang, R. Olivares  : DMRG
   Ulf Ekstrom                                   : XCFun DFT Library
   Mihaly Kallay                                 : mrcc  (arbitrary order and MRCC methods)
   Andreas Klamt, Michael Diedenhofen            : otool_cosmo (COSMO solvation model)
   Jiri Pittner, Ondrej Demel                    : Mk-CCSD
   Frank Weinhold                                : gennbo (NPA and NBO analysis)
   Christopher J. Cramer and Donald G. Truhlar   : smd solvation model
   Lars Goerigk                                  : TD-DFT with DH, B97 family of functionals
   V. Asgeirsson, H. Jonsson                     : NEB implementation
   FAccTs GmbH                                   : IRC, NEB, NEB-TS, Multilevel, MM, QM/MM, CI optimization
   S Lehtola, MJT Oliveira, MAL Marques          : LibXC Library


 Your calculation uses the libint2 library for the computation of 2-el integrals
 For citations please refer to: http://libint.valeyev.net

 Your ORCA version has been built with support for libXC version: 4.2.3
 For citations please refer to: https://tddft.org/programs/libxc/

 This ORCA versions uses:
   CBLAS   interface :  Fast vector & matrix operations
   LAPACKE interface :  Fast linear algebra routines
   SCALAPACK package :  Parallel linear algebra routines


XCFun DFT library Copyright 2009-2010 Ulf Ekstrom and contributors.
See http://admol.org/xcfun for more information. This is free soft-
ware; see the source code for copying conditions. There is ABSOLUTELY
NO WARRANTY; not even for MERCHANTABILITY or FITNESS FOR A PARTICULAR
PURPOSE. For details see the documentation. Scientific users of this 
library should cite U. Ekstrom, L. Visscher, R. Bast, A. J. Thorvald-
sen and K. Ruud; J.Chem.Theor.Comp. 2010, DOI: 10.1021/ct100117s
XCFun Version 0.99 
----- Orbital basis set information -----
Your calculation utilizes the basis: def2-SVP
   F. Weigend and R. Ahlrichs, Phys. Chem. Chem. Phys. 7, 3297 (2005).

----- AuxJ basis set information -----
Your calculation utilizes the auxiliary basis: def2/J
   F. Weigend, Phys. Chem. Chem. Phys. 8, 1057 (2006).

================================================================================
                                        WARNINGS
                       Please study these warnings very carefully!
================================================================================

INFO   : Checking CIS options ...

WARNING: CIS/ROCIS methods need fully converged wavefunctions
  ===> : Setting SCFConvForced true
         You can overwrite this default with %scf ConvForced false 


INFO   : the flag for use of LIBINT has been found!

================================================================================
                                       INPUT FILE
================================================================================
NAME = AQx.inp
|  1> # ORCA input file
|  2> # AQx.out: Geometry 24
|  3> ! CAM-B3LYP def2-SVP def2/J RIJCOSX Grid4 TightSCF
|  4> %maxcore 5000
|  5> %tddft
|  6>     Mode sTDDFT
|  7>     Ethresh 5.0
|  8>     maxcore 5000
|  9> end
| 10> * xyz 0 1
| 11>    C        8.63700         2.72312         1.86103
| 12>    O        9.11167         1.60930         2.01041
| 13>    C        9.06700         3.93391         2.59534
| 14>    C       10.04815         4.01662         3.57467
| 15>    C       10.29866         5.26681         4.12638
| 16>    F       11.22362         5.41378         5.07138
| 17>    C        9.57537         6.39234         3.69130
| 18>    F        9.84642         7.57182         4.24341
| 19>    C        8.59093         6.30287         2.70914
| 20>    C        8.32617         5.04457         2.15226
| 21>    C        7.36196         4.58632         1.11554
| 22>    C        6.50374         5.42304         0.42002
| 23>    C        5.61264         4.97520        -0.60442
| 24>    N        4.87650         4.64506        -1.44218
| 25>    C        6.44219         6.83074         0.66004
| 26>    N        6.38485         7.97640         0.84849
| 27>    C        7.53278         3.14114         0.96641
| 28>    C        6.73785         2.28840         0.21618
| 29>    C        6.80881         0.90623        -0.06951
| 30>    S        8.18291        -0.15746         0.30992
| 31>    C        7.40394        -1.47215        -0.48466
| 32>    C        6.11374        -1.13977        -0.95563
| 33>    C        5.77836         0.21094        -0.76599
| 34>    C        4.53725         0.84900        -1.32886
| 35>    C        4.76245         1.35888        -2.76434
| 36>    S        5.25854        -2.53376        -1.64726
| 37>    C        6.65471        -3.53478        -1.31084
| 38>    C        7.71216        -2.82339        -0.72684
| 39>    N        8.78508        -3.66319        -0.49536
| 40>    C        9.89353        -3.21631         0.34600
| 41>    C       10.89790        -2.32461        -0.37917
| 42>    C        8.42847        -4.93537        -0.94158
| 43>    C        7.07220        -4.88302        -1.41367
| 44>    C        6.33480        -6.05592        -1.77691
| 45>    N        5.03250        -5.96789        -2.11008
| 46>    C        4.37149        -7.09270        -2.34084
| 47>    C        2.91086        -6.99376        -2.67598
| 48>    C        5.02698        -8.36689        -2.26334
| 49>    C        4.27452        -9.64391        -2.51249
| 50>    N        6.31277        -8.45536        -1.95706
| 51>    C        6.98259        -7.31520        -1.70237
| 52>    C        8.37281        -7.35452        -1.36490
| 53>    C        9.12486        -6.18266        -1.01748
| 54>    N       10.46006        -6.55682        -0.85513
| 55>    C       11.65896        -5.78315        -0.56182
| 56>    C       12.12466        -5.91850         0.88821
| 57>    C       10.54423        -7.91779        -1.06007
| 58>    C        9.27503        -8.44210        -1.34870
| 59>    S        9.28694       -10.17114        -1.59135
| 60>    C       11.03760       -10.17927        -1.32266
| 61>    C       11.55812        -8.89257        -1.07331
| 62>    S       13.26999        -8.92140        -0.84796
| 63>    C       13.29018       -10.68773        -1.01810
| 64>    C       12.00540       -11.20464        -1.29015
| 65>    C       11.67063       -12.66496        -1.36652
| 66>    C       11.11695       -13.16706        -0.02110
| 67>    C       14.51082       -11.40904        -0.98521
| 68>    C       15.75004       -11.03192        -0.51307
| 69>    C       16.17567        -9.97462         0.38885
| 70>    C       15.44679        -9.45400         1.44698
| 71>    C       15.89898        -8.33741         2.21190
| 72>    N       16.25610        -7.40050         2.80093
| 73>    C       14.21139       -10.03508         1.86897
| 74>    N       13.23198       -10.53656         2.24353
| 75>    C       17.61217        -9.72072         0.12364
| 76>    C       18.49073        -8.74557         0.61289
| 77>    C       19.81955        -8.79868         0.19869
| 78>    F       20.68616        -7.88363         0.62817
| 79>    C       20.28496        -9.80257        -0.67110
| 80>    F       21.56642        -9.78959        -1.02794
| 81>    C       19.42326       -10.78688        -1.14538
| 82>    C       18.09386       -10.72762        -0.74036
| 83>    C       16.97792       -11.64671        -1.11073
| 84>    O       17.04890       -12.64558        -1.79616
| 85>    H       10.60451         3.13768         3.90358
| 86>    H        8.07070         7.21474         2.42579
| 87>    H        5.86748         2.74971        -0.24723
| 88>    H        4.19661         1.67986        -0.69326
| 89>    H        3.72632         0.10186        -1.31460
| 90>    H        5.52131         2.15510        -2.78118
| 91>    H        3.83428         1.78078        -3.17782
| 92>    H        5.10317         0.54401        -3.42170
| 93>    H       10.36720        -4.09397         0.79199
| 94>    H        9.45239        -2.66007         1.18829
| 95>    H       11.37223        -2.83927        -1.22841
| 96>    H       11.68762        -2.00527         0.31737
| 97>    H       10.41158        -1.41981        -0.77048
| 98>    H        2.59442        -5.94532        -2.60895
| 99>    H        2.29706        -7.59627        -1.98815
|100>    H        2.70323        -7.36711        -3.69329
|101>    H        3.46021        -9.77883        -1.78145
|102>    H        4.96715       -10.49129        -2.42997
|103>    H        3.80425        -9.65357        -3.50975
|104>    H       11.47767        -4.74388        -0.84417
|105>    H       12.44797        -6.13974        -1.24292
|106>    H       11.32202        -5.66357         1.59628
|107>    H       12.98152        -5.25547         1.07856
|108>    H       12.44189        -6.94764         1.11011
|109>    H       12.56079       -13.24749        -1.64984
|110>    H       10.92287       -12.82227        -2.16188
|111>    H       11.85521       -13.01911         0.78059
|112>    H       10.85473       -14.23461        -0.07796
|113>    H       10.21182       -12.60753         0.26017
|114>    H       14.51480       -12.36891        -1.51611
|115>    H       18.18871        -7.94739         1.28881
|116>    H       19.78374       -11.57588        -1.80780
|117> *
|118> 
|119>                          ****END OF INPUT****
================================================================================

                       ****************************
                       * Single Point Calculation *
                       ****************************

---------------------------------
CARTESIAN COORDINATES (ANGSTROEM)
---------------------------------
  C      8.637000    2.723120    1.861030
  O      9.111670    1.609300    2.010410
  C      9.067000    3.933910    2.595340
  C     10.048150    4.016620    3.574670
  C     10.298660    5.266810    4.126380
  F     11.223620    5.413780    5.071380
  C      9.575370    6.392340    3.691300
  F      9.846420    7.571820    4.243410
  C      8.590930    6.302870    2.709140
  C      8.326170    5.044570    2.152260
  C      7.361960    4.586320    1.115540
  C      6.503740    5.423040    0.420020
  C      5.612640    4.975200   -0.604420
  N      4.876500    4.645060   -1.442180
  C      6.442190    6.830740    0.660040
  N      6.384850    7.976400    0.848490
  C      7.532780    3.141140    0.966410
  C      6.737850    2.288400    0.216180
  C      6.808810    0.906230   -0.069510
  S      8.182910   -0.157460    0.309920
  C      7.403940   -1.472150   -0.484660
  C      6.113740   -1.139770   -0.955630
  C      5.778360    0.210940   -0.765990
  C      4.537250    0.849000   -1.328860
  C      4.762450    1.358880   -2.764340
  S      5.258540   -2.533760   -1.647260
  C      6.654710   -3.534780   -1.310840
  C      7.712160   -2.823390   -0.726840
  N      8.785080   -3.663190   -0.495360
  C      9.893530   -3.216310    0.346000
  C     10.897900   -2.324610   -0.379170
  C      8.428470   -4.935370   -0.941580
  C      7.072200   -4.883020   -1.413670
  C      6.334800   -6.055920   -1.776910
  N      5.032500   -5.967890   -2.110080
  C      4.371490   -7.092700   -2.340840
  C      2.910860   -6.993760   -2.675980
  C      5.026980   -8.366890   -2.263340
  C      4.274520   -9.643910   -2.512490
  N      6.312770   -8.455360   -1.957060
  C      6.982590   -7.315200   -1.702370
  C      8.372810   -7.354520   -1.364900
  C      9.124860   -6.182660   -1.017480
  N     10.460060   -6.556820   -0.855130
  C     11.658960   -5.783150   -0.561820
  C     12.124660   -5.918500    0.888210
  C     10.544230   -7.917790   -1.060070
  C      9.275030   -8.442100   -1.348700
  S      9.286940  -10.171140   -1.591350
  C     11.037600  -10.179270   -1.322660
  C     11.558120   -8.892570   -1.073310
  S     13.269990   -8.921400   -0.847960
  C     13.290180  -10.687730   -1.018100
  C     12.005400  -11.204640   -1.290150
  C     11.670630  -12.664960   -1.366520
  C     11.116950  -13.167060   -0.021100
  C     14.510820  -11.409040   -0.985210
  C     15.750040  -11.031920   -0.513070
  C     16.175670   -9.974620    0.388850
  C     15.446790   -9.454000    1.446980
  C     15.898980   -8.337410    2.211900
  N     16.256100   -7.400500    2.800930
  C     14.211390  -10.035080    1.868970
  N     13.231980  -10.536560    2.243530
  C     17.612170   -9.720720    0.123640
  C     18.490730   -8.745570    0.612890
  C     19.819550   -8.798680    0.198690
  F     20.686160   -7.883630    0.628170
  C     20.284960   -9.802570   -0.671100
  F     21.566420   -9.789590   -1.027940
  C     19.423260  -10.786880   -1.145380
  C     18.093860  -10.727620   -0.740360
  C     16.977920  -11.646710   -1.110730
  O     17.048900  -12.645580   -1.796160
  H     10.604510    3.137680    3.903580
  H      8.070700    7.214740    2.425790
  H      5.867480    2.749710   -0.247230
  H      4.196610    1.679860   -0.693260
  H      3.726320    0.101860   -1.314600
  H      5.521310    2.155100   -2.781180
  H      3.834280    1.780780   -3.177820
  H      5.103170    0.544010   -3.421700
  H     10.367200   -4.093970    0.791990
  H      9.452390   -2.660070    1.188290
  H     11.372230   -2.839270   -1.228410
  H     11.687620   -2.005270    0.317370
  H     10.411580   -1.419810   -0.770480
  H      2.594420   -5.945320   -2.608950
  H      2.297060   -7.596270   -1.988150
  H      2.703230   -7.367110   -3.693290
  H      3.460210   -9.778830   -1.781450
  H      4.967150  -10.491290   -2.429970
  H      3.804250   -9.653570   -3.509750
  H     11.477670   -4.743880   -0.844170
  H     12.447970   -6.139740   -1.242920
  H     11.322020   -5.663570    1.596280
  H     12.981520   -5.255470    1.078560
  H     12.441890   -6.947640    1.110110
  H     12.560790  -13.247490   -1.649840
  H     10.922870  -12.822270   -2.161880
  H     11.855210  -13.019110    0.780590
  H     10.854730  -14.234610   -0.077960
  H     10.211820  -12.607530    0.260170
  H     14.514800  -12.368910   -1.516110
  H     18.188710   -7.947390    1.288810
  H     19.783740  -11.575880   -1.807800

----------------------------
CARTESIAN COORDINATES (A.U.)
----------------------------
  NO LB      ZA    FRAG     MASS         X           Y           Z
   0 C     6.0000    0    12.011   16.321565    5.145951    3.516837
   1 O     8.0000    0    15.999   17.218561    3.041136    3.799124
   2 C     6.0000    0    12.011   17.134147    7.434013    4.904482
   3 C     6.0000    0    12.011   18.988252    7.590312    6.755147
   4 C     6.0000    0    12.011   19.461647    9.952828    7.797728
   5 F     9.0000    0    18.998   21.209568   10.230562    9.583519
   6 C     6.0000    0    12.011   18.094827   12.079772    6.975546
   7 F     9.0000    0    18.998   18.607037   14.308666    8.018883
   8 C     6.0000    0    12.011   16.234505   11.910698    5.119533
   9 C     6.0000    0    12.011   15.734181    9.532856    4.067182
  10 C     6.0000    0    12.011   13.912088    8.666889    2.108065
  11 C     6.0000    0    12.011   12.290287   10.248060    0.793723
  12 C     6.0000    0    12.011   10.606352    9.401765   -1.142188
  13 N     7.0000    0    14.007    9.215249    8.777891   -2.725325
  14 C     6.0000    0    12.011   12.173975   12.908228    1.247295
  15 N     7.0000    0    14.007   12.065618   15.073212    1.603414
  16 C     6.0000    0    12.011   14.234891    5.935894    1.826250
  17 C     6.0000    0    12.011   12.732691    4.324449    0.408521
  18 C     6.0000    0    12.011   12.866786    1.712527   -0.131355
  19 S    16.0000    0    32.060   15.463459   -0.297556    0.585664
  20 C     6.0000    0    12.011   13.991419   -2.781960   -0.915875
  21 C     6.0000    0    12.011   11.553294   -2.153853   -1.805879
  22 C     6.0000    0    12.011   10.919518    0.398619   -1.447511
  23 C     6.0000    0    12.011    8.574160    1.604377   -2.511181
  24 C     6.0000    0    12.011    8.999726    2.567911   -5.223846
  25 S    16.0000    0    32.060    9.937200   -4.788112   -3.112870
  26 C     6.0000    0    12.011   12.575579   -6.679766   -2.477129
  27 C     6.0000    0    12.011   14.573870   -5.335434   -1.373529
  28 N     7.0000    0    14.007   16.601395   -6.922426   -0.936095
  29 C     6.0000    0    12.011   18.696062   -6.077945    0.653845
  30 C     6.0000    0    12.011   20.594046   -4.392876   -0.716527
  31 C     6.0000    0    12.011   15.927500   -9.326498   -1.779328
  32 C     6.0000    0    12.011   13.364521   -9.227571   -2.671449
  33 C     6.0000    0    12.011   11.971037  -11.444030   -3.357873
  34 N     7.0000    0    14.007    9.510047  -11.277678   -3.987473
  35 C     6.0000    0    12.011    8.260919  -13.403261   -4.423547
  36 C     6.0000    0    12.011    5.500728  -13.216291   -5.056869
  37 C     6.0000    0    12.011    9.499615  -15.811131   -4.277093
  38 C     6.0000    0    12.011    8.077672  -18.224349   -4.747918
  39 N     7.0000    0    14.007   11.929406  -15.978315   -3.698307
  40 C     6.0000    0    12.011   13.195183  -13.823725   -3.217013
  41 C     6.0000    0    12.011   15.822318  -13.898029   -2.579287
  42 C     6.0000    0    12.011   17.243486  -11.683534   -1.922759
  43 N     7.0000    0    14.007   19.766649  -12.390594   -1.615962
  44 C     6.0000    0    12.011   22.032241  -10.928570   -1.061686
  45 C     6.0000    0    12.011   22.912287  -11.184344    1.678474
  46 C     6.0000    0    12.011   19.925707  -14.962455   -2.003242
  47 C     6.0000    0    12.011   17.527267  -15.953257   -2.548674
  48 S    16.0000    0    32.060   17.549773  -19.220669   -3.007216
  49 C     6.0000    0    12.011   20.858041  -19.236033   -2.499465
  50 C     6.0000    0    12.011   21.841681  -16.804522   -2.028262
  51 S    16.0000    0    32.060   25.076647  -16.859003   -1.602412
  52 C     6.0000    0    12.011   25.114800  -20.196883   -1.923930
  53 C     6.0000    0    12.011   22.686918  -21.173701   -2.438030
  54 C     6.0000    0    12.011   22.054295  -23.933306   -2.582349
  55 C     6.0000    0    12.011   21.007991  -24.882137   -0.039873
  56 C     6.0000    0    12.011   27.421476  -21.559961   -1.861777
  57 C     6.0000    0    12.011   29.763262  -20.847308   -0.969562
  58 C     6.0000    0    12.011   30.567586  -18.849300    0.734820
  59 C     6.0000    0    12.011   29.190203  -17.865471    2.734396
  60 C     6.0000    0    12.011   30.044718  -15.755422    4.179885
  61 N     7.0000    0    14.007   30.719577  -13.984918    5.292991
  62 C     6.0000    0    12.011   26.855635  -18.963553    3.531841
  63 N     7.0000    0    14.007   25.004818  -19.911213    4.239657
  64 C     6.0000    0    12.011   33.282178  -18.369499    0.233646
  65 C     6.0000    0    12.011   34.942416  -16.526732    1.158194
  66 C     6.0000    0    12.011   37.453522  -16.627096    0.375470
  67 F     9.0000    0    18.998   39.091177  -14.897902    1.187069
  68 C     6.0000    0    12.011   38.333019  -18.524173   -1.268195
  69 F     9.0000    0    18.998   40.754627  -18.499644   -1.942525
  70 C     6.0000    0    12.011   36.704642  -20.384249   -2.164455
  71 C     6.0000    0    12.011   34.192440  -20.272264   -1.399078
  72 C     6.0000    0    12.011   32.083619  -22.009092   -2.098976
  73 O     8.0000    0    15.999   32.217752  -23.896683   -3.394250
  74 H     1.0000    0     1.008   20.039620    5.929356    7.376697
  75 H     1.0000    0     1.008   15.251413   13.633883    4.584079
  76 H     1.0000    0     1.008   11.087930    5.196199   -0.467197
  77 H     1.0000    0     1.008    7.930444    3.174475   -1.310072
  78 H     1.0000    0     1.008    7.041724    0.192488   -2.484234
  79 H     1.0000    0     1.008   10.433764    4.072549   -5.255669
  80 H     1.0000    0     1.008    7.245739    3.365187   -6.005210
  81 H     1.0000    0     1.008    9.643594    1.028030   -6.466076
  82 H     1.0000    0     1.008   19.591169   -7.736482    1.496644
  83 H     1.0000    0     1.008   17.862428   -5.026804    2.245543
  84 H     1.0000    0     1.008   21.490400   -5.365443   -2.321358
  85 H     1.0000    0     1.008   22.086401   -3.789411    0.599742
  86 H     1.0000    0     1.008   19.675035   -2.683052   -1.455996
  87 H     1.0000    0     1.008    4.902743  -11.235027   -4.930201
  88 H     1.0000    0     1.008    4.340814  -14.354870   -3.757059
  89 H     1.0000    0     1.008    5.108364  -13.921820   -6.979307
  90 H     1.0000    0     1.008    6.538849  -18.479311   -3.366453
  91 H     1.0000    0     1.008    9.386553  -19.825665   -4.591978
  92 H     1.0000    0     1.008    7.188991  -18.242604   -6.632466
  93 H     1.0000    0     1.008   21.689653   -8.964634   -1.595250
  94 H     1.0000    0     1.008   23.523254  -11.602427   -2.348778
  95 H     1.0000    0     1.008   21.395517  -10.702596    3.016532
  96 H     1.0000    0     1.008   24.531518   -9.931399    2.038183
  97 H     1.0000    0     1.008   23.511765  -13.129137    2.097804
  98 H     1.0000    0     1.008   23.736453  -25.034128   -3.117746
  99 H     1.0000    0     1.008   20.641233  -24.230579   -4.085361
 100 H     1.0000    0     1.008   22.403100  -24.602552    1.475101
 101 H     1.0000    0     1.008   20.512467  -26.899515   -0.147323
 102 H     1.0000    0     1.008   19.297543  -23.824779    0.491650
 103 H     1.0000    0     1.008   27.428997  -23.373852   -2.865033
 104 H     1.0000    0     1.008   34.371681  -15.018391    2.435498
 105 H     1.0000    0     1.008   37.385851  -21.875243   -3.416247

--------------------------------
INTERNAL COORDINATES (ANGSTROEM)
--------------------------------
 C      0   0   0     0.000000000000     0.00000000     0.00000000
 O      1   0   0     1.219926631277     0.00000000     0.00000000
 C      1   2   0     1.479906618743   124.97214096     0.00000000
 C      3   1   2     1.388734501444   127.15102427   359.00476322
 C      4   3   1     1.389285507122   117.45391336   179.42427982
 F      5   4   3     1.330479681356   120.45238066   179.83036199
 C      5   4   3     1.406862044196   120.29256714   359.85555114
 F      7   5   4     1.330212999861   118.44124332   180.08541519
 C      7   5   4     1.393472375076   121.99264207     0.22061008
 C      9   7   5     1.401260890056   118.11527785     0.13529523
 C     10   9   7     1.488113686853   132.51730064   179.51503359
 C     11  10   9     1.385781367027   124.40208040     2.56132148
 C     12  11  10     1.429719269367   123.81340691   177.89430976
 N     13  12  11     1.163071939649   178.21461186   180.66196561
 C     12  11  10     1.429341559215   122.48205193   358.53058224
 N     15  12  11     1.162470693695   179.50885686   182.00051063
 C     11  10   9     1.462861737041   107.43227841   180.99439778
 C     17  11  10     1.386334831633   126.57540375   172.39119033
 C     18  17  11     1.413169489693   133.01743111   176.70405060
 S     19  18  17     1.778638341822   125.49160558   350.22837422
 C     20  19  18     1.722370875683    90.49661311   184.10613939
 C     21  20  19     1.413118977758   112.77686102   356.72039139
 C     22  21  20     1.404585553856   113.52788621     4.40879216
 C     23  22  21     1.504758197386   123.65559703   172.25189948
 C     24  23  22     1.539901128255   111.62165615   273.45073880
 S     22  21  20     1.775648393405   112.63727510   185.00432208
 C     26  22  21     1.750574227418    89.42358863   359.33817218
 C     27  26  22     1.401903076036   113.04633413   358.94632835
 N     28  27  26     1.382029072343   110.30443188   180.45173174
 C     29  28  27     1.461591525188   119.95957070   192.36090557
 C     30  29  28     1.526354976996   113.83861752   279.11651658
 C     29  28  27     1.394533948278   107.59121628     0.41511388
 C     27  26  22     1.415140631386   140.00646166   177.14083287
 C     33  27  26     1.432269690945   130.29596909   353.01392328
 N     34  33  27     1.347121679656   120.45936453     1.07543873
 C     35  34  33     1.324908273731   118.02835609   184.94691949
 C     36  35  34     1.501848174783   117.91457528   178.39190442
 C     36  35  34     1.435002977767   121.09981357   358.85680823
 C     38  36  35     1.503014256253   121.11714038   179.42453966
 N     38  36  35     1.324722726989   121.00735458     0.07706732
 C     40  38  36     1.346659071220   118.03167357     0.89941862
 C     41  40  38     1.431133715521   120.29882392   179.91932002
 C     32  29  28     1.430542619498   133.46356876   177.04973553
 N     43  32  29     1.396106109184   133.87328600   349.25192048
 C     44  43  32     1.456693940057   131.92813673   358.87447141
 C     45  44  43     1.528981070321   113.24226132   103.67531599
 C     44  43  32     1.378885177743   107.79523124   180.47121769
 C     47  44  43     1.403238002977   110.12979768   359.69174895
 S     48  47  44     1.746024109856   113.10540618   181.14888235
 C     49  48  47     1.771177813942    89.43879837   359.18032492
 C     47  44  43     1.406536269742   136.83881940   178.52632369
 S     51  47  44     1.726879465481   136.46203822   359.53845713
 C     52  51  47     1.774620219822    90.88146898   176.90629648
 C     50  49  48     1.410346545002   133.24340221   178.45364145
 C     54  50  49     1.500145936967   123.60229008   353.62929226
 C     55  54  50     1.539097439670   110.69216555   283.74116358
 C     53  52  51     1.418214327173   120.91708454   177.24721075
 C     57  53  52     1.378695717843   129.97384541    18.09204391
 C     58  57  53     1.453445517830   132.43112708    18.30634489
 C     59  58  57     1.386344234200   126.35910978    31.19295345
 C     60  59  58     1.427007929410   122.43679644   185.41338234
 N     61  60  59     1.162880640221   177.77719049    75.39006065
 C     60  59  58     1.428965600181   121.81828253     7.59412828
 N     63  60  59     1.162334432124   177.55486159    90.32102669
 C     59  58  57     1.482677916508   107.29519403   201.46453922
 C     65  59  58     1.400767917465   131.63645444   173.71695683
 C     66  65  59     1.392890844431   117.90082430   177.88226008
 F     67  66  65     1.331458773301   119.92124287   179.31433696
 C     67  66  65     1.407457368555   121.76449851   359.27244169
 F     69  67  66     1.330279293081   118.51253250   179.82204825
 C     69  67  66     1.391522398131   120.69035664   359.75720678
 C     71  69  67     1.390991483799   117.54546856     0.73887881
 C     72  71  69     1.492388169546   128.03527635   179.52231776
 O     73  72  71     1.213504726896   127.11122353     3.09147707
 H      4   3   1     1.090987516565   121.66218348   359.38858878
 H      9   7   5     1.087397522666   117.89189937   179.79097966
 H     18  17  11     1.088622836937   115.35053327   355.72979282
 H     24  23  22     1.100159674411   111.06975447   150.93926141
 H     24  23  22     1.102737045764   108.32482157    34.85073109
 H     25  24  23     1.100053804866   110.78203388   296.44555808
 H     25  24  23     1.100211283936   110.72797764   177.42230290
 H     25  24  23     1.101011083005   110.90146719    56.66940610
 H     30  29  28     1.092500537574   108.55298796   153.37155326
 H     30  29  28     1.101571550695   106.90802005    40.00984072
 H     31  30  29     1.100487365716   112.15033660   299.15447168
 H     31  30  29     1.100365250996   109.94110560   178.53463443
 H     31  30  29     1.099224134788   111.03143312    59.46015726
 H     37  36  35     1.097202683236   109.25719046   356.22521089
 H     37  36  35     1.101307790311   111.50785769   235.79952217
 H     37  36  35     1.103367606693   111.49802612   116.75914491
 H     39  38  36     1.102598596090   111.33358340   298.53189467
 H     39  38  36     1.097542132084   109.12202971   178.46578491
 H     39  38  36     1.102621737542   111.77062647    57.46756655
 H     45  44  43     1.092094189848   108.46598242   338.26555369
 H     45  44  43     1.101630799406   107.04135034   224.88285603
 H     46  45  44     1.100265149589   111.56843727   305.22136401
 H     46  45  44     1.100023164756   110.36523555   184.51840210
 H     46  45  44     1.099547007863   111.23039446    65.00356687
 H     55  54  50     1.100907011922   110.34983083   161.64052183
 H     55  54  50     1.102945593989   109.07743560    44.74823260
 H     56  55  54     1.099829025894   110.59950878   300.32787346
 H     56  55  54     1.100752193048   110.91191988   179.07911070
 H     56  55  54     1.100657508356   110.69441368    59.11462105
 H     57  53  52     1.096914339089   115.91006284   206.11261944
 H     66  65  59     1.088657539909   123.59090318   357.29161503
 H     71  69  67     1.091451825231   120.90930006   180.94513000

---------------------------
INTERNAL COORDINATES (A.U.)
---------------------------
 C      0   0   0     0.000000000000     0.00000000     0.00000000
 O      1   0   0     2.305327236592     0.00000000     0.00000000
 C      1   2   0     2.796618213202   124.97214096     0.00000000
 C      3   1   2     2.624327880456   127.15102427   359.00476322
 C      4   3   1     2.625369130287   117.45391336   179.42427982
 F      5   4   3     2.514242224509   120.45238066   179.83036199
 C      5   4   3     2.658583971739   120.29256714   359.85555114
 F      7   5   4     2.513738269520   118.44124332   180.08541519
 C      7   5   4     2.633281164078   121.99264207     0.22061008
 C      9   7   5     2.647999324380   118.11527785     0.13529523
 C     10   9   7     2.812127324293   132.51730064   179.51503359
 C     11  10   9     2.618747265173   124.40208040     2.56132148
 C     12  11  10     2.701777867494   123.81340691   177.89430976
 N     13  12  11     2.197887439986   178.21461186   180.66196561
 C     12  11  10     2.701064098749   122.48205193   358.53058224
 N     15  12  11     2.196751249793   179.50885686   182.00051063
 C     11  10   9     2.764408054801   107.43227841   180.99439778
 C     17  11  10     2.619793161703   126.57540375   172.39119033
 C     18  17  11     2.670503316334   133.01743111   176.70405060
 S     19  18  17     3.361139357336   125.49160558   350.22837422
 C     20  19  18     3.254809256082    90.49661311   184.10613939
 C     21  20  19     2.670407862610   112.77686102   356.72039139
 C     22  21  20     2.654282028449   113.52788621     4.40879216
 C     23  22  21     2.843580890832   123.65559703   172.25189948
 C     24  23  22     2.909991405718   111.62165615   273.45073880
 S     22  21  20     3.355489173672   112.63727510   185.00432208
 C     26  22  21     3.308105866921    89.42358863   359.33817218
 C     27  26  22     2.649212880010   113.04633413   358.94632835
 N     28  27  26     2.611656455845   110.30443188   180.45173174
 C     29  28  27     2.762007702265   119.95957070   192.36090557
 C     30  29  28     2.884392889670   113.83861752   279.11651658
 C     29  28  27     2.635287246701   107.59121628     0.41511388
 C     27  26  22     2.674228234304   140.00646166   177.14083287
 C     33  27  26     2.706597465802   130.29596909   353.01392328
 N     34  33  27     2.545691043618   120.45936453     1.07543873
 C     35  34  33     2.503713789917   118.02835609   184.94691949
 C     36  35  34     2.838081745070   117.91457528   178.39190442
 C     36  35  34     2.711762629341   121.09981357   358.85680823
 C     38  36  35     2.840285319698   121.11714038   179.42453966
 N     38  36  35     2.503363157390   121.00735458     0.07706732
 C     40  38  36     2.544816840367   118.03167357     0.89941862
 C     41  40  38     2.704450783355   120.29882392   179.91932002
 C     32  29  28     2.703333773753   133.46356876   177.04973553
 N     43  32  29     2.638258200252   133.87328600   349.25192048
 C     44  43  32     2.752752607651   131.92813673   358.87447141
 C     45  44  43     2.889355486857   113.24226132   103.67531599
 C     44  43  32     2.605715356058   107.79523124   180.47121769
 C     47  44  43     2.651735526338   110.12979768   359.69174895
 S     48  47  44     3.299507390852   113.10540618   181.14888235
 C     49  48  47     3.347041002828    89.43879837   359.18032492
 C     47  44  43     2.657968347240   136.83881940   178.52632369
 S     51  47  44     3.263329256051   136.46203822   359.53845713
 C     52  51  47     3.353546207182    90.88146898   176.90629648
 C     50  49  48     2.665168723976   133.24340221   178.45364145
 C     54  50  49     2.834864981783   123.60229008   353.62929226
 C     55  54  50     2.908472654396   110.69216555   283.74116358
 C     53  52  51     2.680036677561   120.91708454   177.24721075
 C     57  53  52     2.605357328734   129.97384541    18.09204391
 C     58  57  53     2.746613979274   132.43112708    18.30634489
 C     59  58  57     2.619810929979   126.35910978    31.19295345
 C     60  59  58     2.696654177520   122.43679644   185.41338234
 N     61  60  59     2.197525936456   177.77719049    75.39006065
 C     60  59  58     2.700353639136   121.81828253     7.59412828
 N     63  60  59     2.196493752740   177.55486159    90.32102669
 C     59  58  57     2.801855207013   107.29519403   201.46453922
 C     65  59  58     2.647067741193   131.63645444   173.71695683
 C     66  65  59     2.632182230421   117.90082430   177.88226008
 F     67  66  65     2.516092440145   119.92124287   179.31433696
 C     67  66  65     2.659708971739   121.76449851   359.27244169
 F     69  67  66     2.513863545549   118.51253250   179.82204825
 C     69  67  66     2.629596241685   120.69035664   359.75720678
 C     71  69  67     2.628592958996   117.54546856     0.73887881
 C     72  71  69     2.820204925945   128.03527635   179.52231776
 O     73  72  71     2.293191596053   127.11122353     3.09147707
 H      4   3   1     2.061667621834   121.66218348   359.38858878
 H      9   7   5     2.054883516543   117.89189937   179.79097966
 H     18  17  11     2.057199024943   115.35053327   355.72979282
 H     24  23  22     2.079000488221   111.06975447   150.93926141
 H     24  23  22     2.083871014223   108.32482157    34.85073109
 H     25  24  23     2.078800423775   110.78203388   296.44555808
 H     25  24  23     2.079098016089   110.72797764   177.42230290
 H     25  24  23     2.080609417292   110.90146719    56.66940610
 H     30  29  28     2.064526817177   108.55298796   153.37155326
 H     30  29  28     2.081668547732   106.90802005    40.00984072
 H     31  30  29     2.079619735043   112.15033660   299.15447168
 H     31  30  29     2.079388971666   109.94110560   178.53463443
 H     31  30  29     2.077232574545   111.03143312    59.46015726
 H     37  36  35     2.073412584719   109.25719046   356.22521089
 H     37  36  35     2.081170112842   111.50785769   235.79952217
 H     37  36  35     2.085062601690   111.49802612   116.75914491
 H     39  38  36     2.083609382256   111.33358340   298.53189467
 H     39  38  36     2.074054050079   109.12202971   178.46578491
 H     39  38  36     2.083653113263   111.77062647    57.46756655
 H     45  44  43     2.063758931260   108.46598242   338.26555369
 H     45  44  43     2.081780511570   107.04135034   224.88285603
 H     46  45  44     2.079199807421   111.56843727   305.22136401
 H     46  45  44     2.078742522358   110.36523555   184.51840210
 H     46  45  44     2.077842716233   111.23039446    65.00356687
 H     55  54  50     2.080412751447   110.34983083   161.64052183
 H     55  54  50     2.084265113255   109.07743560    44.74823260
 H     56  55  54     2.078375653078   110.59950878   300.32787346
 H     56  55  54     2.080120186174   110.91191988   179.07911070
 H     56  55  54     2.079941258037   110.69441368    59.11462105
 H     57  53  52     2.072867693250   115.91006284   206.11261944
 H     66  65  59     2.057264604056   123.59090318   357.29161503
 H     71  69  67     2.062545038055   120.90930006   180.94513000

---------------------
BASIS SET INFORMATION
---------------------
There are 6 groups of distinct atoms

 Group   1 Type C   : 7s4p1d contracted to 3s2p1d pattern {511/31/1}
 Group   2 Type O   : 7s4p1d contracted to 3s2p1d pattern {511/31/1}
 Group   3 Type F   : 7s4p1d contracted to 3s2p1d pattern {511/31/1}
 Group   4 Type N   : 7s4p1d contracted to 3s2p1d pattern {511/31/1}
 Group   5 Type S   : 10s7p1d contracted to 4s3p1d pattern {5311/511/1}
 Group   6 Type H   : 4s1p contracted to 2s1p pattern {31/1}

Atom   0C    basis set group =>   1
Atom   1O    basis set group =>   2
Atom   2C    basis set group =>   1
Atom   3C    basis set group =>   1
Atom   4C    basis set group =>   1
Atom   5F    basis set group =>   3
Atom   6C    basis set group =>   1
Atom   7F    basis set group =>   3
Atom   8C    basis set group =>   1
Atom   9C    basis set group =>   1
Atom  10C    basis set group =>   1
Atom  11C    basis set group =>   1
Atom  12C    basis set group =>   1
Atom  13N    basis set group =>   4
Atom  14C    basis set group =>   1
Atom  15N    basis set group =>   4
Atom  16C    basis set group =>   1
Atom  17C    basis set group =>   1
Atom  18C    basis set group =>   1
Atom  19S    basis set group =>   5
Atom  20C    basis set group =>   1
Atom  21C    basis set group =>   1
Atom  22C    basis set group =>   1
Atom  23C    basis set group =>   1
Atom  24C    basis set group =>   1
Atom  25S    basis set group =>   5
Atom  26C    basis set group =>   1
Atom  27C    basis set group =>   1
Atom  28N    basis set group =>   4
Atom  29C    basis set group =>   1
Atom  30C    basis set group =>   1
Atom  31C    basis set group =>   1
Atom  32C    basis set group =>   1
Atom  33C    basis set group =>   1
Atom  34N    basis set group =>   4
Atom  35C    basis set group =>   1
Atom  36C    basis set group =>   1
Atom  37C    basis set group =>   1
Atom  38C    basis set group =>   1
Atom  39N    basis set group =>   4
Atom  40C    basis set group =>   1
Atom  41C    basis set group =>   1
Atom  42C    basis set group =>   1
Atom  43N    basis set group =>   4
Atom  44C    basis set group =>   1
Atom  45C    basis set group =>   1
Atom  46C    basis set group =>   1
Atom  47C    basis set group =>   1
Atom  48S    basis set group =>   5
Atom  49C    basis set group =>   1
Atom  50C    basis set group =>   1
Atom  51S    basis set group =>   5
Atom  52C    basis set group =>   1
Atom  53C    basis set group =>   1
Atom  54C    basis set group =>   1
Atom  55C    basis set group =>   1
Atom  56C    basis set group =>   1
Atom  57C    basis set group =>   1
Atom  58C    basis set group =>   1
Atom  59C    basis set group =>   1
Atom  60C    basis set group =>   1
Atom  61N    basis set group =>   4
Atom  62C    basis set group =>   1
Atom  63N    basis set group =>   4
Atom  64C    basis set group =>   1
Atom  65C    basis set group =>   1
Atom  66C    basis set group =>   1
Atom  67F    basis set group =>   3
Atom  68C    basis set group =>   1
Atom  69F    basis set group =>   3
Atom  70C    basis set group =>   1
Atom  71C    basis set group =>   1
Atom  72C    basis set group =>   1
Atom  73O    basis set group =>   2
Atom  74H    basis set group =>   6
Atom  75H    basis set group =>   6
Atom  76H    basis set group =>   6
Atom  77H    basis set group =>   6
Atom  78H    basis set group =>   6
Atom  79H    basis set group =>   6
Atom  80H    basis set group =>   6
Atom  81H    basis set group =>   6
Atom  82H    basis set group =>   6
Atom  83H    basis set group =>   6
Atom  84H    basis set group =>   6
Atom  85H    basis set group =>   6
Atom  86H    basis set group =>   6
Atom  87H    basis set group =>   6
Atom  88H    basis set group =>   6
Atom  89H    basis set group =>   6
Atom  90H    basis set group =>   6
Atom  91H    basis set group =>   6
Atom  92H    basis set group =>   6
Atom  93H    basis set group =>   6
Atom  94H    basis set group =>   6
Atom  95H    basis set group =>   6
Atom  96H    basis set group =>   6
Atom  97H    basis set group =>   6
Atom  98H    basis set group =>   6
Atom  99H    basis set group =>   6
Atom 100H    basis set group =>   6
Atom 101H    basis set group =>   6
Atom 102H    basis set group =>   6
Atom 103H    basis set group =>   6
Atom 104H    basis set group =>   6
Atom 105H    basis set group =>   6
---------------------------------
AUXILIARY/J BASIS SET INFORMATION
---------------------------------
There are 6 groups of distinct atoms

 Group   1 Type C   : 12s5p4d2f1g contracted to 6s4p3d1f1g pattern {711111/2111/211/2/1}
 Group   2 Type O   : 12s5p4d2f1g contracted to 6s4p3d1f1g pattern {711111/2111/211/2/1}
 Group   3 Type F   : 12s5p4d2f1g contracted to 6s4p3d1f1g pattern {711111/2111/211/2/1}
 Group   4 Type N   : 12s5p4d2f1g contracted to 6s4p3d1f1g pattern {711111/2111/211/2/1}
 Group   5 Type S   : 14s5p5d2f1g contracted to 8s4p3d1f1g pattern {71111111/2111/311/2/1}
 Group   6 Type H   : 5s2p1d contracted to 3s1p1d pattern {311/2/1}

Atom   0C    basis set group =>   1
Atom   1O    basis set group =>   2
Atom   2C    basis set group =>   1
Atom   3C    basis set group =>   1
Atom   4C    basis set group =>   1
Atom   5F    basis set group =>   3
Atom   6C    basis set group =>   1
Atom   7F    basis set group =>   3
Atom   8C    basis set group =>   1
Atom   9C    basis set group =>   1
Atom  10C    basis set group =>   1
Atom  11C    basis set group =>   1
Atom  12C    basis set group =>   1
Atom  13N    basis set group =>   4
Atom  14C    basis set group =>   1
Atom  15N    basis set group =>   4
Atom  16C    basis set group =>   1
Atom  17C    basis set group =>   1
Atom  18C    basis set group =>   1
Atom  19S    basis set group =>   5
Atom  20C    basis set group =>   1
Atom  21C    basis set group =>   1
Atom  22C    basis set group =>   1
Atom  23C    basis set group =>   1
Atom  24C    basis set group =>   1
Atom  25S    basis set group =>   5
Atom  26C    basis set group =>   1
Atom  27C    basis set group =>   1
Atom  28N    basis set group =>   4
Atom  29C    basis set group =>   1
Atom  30C    basis set group =>   1
Atom  31C    basis set group =>   1
Atom  32C    basis set group =>   1
Atom  33C    basis set group =>   1
Atom  34N    basis set group =>   4
Atom  35C    basis set group =>   1
Atom  36C    basis set group =>   1
Atom  37C    basis set group =>   1
Atom  38C    basis set group =>   1
Atom  39N    basis set group =>   4
Atom  40C    basis set group =>   1
Atom  41C    basis set group =>   1
Atom  42C    basis set group =>   1
Atom  43N    basis set group =>   4
Atom  44C    basis set group =>   1
Atom  45C    basis set group =>   1
Atom  46C    basis set group =>   1
Atom  47C    basis set group =>   1
Atom  48S    basis set group =>   5
Atom  49C    basis set group =>   1
Atom  50C    basis set group =>   1
Atom  51S    basis set group =>   5
Atom  52C    basis set group =>   1
Atom  53C    basis set group =>   1
Atom  54C    basis set group =>   1
Atom  55C    basis set group =>   1
Atom  56C    basis set group =>   1
Atom  57C    basis set group =>   1
Atom  58C    basis set group =>   1
Atom  59C    basis set group =>   1
Atom  60C    basis set group =>   1
Atom  61N    basis set group =>   4
Atom  62C    basis set group =>   1
Atom  63N    basis set group =>   4
Atom  64C    basis set group =>   1
Atom  65C    basis set group =>   1
Atom  66C    basis set group =>   1
Atom  67F    basis set group =>   3
Atom  68C    basis set group =>   1
Atom  69F    basis set group =>   3
Atom  70C    basis set group =>   1
Atom  71C    basis set group =>   1
Atom  72C    basis set group =>   1
Atom  73O    basis set group =>   2
Atom  74H    basis set group =>   6
Atom  75H    basis set group =>   6
Atom  76H    basis set group =>   6
Atom  77H    basis set group =>   6
Atom  78H    basis set group =>   6
Atom  79H    basis set group =>   6
Atom  80H    basis set group =>   6
Atom  81H    basis set group =>   6
Atom  82H    basis set group =>   6
Atom  83H    basis set group =>   6
Atom  84H    basis set group =>   6
Atom  85H    basis set group =>   6
Atom  86H    basis set group =>   6
Atom  87H    basis set group =>   6
Atom  88H    basis set group =>   6
Atom  89H    basis set group =>   6
Atom  90H    basis set group =>   6
Atom  91H    basis set group =>   6
Atom  92H    basis set group =>   6
Atom  93H    basis set group =>   6
Atom  94H    basis set group =>   6
Atom  95H    basis set group =>   6
Atom  96H    basis set group =>   6
Atom  97H    basis set group =>   6
Atom  98H    basis set group =>   6
Atom  99H    basis set group =>   6
Atom 100H    basis set group =>   6
Atom 101H    basis set group =>   6
Atom 102H    basis set group =>   6
Atom 103H    basis set group =>   6
Atom 104H    basis set group =>   6
Atom 105H    basis set group =>   6
------------------------------------------------------------------------------
                           ORCA GTO INTEGRAL CALCULATION
                           -- RI-GTO INTEGRALS CHOSEN --
------------------------------------------------------------------------------

                         BASIS SET STATISTICS AND STARTUP INFO

Gaussian basis set:
 # of primitive gaussian shells          ... 1072
 # of primitive gaussian functions       ... 2048
 # of contracted shells                  ...  548
 # of contracted basis functions         ... 1212
 Highest angular momentum                ...    2
 Maximum contraction depth               ...    5
Auxiliary gaussian basis set:
 # of primitive gaussian shells          ... 2044
 # of primitive gaussian functions       ... 5720
 # of contracted shells                  ... 1278
 # of contracted aux-basis functions     ... 3986
 Highest angular momentum                ...    4
 Maximum contraction depth               ...    7
Ratio of auxiliary to basis functions    ...  3.29
Integral package used                  ... LIBINT
 One Electron integrals                  ... done
 Ordering auxiliary basis shells         ... done
 Integral threshhold             Thresh  ...  2.500e-11
 Primitive cut-off               TCut    ...  2.500e-12
 Pre-screening matrix                    ... done
 Shell pair data                         ... 
 Ordering of the shell pairs             ... done (   0.012 sec) 50870 of 150426 pairs
 Determination of significant pairs      ... done (   0.000 sec)
 Creation of shell pair data             ... done (   0.008 sec)
 Storage of shell pair data              ... done (   0.011 sec)
 Shell pair data done in (   0.031 sec)
 Computing two index integrals           ... done
 Cholesky decomposition of the V-matrix  ... done


Timings:
 Total evaluation time                   ...   2.515 sec (  0.042 min)
 One electron matrix time                ...   0.696 sec (  0.012 min) = 27.7%
 Schwartz matrix evaluation time         ...   0.785 sec (  0.013 min) = 31.2%
 Two index repulsion integral time       ...   0.422 sec (  0.007 min) = 16.8%
 Cholesky decomposition of V             ...   0.562 sec (  0.009 min) = 22.3%
 Three index repulsion integral time     ...   0.000 sec (  0.000 min) =  0.0%

-------------------------------------------------------------------------------
                                 ORCA SCF
-------------------------------------------------------------------------------

------------
SCF SETTINGS
------------
Hamiltonian:
 Density Functional     Method          .... DFT(GTOs)
 Exchange Functional    Exchange        .... WB88
 Correlation Functional Correlation     .... LYP
 LDA part of GGA corr.  LDAOpt          .... VWN-5
 Gradients option       PostSCFGGA      .... off
 Hybrid DFT is turned on
   Fraction HF Exchange ScalHFX         ....  0.190000
   Scaling of DF-GGA-X  ScalDFX         ....  0.350000
   Scaling of DF-GGA-C  ScalDFC         ....  0.810000
   Scaling of DF-LDA-C  ScalLDAC        ....  1.000000
   Perturbative correction              ....  0.000000
   Density functional embedding theory  .... OFF
 Long-range corrected/Screened/Range-Separated Hybrid DFT is turned on
   Amount of maximum screened exact exchange              ....  0.460000
   Range separation parameter mu (erf(mu*r12)/r12)        ....  0.330000
 RI-approximation to the Coulomb term is turned on
   Number of auxiliary basis functions  .... 3986
   RIJ-COSX (HFX calculated with COS-X)).... on


General Settings:
 Integral files         IntName         .... AQx
 Hartree-Fock type      HFTyp           .... RHF
 Total Charge           Charge          ....    0
 Multiplicity           Mult            ....    1
 Number of Electrons    NEL             ....  540
 Basis Dimension        Dim             .... 1212
 Nuclear Repulsion      ENuc            ....  11538.0351017904 Eh

Convergence Acceleration:
 DIIS                   CNVDIIS         .... on
   Start iteration      DIISMaxIt       ....    12
   Startup error        DIISStart       ....  0.200000
   # of expansion vecs  DIISMaxEq       ....     5
   Bias factor          DIISBfac        ....   1.050
   Max. coefficient     DIISMaxC        ....  10.000
 Newton-Raphson         CNVNR           .... off
 SOSCF                  CNVSOSCF        .... on
   Start iteration      SOSCFMaxIt      ....   150
   Startup grad/error   SOSCFStart      ....  0.003300
 Level Shifting         CNVShift        .... on
   Level shift para.    LevelShift      ....    0.2500
   Turn off err/grad.   ShiftErr        ....    0.0010
 Zerner damping         CNVZerner       .... off
 Static damping         CNVDamp         .... on
   Fraction old density DampFac         ....    0.7000
   Max. Damping (<1)    DampMax         ....    0.9800
   Min. Damping (>=0)   DampMin         ....    0.0000
   Turn off err/grad.   DampErr         ....    0.1000
 Fernandez-Rico         CNVRico         .... off

SCF Procedure:
 Maximum # iterations   MaxIter         ....   125
 SCF integral mode      SCFMode         .... Direct
   Integral package                     .... LIBINT
 Reset frequency        DirectResetFreq ....    20
 Integral Threshold     Thresh          ....  2.500e-11 Eh
 Primitive CutOff       TCut            ....  2.500e-12 Eh

Convergence Tolerance:
 Convergence Check Mode ConvCheckMode   .... Total+1el-Energy
 Convergence forced     ConvForced      .... 1
 Energy Change          TolE            ....  1.000e-08 Eh
 1-El. energy change                    ....  1.000e-05 Eh
 Orbital Gradient       TolG            ....  1.000e-05
 Orbital Rotation angle TolX            ....  1.000e-05
 DIIS Error             TolErr          ....  5.000e-07


Diagonalization of the overlap matrix:
Smallest eigenvalue                        ... 9.236e-05
Time for diagonalization                   ...    0.360 sec
Threshold for overlap eigenvalues          ... 1.000e-08
Number of eigenvalues below threshold      ... 0
Time for construction of square roots      ...    0.160 sec
Total time needed                          ...    0.525 sec

-------------------
DFT GRID GENERATION
-------------------

General Integration Accuracy     IntAcc      ...  4.670
Radial Grid Type                 RadialGrid  ... Gauss-Chebyshev
Angular Grid (max. acc.)         AngularGrid ... Lebedev-302
Angular grid pruning method      GridPruning ... 3 (G Style)
Weight generation scheme         WeightScheme... Becke
Basis function cutoff            BFCut       ...    1.0000e-11
Integration weight cutoff        WCut        ...    1.0000e-14
Grids for H and He will be reduced by one unit

# of grid points (after initial pruning)     ... 571072 (   1.4 sec)
# of grid points (after weights+screening)   ... 486442 (  27.3 sec)
nearest neighbour list constructed           ...    0.0 sec
Grid point re-assignment to atoms done       ...    0.1 sec
Grid point division into batches done        ...    1.8 sec
Reduced shell lists constructed in    9.2 sec

Total number of grid points                  ...   486442
Total number of batches                      ...     7655
Average number of points per batch           ...       63
Average number of grid points per atom       ...     4589
Average number of shells per batch           ...    98.18 (17.92%)
Average number of basis functions per batch  ...   202.18 (16.68%)
Average number of large shells per batch     ...    57.98 (59.05%)
Average number of large basis fcns per batch ...   121.46 (60.07%)
Maximum spatial batch extension              ...  24.43, 19.73, 24.50 au
Average spatial batch extension              ...   2.12,  2.07,  2.30 au

Time for grid setup =   37.917 sec

------------------------------
INITIAL GUESS: MODEL POTENTIAL
------------------------------
Loading Hartree-Fock densities                     ... done
Calculating cut-offs                               ... done
Setting up the integral package                    ... done
Initializing the effective Hamiltonian             ... done
Starting the Coulomb interaction                   ... done (  10.3 sec)
Reading the grid                                   ... done
Mapping shells                                     ... done
Starting the XC term evaluation                    ... done (   9.4 sec)
  promolecular density results
     # of electrons  =    539.985582229
     EX              =   -504.098870992
     EC              =    -18.692554098
     EX+EC           =   -522.791425089
Transforming the Hamiltonian                       ... done (   0.1 sec)
Diagonalizing the Hamiltonian                      ... done (   0.3 sec)
Back transforming the eigenvectors                 ... done (   0.1 sec)
Now organizing SCF variables                       ... done
                      ------------------
                      INITIAL GUESS DONE (  58.5 sec)
                      ------------------
--------------------
COSX GRID GENERATION
--------------------

General Integration Accuracy     IntAcc      ...  3.340
Radial Grid Type                 RadialGrid  ... Gauss-Chebyshev
Angular Grid (max. acc.)         AngularGrid ... Lebedev-50
Angular grid pruning method      GridPruning ... 3 (G Style)
Weight generation scheme         WeightScheme... Becke
Basis function cutoff            BFCut       ...    1.0000e-11
Integration weight cutoff        WCut        ...    1.0000e-14
Grids for H and He will be reduced by one unit

# of grid points (after initial pruning)     ...  53552 (   0.1 sec)
# of grid points (after weights+screening)   ...  47702 (   2.4 sec)
nearest neighbour list constructed           ...    0.0 sec
Grid point re-assignment to atoms done       ...    0.0 sec
Grid point division into batches done        ...    0.0 sec
Reduced shell lists constructed in    1.0 sec

Total number of grid points                  ...    47702
Total number of batches                      ...      807
Average number of points per batch           ...       59
Average number of grid points per atom       ...      450
Average number of shells per batch           ...   120.29 (21.95%)
Average number of basis functions per batch  ...   250.63 (20.68%)
Average number of large shells per batch     ...    71.17 (59.17%)
Average number of large basis fcns per batch ...   151.37 (60.40%)
Maximum spatial batch extension              ...  22.04, 18.52, 21.05 au
Average spatial batch extension              ...   4.37,  4.07,  5.18 au

Overlap Fitting                  UseSFitting ... on
Constructing numerical overlap ... done (      0.9 sec)
Inverting numerical overlap    ... done (      0.0 sec)
Obtaining analytic overlap     ... done (      0.0 sec)
Final contraction and storage  ... done (      0.1 sec)


General Integration Accuracy     IntAcc      ...  3.670
Radial Grid Type                 RadialGrid  ... Gauss-Chebyshev
Angular Grid (max. acc.)         AngularGrid ... Lebedev-50
Angular grid pruning method      GridPruning ... 3 (G Style)
Weight generation scheme         WeightScheme... Becke
Basis function cutoff            BFCut       ...    1.0000e-11
Integration weight cutoff        WCut        ...    1.0000e-14
Grids for H and He will be reduced by one unit

# of grid points (after initial pruning)     ...  66900 (   0.1 sec)
# of grid points (after weights+screening)   ...  59351 (   3.1 sec)
nearest neighbour list constructed           ...    0.0 sec
Grid point re-assignment to atoms done       ...    0.0 sec
Grid point division into batches done        ...    0.0 sec
Reduced shell lists constructed in    1.2 sec

Total number of grid points                  ...    59351
Total number of batches                      ...      981
Average number of points per batch           ...       60
Average number of grid points per atom       ...      560
Average number of shells per batch           ...   117.64 (21.47%)
Average number of basis functions per batch  ...   244.53 (20.18%)
Average number of large shells per batch     ...    69.51 (59.08%)
Average number of large basis fcns per batch ...   147.60 (60.36%)
Maximum spatial batch extension              ...  23.99, 19.86, 23.89 au
Average spatial batch extension              ...   4.10,  3.83,  4.82 au

Overlap Fitting                  UseSFitting ... on
Constructing numerical overlap ... done (      0.7 sec)
Inverting numerical overlap    ... done (      0.0 sec)
Obtaining analytic overlap     ... done (      0.0 sec)
Final contraction and storage  ... done (      0.1 sec)


General Integration Accuracy     IntAcc      ...  4.010
Radial Grid Type                 RadialGrid  ... Gauss-Chebyshev
Angular Grid (max. acc.)         AngularGrid ... Lebedev-110
Angular grid pruning method      GridPruning ... 3 (G Style)
Weight generation scheme         WeightScheme... Becke
Basis function cutoff            BFCut       ...    1.0000e-11
Integration weight cutoff        WCut        ...    1.0000e-14
Grids for H and He will be reduced by one unit

# of grid points (after initial pruning)     ... 130484 (   0.2 sec)
# of grid points (after weights+screening)   ... 114680 (   6.2 sec)
nearest neighbour list constructed           ...    0.0 sec
Grid point re-assignment to atoms done       ...    0.0 sec
Grid point division into batches done        ...    0.1 sec
Reduced shell lists constructed in    2.3 sec

Total number of grid points                  ...   114680
Total number of batches                      ...     1842
Average number of points per batch           ...       62
Average number of grid points per atom       ...     1082
Average number of shells per batch           ...   111.21 (20.29%)
Average number of basis functions per batch  ...   230.67 (19.03%)
Average number of large shells per batch     ...    65.94 (59.29%)
Average number of large basis fcns per batch ...   139.51 (60.48%)
Maximum spatial batch extension              ...  26.20, 22.30, 25.45 au
Average spatial batch extension              ...   3.35,  3.20,  3.79 au

Overlap Fitting                  UseSFitting ... on
Constructing numerical overlap ... done (      1.3 sec)
Inverting numerical overlap    ... done (      0.0 sec)
Obtaining analytic overlap     ... done (      0.0 sec)
Final contraction and storage  ... done (      0.1 sec)

Time for X-Grid setup             =   19.939 sec
--------------
SCF ITERATIONS
--------------
ITER       Energy         Delta-E        Max-DP      RMS-DP      [F,P]     Damp
               ***  Starting incremental Fock matrix formation  ***
  0  -4728.1806566661   0.000000000000 0.07783449  0.00087976  0.2315516 0.7000
  1  -4728.7361124614  -0.555455795300 0.04333381  0.00062022  0.0964153 0.7000
                               ***Turning on DIIS***
  2  -4728.9712516720  -0.235139210608 0.07857581  0.00113361  0.0433279 0.0000
  3  -4729.3686190181  -0.397367346097 0.03747110  0.00044702  0.0535152 0.0000
  4  -4729.4352772850  -0.066658266929 0.01719376  0.00014965  0.0237613 0.0000
  5  -4729.4414401487  -0.006162863659 0.00669291  0.00005954  0.0066658 0.0000
                      *** Initiating the SOSCF procedure ***
                           *** Shutting down DIIS ***
                      *** Re-Reading the Fockian *** 
                      *** Removing any level shift *** 
ITER      Energy       Delta-E        Grad      Rot      Max-DP    RMS-DP
  6  -4729.44237642  -0.0009362731  0.002992  0.002992  0.002967  0.000033
               *** Restarting incremental Fock matrix formation ***
  7  -4729.44261848  -0.0002420548  0.002111  0.013833  0.002324  0.000035
  8  -4729.44284138  -0.0002229068  0.000675  0.012511  0.004558  0.000041
  9  -4729.44284657  -0.0000051846  0.000764  0.003897  0.001630  0.000014
 10  -4729.44290379  -0.0000572258  0.000166  0.001414  0.000794  0.000008
 11  -4729.44290221   0.0000015809  0.000147  0.000919  0.000428  0.000005
 12  -4729.44290768  -0.0000054674  0.000038  0.000161  0.000231  0.000002
 13  -4729.44290766   0.0000000180  0.000034  0.000075  0.000075  0.000001
 14  -4729.44290791  -0.0000002470  0.000009  0.000059  0.000036  0.000000
 15  -4729.44290793  -0.0000000207  0.000009  0.000023  0.000020  0.000000
 16  -4729.44290792   0.0000000104  0.000003  0.000013  0.000016  0.000000
 17  -4729.44290794  -0.0000000234  0.000005  0.000005  0.000006  0.000000
                  ***Gradient check signals convergence***
              ***Rediagonalizing the Fockian in SOSCF/NRSCF***

               *****************************************************
               *                     SUCCESS                       *
               *           SCF CONVERGED AFTER  18 CYCLES          *
               *****************************************************

Setting up the final grid:

General Integration Accuracy     IntAcc      ...  5.010
Radial Grid Type                 RadialGrid  ... Gauss-Chebyshev
Angular Grid (max. acc.)         AngularGrid ... Lebedev-434
Angular grid pruning method      GridPruning ... 3 (G Style)
Weight generation scheme         WeightScheme... Becke
Basis function cutoff            BFCut       ...    1.0000e-11
Integration weight cutoff        WCut        ...    1.0000e-14
Grids for H and He will be reduced by one unit

# of grid points (after initial pruning)     ... 1009868 (   2.1 sec)
# of grid points (after weights+screening)   ... 857254 (  45.8 sec)
nearest neighbour list constructed           ...    0.0 sec
Grid point re-assignment to atoms done       ...    0.1 sec
Grid point division into batches done        ...    5.8 sec
Reduced shell lists constructed in   17.9 sec

Total number of grid points                  ...   857254
Total number of batches                      ...    13457
Average number of points per batch           ...       63
Average number of grid points per atom       ...     8087
Average number of shells per batch           ...    94.51 (17.25%)
Average number of basis functions per batch  ...   193.99 (16.01%)
Average number of large shells per batch     ...    55.74 (58.97%)
Average number of large basis fcns per batch ...   116.42 (60.01%)
Maximum spatial batch extension              ...  25.58, 22.26, 23.24 au
Average spatial batch extension              ...   1.73,  1.70,  1.83 au

Final grid set up in   65.8 sec
Final integration                            ... done (  22.1 sec)
Change in XC energy                          ...     0.000048395
Integrated number of electrons               ...   539.999886590
Previous integrated no of electrons          ...   540.000410889
Old exchange energy                            =   -139.455282226 Eh
New exchange energy                            =   -139.452307990 Eh
Exchange energy change after final integration =      0.002974237 Eh
Total energy after final integration           =  -4729.439885362 Eh
Final COS-X integration done in                =   435.652 sec

----------------
TOTAL SCF ENERGY
----------------

Total Energy       :        -4729.43988536 Eh         -128694.60199 eV

Components:
Nuclear Repulsion  :        11538.03510179 Eh          313965.89684 eV
Electronic Energy  :       -16267.47498715 Eh         -442660.49883 eV
One Electron Energy:       -29458.78820877 Eh         -801614.38045 eV
Two Electron Energy:        13191.31322162 Eh          358953.88162 eV

Virial components:
Potential Energy   :        -9424.07229304 Eh         -256442.04436 eV
Kinetic Energy     :         4694.63240768 Eh          127747.44237 eV
Virial Ratio       :            2.00741431


DFT components:
N(Alpha)           :      269.999943295098 electrons
N(Beta)            :      269.999943295098 electrons
N(Total)           :      539.999886590195 electrons
E(XC)              :     -391.415502272000 Eh       
DFET-embed. en.    :        0.000000000000 Eh       

---------------
SCF CONVERGENCE
---------------

  Last Energy change         ...   -5.0462e-08  Tolerance :   1.0000e-08
  Last MAX-Density change    ...    8.4377e-15  Tolerance :   1.0000e-07
  Last RMS-Density change    ...    3.6279e-17  Tolerance :   5.0000e-09
  Last Orbital Gradient      ...    6.7869e-07  Tolerance :   1.0000e-05
  Last Orbital Rotation      ...    3.0119e-06  Tolerance :   1.0000e-05

             **** THE GBW FILE WAS UPDATED (AQx.gbw) ****
             **** DENSITY FILE WAS UPDATED (AQx.scfp) ****
             **** ENERGY FILE WAS UPDATED (AQx.en.tmp) ****
             **** THE GBW FILE WAS UPDATED (AQx.gbw) ****
             **** DENSITY FILE WAS UPDATED (AQx.scfp) ****
----------------
ORBITAL ENERGIES
----------------

  NO   OCC          E(Eh)            E(eV) 
   0   2.0000     -88.977497     -2421.2008 
   1   2.0000     -88.971699     -2421.0430 
   2   2.0000     -88.969530     -2420.9840 
   3   2.0000     -88.966563     -2420.9032 
   4   2.0000     -24.804114      -674.9543 
   5   2.0000     -24.803332      -674.9330 
   6   2.0000     -24.803158      -674.9282 
   7   2.0000     -24.800713      -674.8617 
   8   2.0000     -19.222272      -523.0646 
   9   2.0000     -19.219291      -522.9835 
  10   2.0000     -14.487279      -394.2189 
  11   2.0000     -14.485650      -394.1746 
  12   2.0000     -14.425358      -392.5339 
  13   2.0000     -14.424487      -392.5102 
  14   2.0000     -14.419914      -392.3858 
  15   2.0000     -14.419803      -392.3828 
  16   2.0000     -14.419658      -392.3789 
  17   2.0000     -14.419655      -392.3788 
  18   2.0000     -10.388411      -282.6830 
  19   2.0000     -10.388053      -282.6733 
  20   2.0000     -10.386577      -282.6331 
  21   2.0000     -10.385794      -282.6118 
  22   2.0000     -10.373016      -282.2641 
  23   2.0000     -10.372967      -282.2628 
  24   2.0000     -10.350801      -281.6596 
  25   2.0000     -10.350642      -281.6553 
  26   2.0000     -10.350256      -281.6448 
  27   2.0000     -10.348887      -281.6075 
  28   2.0000     -10.344723      -281.4942 
  29   2.0000     -10.344344      -281.4839 
  30   2.0000     -10.339004      -281.3386 
  31   2.0000     -10.337429      -281.2957 
  32   2.0000     -10.330274      -281.1010 
  33   2.0000     -10.329608      -281.0829 
  34   2.0000     -10.328829      -281.0617 
  35   2.0000     -10.328483      -281.0523 
  36   2.0000     -10.327774      -281.0330 
  37   2.0000     -10.327236      -281.0184 
  38   2.0000     -10.325250      -280.9643 
  39   2.0000     -10.324024      -280.9310 
  40   2.0000     -10.323932      -280.9285 
  41   2.0000     -10.323262      -280.9102 
  42   2.0000     -10.322938      -280.9014 
  43   2.0000     -10.322017      -280.8764 
  44   2.0000     -10.321054      -280.8502 
  45   2.0000     -10.320892      -280.8457 
  46   2.0000     -10.320671      -280.8397 
  47   2.0000     -10.319949      -280.8201 
  48   2.0000     -10.319624      -280.8112 
  49   2.0000     -10.317700      -280.7589 
  50   2.0000     -10.317510      -280.7537 
  51   2.0000     -10.317201      -280.7453 
  52   2.0000     -10.315136      -280.6891 
  53   2.0000     -10.312893      -280.6281 
  54   2.0000     -10.312191      -280.6090 
  55   2.0000     -10.312046      -280.6050 
  56   2.0000     -10.311102      -280.5794 
  57   2.0000     -10.310932      -280.5747 
  58   2.0000     -10.309814      -280.5443 
  59   2.0000     -10.309409      -280.5333 
  60   2.0000     -10.306154      -280.4447 
  61   2.0000     -10.302369      -280.3417 
  62   2.0000     -10.300349      -280.2867 
  63   2.0000     -10.299924      -280.2752 
  64   2.0000     -10.294393      -280.1247 
  65   2.0000     -10.293892      -280.1111 
  66   2.0000     -10.292463      -280.0722 
  67   2.0000     -10.288594      -279.9669 
  68   2.0000     -10.288098      -279.9534 
  69   2.0000     -10.287520      -279.9376 
  70   2.0000     -10.273964      -279.5688 
  71   2.0000     -10.273486      -279.5558 
  72   2.0000     -10.268925      -279.4317 
  73   2.0000     -10.265971      -279.3513 
  74   2.0000      -8.071103      -219.6259 
  75   2.0000      -8.064361      -219.4424 
  76   2.0000      -8.062642      -219.3956 
  77   2.0000      -8.059755      -219.3171 
  78   2.0000      -6.040850      -164.3799 
  79   2.0000      -6.036754      -164.2684 
  80   2.0000      -6.034108      -164.1964 
  81   2.0000      -6.032661      -164.1571 
  82   2.0000      -6.032545      -164.1539 
  83   2.0000      -6.029825      -164.0799 
  84   2.0000      -6.029679      -164.0759 
  85   2.0000      -6.028621      -164.0471 
  86   2.0000      -6.026022      -163.9764 
  87   2.0000      -6.025783      -163.9699 
  88   2.0000      -6.023535      -163.9087 
  89   2.0000      -6.020524      -163.8268 
  90   2.0000      -1.330307       -36.1995 
  91   2.0000      -1.328542       -36.1515 
  92   2.0000      -1.314211       -35.7615 
  93   2.0000      -1.312792       -35.7229 
  94   2.0000      -1.134436       -30.8696 
  95   2.0000      -1.131400       -30.7870 
  96   2.0000      -1.108085       -30.1525 
  97   2.0000      -1.095894       -29.8208 
  98   2.0000      -1.069978       -29.1156 
  99   2.0000      -1.018064       -27.7029 
 100   2.0000      -1.015835       -27.6423 
 101   2.0000      -1.010834       -27.5062 
 102   2.0000      -1.007547       -27.4168 
 103   2.0000      -0.998563       -27.1723 
 104   2.0000      -0.997841       -27.1526 
 105   2.0000      -0.995969       -27.1017 
 106   2.0000      -0.991779       -26.9877 
 107   2.0000      -0.991261       -26.9736 
 108   2.0000      -0.962944       -26.2030 
 109   2.0000      -0.957593       -26.0574 
 110   2.0000      -0.953289       -25.9403 
 111   2.0000      -0.947815       -25.7914 
 112   2.0000      -0.940343       -25.5880 
 113   2.0000      -0.909954       -24.7611 
 114   2.0000      -0.901034       -24.5184 
 115   2.0000      -0.899075       -24.4651 
 116   2.0000      -0.897715       -24.4281 
 117   2.0000      -0.896769       -24.4023 
 118   2.0000      -0.894331       -24.3360 
 119   2.0000      -0.880153       -23.9502 
 120   2.0000      -0.875734       -23.8299 
 121   2.0000      -0.871669       -23.7193 
 122   2.0000      -0.870040       -23.6750 
 123   2.0000      -0.865789       -23.5593 
 124   2.0000      -0.848841       -23.0981 
 125   2.0000      -0.840787       -22.8790 
 126   2.0000      -0.831219       -22.6186 
 127   2.0000      -0.823697       -22.4139 
 128   2.0000      -0.816113       -22.2076 
 129   2.0000      -0.806959       -21.9585 
 130   2.0000      -0.805607       -21.9217 
 131   2.0000      -0.798432       -21.7264 
 132   2.0000      -0.792933       -21.5768 
 133   2.0000      -0.788527       -21.4569 
 134   2.0000      -0.769632       -20.9428 
 135   2.0000      -0.768192       -20.9036 
 136   2.0000      -0.761819       -20.7301 
 137   2.0000      -0.753597       -20.5064 
 138   2.0000      -0.743819       -20.2403 
 139   2.0000      -0.733142       -19.9498 
 140   2.0000      -0.728508       -19.8237 
 141   2.0000      -0.719262       -19.5721 
 142   2.0000      -0.715457       -19.4686 
 143   2.0000      -0.714716       -19.4484 
 144   2.0000      -0.710673       -19.3384 
 145   2.0000      -0.706311       -19.2197 
 146   2.0000      -0.703323       -19.1384 
 147   2.0000      -0.695435       -18.9237 
 148   2.0000      -0.688156       -18.7257 
 149   2.0000      -0.681055       -18.5324 
 150   2.0000      -0.677765       -18.4429 
 151   2.0000      -0.672083       -18.2883 
 152   2.0000      -0.658676       -17.9235 
 153   2.0000      -0.654689       -17.8150 
 154   2.0000      -0.647087       -17.6081 
 155   2.0000      -0.641880       -17.4664 
 156   2.0000      -0.641644       -17.4600 
 157   2.0000      -0.640689       -17.4340 
 158   2.0000      -0.633778       -17.2460 
 159   2.0000      -0.630002       -17.1432 
 160   2.0000      -0.619673       -16.8622 
 161   2.0000      -0.618732       -16.8366 
 162   2.0000      -0.616297       -16.7703 
 163   2.0000      -0.610236       -16.6054 
 164   2.0000      -0.607007       -16.5175 
 165   2.0000      -0.599620       -16.3165 
 166   2.0000      -0.592157       -16.1134 
 167   2.0000      -0.592141       -16.1130 
 168   2.0000      -0.590564       -16.0701 
 169   2.0000      -0.590314       -16.0633 
 170   2.0000      -0.588699       -16.0193 
 171   2.0000      -0.584803       -15.9133 
 172   2.0000      -0.582813       -15.8592 
 173   2.0000      -0.570108       -15.5134 
 174   2.0000      -0.567756       -15.4494 
 175   2.0000      -0.561852       -15.2888 
 176   2.0000      -0.555941       -15.1279 
 177   2.0000      -0.553147       -15.0519 
 178   2.0000      -0.551601       -15.0098 
 179   2.0000      -0.550940       -14.9918 
 180   2.0000      -0.550255       -14.9732 
 181   2.0000      -0.548427       -14.9235 
 182   2.0000      -0.545961       -14.8563 
 183   2.0000      -0.544232       -14.8093 
 184   2.0000      -0.540442       -14.7062 
 185   2.0000      -0.539344       -14.6763 
 186   2.0000      -0.535469       -14.5709 
 187   2.0000      -0.534786       -14.5523 
 188   2.0000      -0.532424       -14.4880 
 189   2.0000      -0.530300       -14.4302 
 190   2.0000      -0.528305       -14.3759 
 191   2.0000      -0.526021       -14.3138 
 192   2.0000      -0.524571       -14.2743 
 193   2.0000      -0.520640       -14.1673 
 194   2.0000      -0.518204       -14.1010 
 195   2.0000      -0.515487       -14.0271 
 196   2.0000      -0.508427       -13.8350 
 197   2.0000      -0.506717       -13.7885 
 198   2.0000      -0.505333       -13.7508 
 199   2.0000      -0.503776       -13.7084 
 200   2.0000      -0.500290       -13.6136 
 201   2.0000      -0.497357       -13.5338 
 202   2.0000      -0.496304       -13.5051 
 203   2.0000      -0.495452       -13.4819 
 204   2.0000      -0.494172       -13.4471 
 205   2.0000      -0.493033       -13.4161 
 206   2.0000      -0.490059       -13.3352 
 207   2.0000      -0.489164       -13.3108 
 208   2.0000      -0.486168       -13.2293 
 209   2.0000      -0.484845       -13.1933 
 210   2.0000      -0.481502       -13.1023 
 211   2.0000      -0.480438       -13.0734 
 212   2.0000      -0.478214       -13.0129 
 213   2.0000      -0.476805       -12.9745 
 214   2.0000      -0.473561       -12.8862 
 215   2.0000      -0.472818       -12.8660 
 216   2.0000      -0.471327       -12.8255 
 217   2.0000      -0.467453       -12.7200 
 218   2.0000      -0.464754       -12.6466 
 219   2.0000      -0.462096       -12.5743 
 220   2.0000      -0.459072       -12.4920 
 221   2.0000      -0.457703       -12.4547 
 222   2.0000      -0.456481       -12.4215 
 223   2.0000      -0.455330       -12.3902 
 224   2.0000      -0.454969       -12.3803 
 225   2.0000      -0.453812       -12.3489 
 226   2.0000      -0.453736       -12.3468 
 227   2.0000      -0.452388       -12.3101 
 228   2.0000      -0.451446       -12.2845 
 229   2.0000      -0.449802       -12.2397 
 230   2.0000      -0.446786       -12.1577 
 231   2.0000      -0.446338       -12.1455 
 232   2.0000      -0.443530       -12.0691 
 233   2.0000      -0.441362       -12.0101 
[...]
  19      4.45     278.6    91 ->  98      gap,J,K:    5.993     1.747     0.102
  20      4.50     275.6    92 ->  98      gap,J,K:    5.875     1.775     0.200
  21      4.52     274.2    89 ->  97      gap,J,K:    5.957     1.703     0.134
  22      4.59     270.1    95 -> 101      gap,J,K:    6.455     2.388     0.262
  23      4.60     269.3    93 ->  99      gap,J,K:    6.112     1.585     0.039
  24      4.61     268.7    96 -> 102      gap,J,K:    6.258     1.862     0.109

average / max PT2 energy lowering (eV):       0.042       0.076

CSF included by PT:                   189 
total number of CSF included:         224 
 
sTD-DFT procedure...
setting up A+B and A-B matrices...  done
estimated time (min):    0.000
calculating (A-B)^0.5 ... done
calculating (A+B)*(A-B)^0.5 ... done
calculating (A-B)^0.5 *(A+B)*(A-B)^0.5 ... done
diagonalizing ...using LAPACKE_ssyevr ...done

   42 roots found, lowest/highest eigenvalue :     2.006     4.985

excitation energies, transition moments and amplitudes

molecular weight: 1053.158
state   eV        nm        fL         fV        Rl        RV
   0   2.006     618.1   1.435129   1.665487  252.779140  236.334318     0.88 (  96->  97)    0.08 (  94->  98)    0.03 (  94->  97)
   1   2.416     513.2   1.053071   1.213528  -354.531476  -361.477796     0.81 (  96->  98)    0.13 (  94->  97)    0.01 (  94->  98)
   2   2.759     449.4   0.070813   0.064312  48.936500  49.697732     0.76 (  95->  97)    0.08 (  93->  97)    0.07 (  93->  98)
   3   2.979     416.2   0.055944   0.048943  13.662482  14.111682     0.49 (  95->  98)    0.26 (  93->  97)    0.07 (  95->  97)
   4   3.014     411.3   0.134437   0.132039  -131.862183  -121.939415     0.73 (  96->  99)    0.09 (  94-> 100)    0.06 (  94->  99)
   5   3.133     395.7   0.195902   0.185801  185.957727  180.088062     0.65 (  96-> 100)    0.09 (  94->  99)    0.07 (  94->  97)
   6   3.174     390.6   0.293387   0.304519  -126.283603  -135.993860     0.57 (  94->  97)    0.09 (  96->  98)    0.08 (  96-> 100)
   7   3.449     359.5   0.060787   0.052531   8.594961   6.831888     0.23 (  93->  97)    0.17 (  95->  98)    0.14 (  93->  98)
   8   3.496     354.7   0.015804   0.015100  175.749385  193.624420     0.53 (  94->  98)    0.16 (  92->  97)    0.05 (  96->  97)
   9   3.564     347.9   0.003653   0.004426  -11.267470  -8.976106     0.26 (  93->  98)    0.20 (  93->  97)    0.18 (  95->  98)
  10   3.651     339.6   0.233189   0.227350  46.620828  33.943501     0.21 (  90->  97)    0.11 (  92->  97)    0.10 (  89->  97)
  11   3.697     335.3   0.038368   0.036545   0.108359   0.606778     0.69 (  96-> 101)    0.08 (  96-> 102)    0.04 (  92->  97)
  12   3.781     327.9   0.041723   0.039962  29.111647  28.275069     0.14 (  95->  99)    0.12 (  85->  99)    0.08 (  87->  99)
  13   3.886     319.0   0.086070   0.076216  71.489932  67.424675     0.14 (  85->  98)    0.11 (  90->  98)    0.10 (  87->  97)
  14   3.899     318.0   0.019609   0.017887  -102.388383  -82.147458     0.40 (  86->  97)    0.14 (  86->  98)    0.12 (  84->  97)
  15   3.913     316.8   0.131878   0.122244  47.402705  49.909326     0.12 (  95->  99)    0.09 (  93->  99)    0.09 (  90->  97)
  16   3.995     310.4   0.160221   0.150384  130.254444  133.103085     0.24 (  86-> 100)    0.12 (  84-> 100)    0.07 (  86->  99)
  17   4.031     307.6   0.030430   0.023828  42.192123  33.234746     0.21 (  95->  99)    0.18 (  95-> 100)    0.09 (  93-> 100)
  18   4.070     304.6   0.126424   0.112288  14.246436  22.256337     0.15 (  95-> 101)    0.09 (  95->  99)    0.09 (  85->  99)
  19   4.110     301.7   0.061976   0.053380  -26.334829  -21.315457     0.23 (  95-> 100)    0.16 (  91->  97)    0.12 (  93->  98)
  20   4.126     300.5   0.143210   0.129163  222.528902  214.990070     0.15 (  95-> 101)    0.15 (  85->  99)    0.11 (  94->  99)
  21   4.159     298.1   0.004233   0.004722  16.152816  20.468543     0.41 (  88->  97)    0.29 (  88-> 101)    0.06 (  88-> 102)
  22   4.173     297.1   0.023253   0.021789  -3.283685  -6.412401     0.19 (  92->  97)    0.12 (  89->  97)    0.08 (  88->  97)
  23   4.199     295.3   0.029278   0.025574  -188.719103  -179.425413     0.28 (  94->  99)    0.21 (  95-> 101)    0.06 (  92->  98)
  24   4.245     292.1   0.036439   0.031933  -136.034096  -130.710935     0.16 (  91->  97)    0.16 (  94-> 100)    0.10 (  91->  98)
  25   4.310     287.7   0.064038   0.051306  -97.254798  -93.990303     0.18 (  91->  98)    0.14 (  94-> 100)    0.07 (  95-> 100)
  26   4.419     280.6   0.176215   0.157651  384.779735  354.687479     0.21 (  92->  98)    0.09 (  96-> 103)    0.07 (  84->  97)
  27   4.450     278.6   0.293307   0.259087  -944.518633  -893.011407     0.35 (  96-> 102)    0.13 (  94-> 100)    0.09 (  96-> 103)
  28   4.500     275.5   0.051755   0.045570  -144.556608  -134.566833     0.20 (  82->  97)    0.14 (  83->  97)    0.12 (  96-> 102)
  29   4.547     272.7   0.240650   0.207707  90.574386  84.581866     0.46 (  96-> 103)    0.07 (  94-> 101)    0.06 (  92->  98)
  30   4.556     272.2   0.451978   0.380356  304.795197  262.111785     0.12 (  89->  98)    0.11 (  90->  99)    0.07 (  92->  98)
  31   4.568     271.4   0.002585   0.003207   6.815538   6.892632     0.40 (  88->  97)    0.23 (  88-> 101)    0.20 (  88-> 102)
  32   4.595     269.8   0.007581   0.006587  19.050000  20.460103     0.22 (  93->  99)    0.19 (  95->  99)    0.13 (  93-> 100)
  33   4.620     268.3   0.043554   0.034349  -25.430330  -12.386254     0.23 (  93->  99)    0.13 (  95-> 100)    0.12 (  91-> 100)
  34   4.661     266.0   0.000628   0.000570   3.664572   2.998453     0.69 (  88->  98)    0.08 (  88-> 103)    0.04 (  88-> 101)
  35   4.688     264.5   0.066854   0.051940  -14.304365   1.433456     0.21 (  87->  97)    0.11 (  91->  98)    0.08 (  85->  97)
  36   4.691     264.3   0.264138   0.202145   9.805684  17.681721     0.15 (  90->  99)    0.13 (  93-> 100)    0.08 (  89-> 100)
  37   4.735     261.9   0.217411   0.168475  -76.183354  -86.231557     0.14 (  89->  99)    0.13 (  90-> 100)    0.12 (  83->  97)
  38   4.792     258.7   0.046620   0.034216  -40.968419  -29.454686     0.15 (  82->  97)    0.11 (  87->  98)    0.06 (  87->  97)
  39   4.901     253.0   0.005743   0.004873  30.163692  28.936821     0.32 (  93-> 101)    0.15 (  94-> 101)    0.12 (  96-> 104)
  40   4.937     251.2   0.090805   0.071993  46.404002  43.573001     0.39 (  96-> 104)    0.24 (  93-> 101)    0.04 (  94-> 102)
  41   4.985     248.7   0.058248   0.050139  99.044002  93.010580     0.18 (  94-> 101)    0.11 (  90->  97)    0.10 (  93-> 101)

-----------------------------------------------------------------------------
         ABSORPTION SPECTRUM VIA TRANSITION ELECTRIC DIPOLE MOMENTS
-----------------------------------------------------------------------------
State   Energy  Wavelength   fosc         T2         TX        TY        TZ  
        (cm-1)    (nm)                  (au**2)     (au)      (au)      (au) 
-----------------------------------------------------------------------------
   0   16177.7    618.1   1.435128519  29.20442   3.32036  -4.26270   0.09505
   1   19485.1    513.2   1.053071459  17.79226  -1.55170  -3.58891  -1.58248
   2   22250.0    449.4   0.070813024   1.04775   0.91187   0.43862   0.15449
   3   24027.1    416.2   0.055944445   0.76653  -0.60004   0.60384  -0.20459
   4   24312.5    411.3   0.134436967   1.82039  -0.02062  -1.10869  -0.76862
   5   25271.4    395.7   0.195902092   2.55202   1.44430  -0.68054   0.05363
   6   25599.7    390.6   0.293386663   3.77294  -1.30335  -1.14865  -0.86881
   7   27819.8    359.5   0.060786719   0.71933   0.84483  -0.06678  -0.03376
   8   28195.0    354.7   0.015804285   0.18453  -0.33960  -0.10982   0.23906
   9   28742.5    347.9   0.003652538   0.04184  -0.14461  -0.12614   0.07081
  10   29443.6    339.6   0.233189486   2.60732   1.52804  -0.36547  -0.37262
  11   29820.0    335.3   0.038367576   0.42358   0.33223   0.54523  -0.12620
  12   30494.8    327.9   0.041722564   0.45042   0.46365   0.30528   0.37717
  13   31346.3    319.0   0.086069687   0.90394   0.73999  -0.28450   0.52480
  14   31445.5    318.0   0.019609012   0.20529   0.29716   0.19235  -0.28282
  15   31561.3    316.8   0.131878338   1.37561   0.64675   0.59746   0.77483
  16   32218.1    310.4   0.160220502   1.63717   1.17166  -0.36310  -0.36407
  17   32509.8    307.6   0.030430371   0.30815   0.39829   0.38647   0.01274
  18   32830.0    304.6   0.126424141   1.26775   0.94823   0.30446   0.52528
  19   33149.7    301.7   0.061975606   0.61548  -0.49420   0.55371   0.25427
  20   33276.7    300.5   0.143209640   1.41680   1.06992   0.35092   0.38591
  21   33546.0    298.1   0.004232973   0.04154   0.07723   0.07286   0.17398
  22   33657.1    297.1   0.023252979   0.22745  -0.33353  -0.30428  -0.15369
  23   33863.3    295.3   0.029278272   0.28464  -0.01853  -0.45329   0.28075
  24   34236.1    292.1   0.036439065   0.35040   0.46601   0.28190  -0.23187
  25   34763.7    287.7   0.064037913   0.60644  -0.47392   0.48799  -0.37908
  26   35639.3    280.6   0.176215473   1.62776  -1.26504   0.13972   0.08900
  27   35891.1    278.6   0.293307339   2.69037   0.71537  -1.04359  -1.04380
  28   36297.8    275.5   0.051754758   0.46940   0.17175   0.43604  -0.49977
  29   36671.5    272.7   0.240649562   2.16039  -1.28179  -0.70178  -0.15783
  30   36743.5    272.2   0.451977519   4.04959   1.55366  -0.64146   1.10646
  31   36840.3    271.4   0.002585274   0.02310  -0.07924   0.01703   0.12858
  32   37061.3    269.8   0.007581136   0.06734  -0.23701  -0.09039   0.05476
  33   37266.0    268.3   0.043553891   0.38476  -0.02973  -0.17087  -0.59555
  34   37590.8    266.0   0.000628308   0.00550   0.07043  -0.01870   0.01388
  35   37811.7    264.5   0.066854412   0.58208   0.29173  -0.57056  -0.41404
  36   37834.6    264.3   0.264138191   2.29836   0.86064  -1.12837  -0.53332
  37   38188.1    261.9   0.217410659   1.87425   0.40177  -0.94130   0.90928
  38   38651.3    258.7   0.046619731   0.39708   0.00578  -0.41974  -0.46996
  39   39532.7    253.0   0.005743029   0.04783   0.13300   0.15926   0.06908
  40   39815.7    251.2   0.090804551   0.75081  -0.79686   0.33949   0.02376
  41   40203.4    248.7   0.058248415   0.47698  -0.67484   0.09509  -0.11191

-----------------------------------------------------------------------------
         ABSORPTION SPECTRUM VIA TRANSITION VELOCITY DIPOLE MOMENTS
-----------------------------------------------------------------------------
State   Energy  Wavelength   fosc         P2         PX        PY        PZ  
        (cm-1)    (nm)                  (au**2)     (au)      (au)      (au) 
-----------------------------------------------------------------------------
   0   16177.7    618.1   1.665487212   0.18415   0.26728  -0.33555   0.01076
   1   19485.1    513.2   1.213528297   0.16161  -0.15093  -0.34037  -0.15157
   2   22250.0    449.4   0.064311571   0.00978   0.08904   0.04018   0.01540
   3   24027.1    416.2   0.048942618   0.00804  -0.06104   0.06232  -0.02068
   4   24312.5    411.3   0.132038729   0.02194  -0.00440  -0.12028  -0.08633
   5   25271.4    395.7   0.185801000   0.03209   0.16185  -0.07666   0.00438
   6   25599.7    390.6   0.304518594   0.05328  -0.15492  -0.13686  -0.10270
   7   27819.8    359.5   0.052530837   0.00999   0.09945  -0.00893  -0.00428
   8   28195.0    354.7   0.015100405   0.00291  -0.03509  -0.02703   0.03079
   9   28742.5    347.9   0.004426125   0.00087  -0.02285  -0.01668   0.00833
  10   29443.6    339.6   0.227350082   0.04575   0.20140  -0.05225  -0.04958
  11   29820.0    335.3   0.036544571   0.00745   0.04435   0.07214  -0.01665
  12   30494.8    327.9   0.039962198   0.00833   0.06092   0.04294   0.05267
  13   31346.3    319.0   0.076216341   0.01633   0.09913  -0.03887   0.07065
  14   31445.5    318.0   0.017887008   0.00384   0.03849   0.03211  -0.03649
  15   31561.3    316.8   0.122243770   0.02637   0.09093   0.08157   0.10699
  16   32218.1    310.4   0.150384338   0.03311   0.16729  -0.05117  -0.05008
  17   32509.8    307.6   0.023827979   0.00529   0.05210   0.05080   0.00012
  18   32830.0    304.6   0.112288130   0.02519   0.13356   0.04075   0.07548
  19   33149.7    301.7   0.053380117   0.01209  -0.06975   0.07609   0.03793
  20   33276.7    300.5   0.129162737   0.02938   0.15463   0.04810   0.05615
  21   33546.0    298.1   0.004722374   0.00108   0.00955   0.01206   0.02909
  22   33657.1    297.1   0.021789443   0.00501  -0.04675  -0.04821  -0.02240
  23   33863.3    295.3   0.025574489   0.00592  -0.00338  -0.06504   0.04095
  24   34236.1    292.1   0.031933357   0.00747   0.06818   0.04044  -0.03446
  25   34763.7    287.7   0.051305760   0.01219  -0.06645   0.06831  -0.05575
  26   35639.3    280.6   0.157651206   0.03840  -0.19375   0.02549   0.01448
  27   35891.1    278.6   0.259086529   0.06355   0.10858  -0.16170  -0.16005
  28   36297.8    275.5   0.045569628   0.01130   0.02745   0.06749  -0.07744
  29   36671.5    272.7   0.207706714   0.05206  -0.19785  -0.11092  -0.02471
  30   36743.5    272.2   0.380355508   0.09552   0.23882  -0.09419   0.17207
  31   36840.3    271.4   0.003206638   0.00081  -0.01370   0.00279   0.02474
  32   37061.3    269.8   0.006587063   0.00167  -0.03745  -0.01498   0.00644
  33   37266.0    268.3   0.034349146   0.00875  -0.00740  -0.02178  -0.09066
  34   37590.8    266.0   0.000569712   0.00015   0.01187  -0.00234   0.00017
  35   37811.7    264.5   0.051940029   0.01342   0.04540  -0.08498  -0.06435
  36   37834.6    264.3   0.202144867   0.05227   0.13008  -0.16942  -0.08153
  37   38188.1    261.9   0.168475122   0.04397   0.06237  -0.14180   0.14133
  38   38651.3    258.7   0.034216211   0.00904   0.00125  -0.06233  -0.07178
  39   39532.7    253.0   0.004872818   0.00132   0.02357   0.02562   0.01021
  40   39815.7    251.2   0.071993410   0.01959  -0.13086   0.04962   0.00207
  41   40203.4    248.7   0.050138521   0.01378  -0.11492   0.01144  -0.02095

-------------------------------------------------------------------
                             CD SPECTRUM
-------------------------------------------------------------------
State   Energy Wavelength       R         MX        MY        MZ   
        (cm-1)   (nm)       (1e40*cgs)   (au)      (au)      (au)  
-------------------------------------------------------------------
   0   16177.7    618.1    252.77914   1.94814   1.76226  -0.30399
   1   19485.1    513.2    -354.53148  -1.16043  -3.13304   7.29285
   2   22250.0    449.4     48.93650  -0.08392   0.23333  -1.51094
   3   24027.1    416.2     13.66248  -0.78489  -0.77555   0.29631
   4   24312.5    411.3    -131.86218  -0.18906  -1.39683   1.29212
   5   25271.4    395.7    185.95773  -0.59625  -0.12465  -0.23399
   6   25599.7    390.6    -126.28360  -1.26235  -2.64918   4.77952
   7   27819.8    359.5      8.59496  -0.11587  -0.13354  -1.55543
   8   28195.0    354.7    175.74938   1.15256   1.51046  -0.78768
   9   28742.5    347.9    -11.26747   0.10404   0.01635   0.91668
  10   29443.6    339.6     46.62083  -1.07944  -1.36249  -2.55944
  11   29820.0    335.3      0.10836  -0.39578  -0.35834  -2.58630
  12   30494.8    327.9     29.11165  -0.11318   0.46740  -0.56663
  13   31346.3    319.0     71.48993  -0.83086   0.74762   0.99895
  14   31445.5    318.0    -102.38838  -0.04192  -0.83586  -2.14836
  15   31561.3    316.8     47.40270  -0.82364   1.45202  -0.69169
  16   32218.1    310.4    130.25444  -1.58910  -2.33468  -1.26783
  17   32509.8    307.6     42.19212  -0.24149  -0.15965  -1.65646
  18   32830.0    304.6     14.24644   0.12677   1.69855  -1.32844
  19   33149.7    301.7    -26.33483   0.67811   0.87594  -0.15016
  20   33276.7    300.5    222.52890  -0.41554   0.45859  -1.71119
  21   33546.0    298.1     16.15282   0.52789   0.33480  -0.76843
  22   33657.1    297.1     -3.28368  -0.27760  -0.68912   1.87616
  23   33863.3    295.3    -188.71910  -0.95832   0.00426   2.79527
  24   34236.1    292.1    -136.03410  -0.15544  -0.38659  -3.27123
  25   34763.7    287.7    -97.25480  -0.02534  -0.74116  -2.01079
  26   35639.3    280.6    384.77973   1.48402   1.21041   0.85258
  27   35891.1    278.6    -944.51863  -0.22772  -2.89849  -1.09694
  28   36297.8    275.5    -144.55661  -0.90084  -2.01609  -3.29563
  29   36671.5    272.7     90.57439  -0.03119  -0.27551   3.91281
  30   36743.5    272.2    304.79520  -1.98124   1.68854   2.59231
  31   36840.3    271.4      6.81554   0.44423   0.06541   0.04024
  32   37061.3    269.8     19.05000   0.27088   0.58713   0.66577
  33   37266.0    268.3    -25.43033  -1.06905  -2.49749   0.58876
  34   37590.8    266.0      3.66457  -0.11785   0.32734  -0.08108
  35   37811.7    264.5    -14.30437  -1.77417  -2.80909   2.47442
  36   37834.6    264.3      9.80568  -2.86702  -3.52363   2.90650
  37   38188.1    261.9    -76.18335  -0.30076   2.97150   3.56445
  38   38651.3    258.7    -40.96842  -1.26692  -2.29922   1.66811
  39   39532.7    253.0     30.16369  -0.61643  -0.37713   0.20392
  40   39815.7    251.2     46.40400   0.29123   0.07535   0.40516
  41   40203.4    248.7     99.04400   0.54457  -0.02574   0.44880

sTD-DFT done

Total run time:        4.754 sec

           *** ORCA-CIS/TD-DFT FINISHED WITHOUT ERROR ***

-------------------------   --------------------
FINAL SINGLE POINT ENERGY     -4729.439885361892
-------------------------   --------------------


                            ***************************************
                            *     ORCA property calculations      *
                            ***************************************

                                    ---------------------
                                    Active property flags
                                    ---------------------
   (+) Dipole Moment


------------------------------------------------------------------------------
                       ORCA ELECTRIC PROPERTIES CALCULATION
------------------------------------------------------------------------------

Dipole Moment Calculation                       ... on
Quadrupole Moment Calculation                   ... off
Polarizability Calculation                      ... off
GBWName                                         ... AQx.gbw
Electron density file                           ... AQx.scfp
The origin for moment calculation is the CENTER OF MASS  = (19.693371, -8.059692 -0.179028)

-------------
DIPOLE MOMENT
-------------
                                X             Y             Z
Electronic contribution:     60.33311      41.37618      27.10613
Nuclear contribution   :    -61.03389     -43.78333     -28.37273
                        -----------------------------------------
Total Dipole Moment    :     -0.70078      -2.40715      -1.26661
                        -----------------------------------------
Magnitude (a.u.)       :      2.80887
Magnitude (Debye)      :      7.13958



--------------------
Rotational spectrum 
--------------------
 
Rotational constants in cm-1:     0.001035     0.000336     0.000263 
Rotational constants in MHz :    31.030860    10.064146     7.879789 

 Dipole components along the rotational axes: 
x,y,z [a.u.] :     1.853390    -2.076784    -0.376376 
x,y,z [Debye]:     4.710943    -5.278765    -0.956671 

 

Timings for individual modules:

Sum of individual times         ...     4450.599 sec (=  74.177 min)
GTO integral calculation        ...        2.557 sec (=   0.043 min)   0.1 %
SCF iterations                  ...     4443.223 sec (=  74.054 min)  99.8 %
CIS module                      ...        4.819 sec (=   0.080 min)   0.1 %
                             ****ORCA TERMINATED NORMALLY****
TOTAL RUN TIME: 0 days 1 hours 14 minutes 11 seconds 173 msec
