
                                 *****************
                                 * O   R   C   A *
                                 *****************

           --- An Ab Initio, DFT and Semiempirical electronic structure package ---

                  #######################################################
                  #                        -***-                        #
                  #          Department of theory and spectroscopy      #
                  #               Directorship: Frank Neese             #
                  #        Max Planck Institute fuer Kohlenforschung    #
                  #                Kaiser Wilhelm Platz 1               #
                  #                 D-45470 Muelheim/Ruhr               #
                  #                      Germany                        #
                  #                                                     #
                  #                  All rights reserved                #
                  #                        -***-                        #
                  #######################################################


                         Program Version 4.2.0 -  RELEASE  -


 With contributions from (in alphabetic order):
   Daniel Aravena         : Magnetic Suceptibility
   Michael Atanasov       : Ab Initio Ligand Field Theory (pilot matlab implementation)
   Alexander A. Auer      : GIAO ZORA, VPT2
   Ute Becker             : Parallelization
   Giovanni Bistoni       : ED, misc. LED, open-shell LED, HFLED
   Martin Brehm           : Molecular dynamics
   Dmytro Bykov           : SCF Hessian
   Vijay G. Chilkuri      : MRCI spin determinant printing, contributions to CSF-ICE
   Dipayan Datta          : RHF DLPNO-CCSD density
   Achintya Kumar Dutta   : EOM-CC, STEOM-CC
   Dmitry Ganyushin       : Spin-Orbit,Spin-Spin,Magnetic field MRCI
   Miquel Garcia          : C-PCM Hessian, Gaussian charge scheme
   Yang Guo               : DLPNO-NEVPT2, CIM, IAO-localization
   Andreas Hansen         : Spin unrestricted coupled pair/coupled cluster methods
   Benjamin Helmich-Paris : CASSCF linear response (MC-RPA)
   Lee Huntington         : MR-EOM, pCC
   Robert Izsak           : Overlap fitted RIJCOSX, COSX-SCS-MP3, EOM
   Christian Kollmar      : KDIIS, OOCD, Brueckner-CCSD(T), CCSD density
   Simone Kossmann        : Meta GGA functionals, TD-DFT gradient, OOMP2, MP2 Hessian
   Martin Krupicka        : AUTO-CI
   Lucas Lang             : DCDCAS
   Dagmar Lenk            : GEPOL surface, SMD
   Dimitrios Liakos       : Extrapolation schemes; Compound Job, initial MDCI parallelization
   Dimitrios Manganas     : Further ROCIS development; embedding schemes
   Dimitrios Pantazis     : SARC Basis sets
   Taras Petrenko         : DFT Hessian,TD-DFT gradient, ASA, ECA, R-Raman, ABS, FL, XAS/XES, NRVS
   Peter Pinski           : DLPNO-MP2, DLPNO-MP2 Gradient
   Christoph Reimann      : Effective Core Potentials
   Marius Retegan         : Local ZFS, SOC
   Christoph Riplinger    : Optimizer, TS searches, QM/MM, DLPNO-CCSD(T), (RO)-DLPNO pert. Triples
   Tobias Risthaus        : Range-separated hybrids, TD-DFT gradient, RPA, STAB
   Michael Roemelt        : Original ROCIS implementation
   Masaaki Saitow         : Open-shell DLPNO-CCSD energy and density
   Barbara Sandhoefer     : DKH picture change effects
   Avijit Sen             : IP-ROCIS
   Kantharuban Sivalingam : CASSCF convergence, NEVPT2, FIC-MRCI
   Bernardo de Souza      : ESD, SOC TD-DFT
   Georgi Stoychev        : AutoAux, RI-MP2 NMR
   Willem Van den Heuvel  : Paramagnetic NMR
   Boris Wezisla          : Elementary symmetry handling
   Frank Wennmohs         : Technical directorship


 We gratefully acknowledge several colleagues who have allowed us to
 interface, adapt or use parts of their codes:
   Stefan Grimme, W. Hujo, H. Kruse,             : VdW corrections, initial TS optimization,
                  C. Bannwarth                     DFT functionals, gCP, sTDA/sTD-DF
   Ed Valeev, F. Pavosevic, A. Kumar             : LibInt (2-el integral package), F12 methods
   Garnet Chan, S. Sharma, J. Yang, R. Olivares  : DMRG
   Ulf Ekstrom                                   : XCFun DFT Library
   Mihaly Kallay                                 : mrcc  (arbitrary order and MRCC methods)
   Andreas Klamt, Michael Diedenhofen            : otool_cosmo (COSMO solvation model)
   Jiri Pittner, Ondrej Demel                    : Mk-CCSD
   Frank Weinhold                                : gennbo (NPA and NBO analysis)
   Christopher J. Cramer and Donald G. Truhlar   : smd solvation model
   Lars Goerigk                                  : TD-DFT with DH, B97 family of functionals
   V. Asgeirsson, H. Jonsson                     : NEB implementation
   FAccTs GmbH                                   : IRC, NEB, NEB-TS, Multilevel, MM, QM/MM, CI optimization
   S Lehtola, MJT Oliveira, MAL Marques          : LibXC Library


 Your calculation uses the libint2 library for the computation of 2-el integrals
 For citations please refer to: http://libint.valeyev.net

 Your ORCA version has been built with support for libXC version: 4.2.3
 For citations please refer to: https://tddft.org/programs/libxc/

 This ORCA versions uses:
   CBLAS   interface :  Fast vector & matrix operations
   LAPACKE interface :  Fast linear algebra routines
   SCALAPACK package :  Parallel linear algebra routines


XCFun DFT library Copyright 2009-2010 Ulf Ekstrom and contributors.
See http://admol.org/xcfun for more information. This is free soft-
ware; see the source code for copying conditions. There is ABSOLUTELY
NO WARRANTY; not even for MERCHANTABILITY or FITNESS FOR A PARTICULAR
PURPOSE. For details see the documentation. Scientific users of this 
library should cite U. Ekstrom, L. Visscher, R. Bast, A. J. Thorvald-
sen and K. Ruud; J.Chem.Theor.Comp. 2010, DOI: 10.1021/ct100117s
XCFun Version 0.99 
----- Orbital basis set information -----
Your calculation utilizes the basis: def2-SVP
   F. Weigend and R. Ahlrichs, Phys. Chem. Chem. Phys. 7, 3297 (2005).

----- AuxJ basis set information -----
Your calculation utilizes the auxiliary basis: def2/J
   F. Weigend, Phys. Chem. Chem. Phys. 8, 1057 (2006).

================================================================================
                                        WARNINGS
                       Please study these warnings very carefully!
================================================================================

INFO   : Checking CIS options ...

WARNING: CIS/ROCIS methods need fully converged wavefunctions
  ===> : Setting SCFConvForced true
         You can overwrite this default with %scf ConvForced false 


INFO   : the flag for use of LIBINT has been found!

================================================================================
                                       INPUT FILE
================================================================================
NAME = BCDT-4F.inp
|  1> # ORCA input file
|  2> # BCDT-4F.out
|  3> ! CAM-B3LYP def2-SVP def2/J RIJCOSX Grid4 TightSCF
|  4> %maxcore 5000
|  5> %tddft
|  6>     Mode sTDDFT
|  7>     Ethresh 5.0
|  8>     maxcore 5000
|  9> end
| 10> * xyz 0 1
| 11>    C        2.16853        -1.00581        -3.20400
| 12>    O        1.29800        -1.60117        -2.61176
| 13>    C        2.44873        -1.02692        -4.65940
| 14>    C        1.83193        -1.76842        -5.64674
| 15>    C        2.30402        -1.63288        -6.94307
| 16>    C        3.36563        -0.77467        -7.22801
| 17>    C        3.97853        -0.02055        -6.23768
| 18>    C        3.51084        -0.15054        -4.94067
| 19>    C        3.91303         0.51526        -3.69822
| 20>    C        4.61477         1.69462        -3.64067
| 21>    C        4.75340         2.47706        -2.47802
| 22>    N        4.87460         3.17320        -1.57294
| 23>    C        5.22152         2.30709        -4.75522
| 24>    N        5.76460         2.83498        -5.61802
| 25>    C        3.21795        -0.13767        -2.61913
| 26>    F        3.81116        -0.67535        -8.48602
| 27>    C        3.38626        -0.14006        -1.25735
| 28>    F        1.73792        -2.33643        -7.93161
| 29>    C       13.17198         4.42827        18.93658
| 30>    O       12.30804         5.19231        19.30202
| 31>    C       14.45298         4.12071        19.61835
| 32>    C       14.97205         4.67148        20.77242
| 33>    C       16.21802         4.23125        21.19190
| 34>    C       16.91360         3.26466        20.46662
| 35>    C       16.38716         2.70150        19.31297
| 36>    C       15.14334         3.13758        18.88881
| 37>    C       14.31247         2.72710        17.75423
| 38>    C       14.44931         1.54175        17.07267
| 39>    C       13.46416         1.02861        16.20874
| 40>    N       12.66931         0.55147        15.53082
| 41>    C       15.54315         0.66715        17.21739
| 42>    N       16.42820        -0.06297        17.26771
| 43>    C       13.19969         3.63665        17.68522
| 44>    F       18.12120         2.86918        20.88745
| 45>    C       12.27805         3.91295        16.70507
| 46>    F       16.76137         4.74249        22.30413
| 47>    C       12.32399         3.64341        15.33228
| 48>    S       10.85359         3.83965        14.38285
| 49>    C       11.69788         3.41703        12.96349
| 50>    C       13.06698         3.18316        13.19145
| 51>    C       13.40871         3.29326        14.52081
| 52>    C       11.41119         3.19671        11.60287
| 53>    C       12.58990         2.82288        10.95068
| 54>    C       13.76493         2.82658        11.90071
| 55>    S       10.04999         3.20592        10.55476
| 56>    C       11.07176         2.72183         9.21769
| 57>    C       12.39605         2.55777         9.60580
| 58>    C       10.48617         2.53048         7.92590
| 59>    C       11.21142         2.28787         6.74851
| 60>    C       10.56739         2.02315         5.51200
| 61>    C        9.18163         2.07924         5.34907
| 62>    C        8.43579         2.37222         6.51837
| 63>    C        9.07691         2.57900         7.78126
| 64>    N        7.11290         2.47090         6.60756
| 65>    S        6.70956         2.79561         8.12965
| 66>    N        8.19502         2.82293         8.74720
| 67>    C        8.50397         1.82021         4.11424
| 68>    S        6.78321         1.50709         4.12979
| 69>    C        6.81648         1.25272         2.43269
| 70>    C        8.08586         1.44855         1.87682
| 71>    C        9.03788         1.76183         2.83397
| 72>    C        5.92553         0.86656         1.41200
| 73>    C        6.62602         0.79942         0.19648
| 74>    C        8.06654         1.21395         0.38601
| 75>    S        4.27810         0.45840         1.24611
| 76>    C        4.49180         0.24626        -0.48948
| 77>    C        5.82086         0.45833        -0.86748
| 78>    O       12.56627         2.25749         6.83254
| 79>    O       11.35926         1.64499         4.44566
| 80>    C       13.35050         2.89630         5.82487
| 81>    C       14.46178         3.67383         6.51739
| 82>    C       11.64273         0.24697         4.42724
| 83>    C       12.39058        -0.07499         3.14545
| 84>    C        9.05535         0.11691        -0.03741
| 85>    C        8.82707        -1.19792         0.69924
| 86>    C        8.28311         2.51819        -0.41580
| 87>    C        9.58599         3.24636        -0.11632
| 88>    C       14.45098         1.45312        11.97308
| 89>    C       13.47398         0.32094        12.26651
| 90>    C       14.74200         3.93384        11.44527
| 91>    C       15.89913         4.20377        12.39747
| 92>    H        1.01110        -2.43127        -5.42423
| 93>    H        4.79628         0.62792        -6.50687
| 94>    H        2.55442        -0.57224        -0.70878
| 95>    H       14.43281         5.41807        21.33315
| 96>    H       16.96134         1.95737        18.78533
| 97>    H       11.42888         4.49777        17.04589
| 98>    H       14.40134         3.16784        14.91393
| 99>    H       13.15987         2.23609         8.92604
|100>    H       10.07683         1.94925         2.64092
|101>    H        6.16587         0.31159        -1.87518
|102>    H       12.72827         3.56882         5.22844
|103>    H       13.77970         2.13592         5.16358
|104>    H       14.03973         4.42011         7.18606
|105>    H       15.07680         4.17060         5.77253
|106>    H       15.08646         2.99899         7.09668
|107>    H       10.70077        -0.31708         4.47387
|108>    H       12.24662        -0.01944         5.30564
|109>    H       11.76147         0.12334         2.28223
|110>    H       12.67253        -1.12387         3.14314
|111>    H       13.28670         0.53529         3.07035
|112>    H       10.07027         0.46516         0.15775
|113>    H        8.95499        -0.04472        -1.11245
|114>    H        8.94493        -1.06405         1.77220
|115>    H        9.54517        -1.94295         0.36500
|116>    H        7.82567        -1.57787         0.51004
|117>    H        7.44521         3.18704        -0.20767
|118>    H        8.24241         2.26624        -1.47762
|119>    H        9.62088         3.56675         0.92119
|120>    H        9.65427         4.12972        -0.74655
|121>    H       10.45009         2.61959        -0.32128
|122>    H       15.20976         1.47713        12.75606
|123>    H       14.95039         1.26820        11.01946
|124>    H       12.98993         0.46616        13.22953
|125>    H       14.00620        -0.62672        12.29561
|126>    H       12.70733         0.26128        11.49754
|127>    H       14.17017         4.85606        11.31394
|128>    H       15.13601         3.64626        10.46825
|129>    H       15.53527         4.55664        13.35855
|130>    H       16.54101         4.97447        11.97662
|131>    H       16.50060         3.31260        12.55341
|132> *
|133> 
|134>                          ****END OF INPUT****
================================================================================

                       ****************************
                       * Single Point Calculation *
                       ****************************

---------------------------------
CARTESIAN COORDINATES (ANGSTROEM)
---------------------------------
  C      2.168530   -1.005810   -3.204000
  O      1.298000   -1.601170   -2.611760
  C      2.448730   -1.026920   -4.659400
  C      1.831930   -1.768420   -5.646740
  C      2.304020   -1.632880   -6.943070
  C      3.365630   -0.774670   -7.228010
  C      3.978530   -0.020550   -6.237680
  C      3.510840   -0.150540   -4.940670
  C      3.913030    0.515260   -3.698220
  C      4.614770    1.694620   -3.640670
  C      4.753400    2.477060   -2.478020
  N      4.874600    3.173200   -1.572940
  C      5.221520    2.307090   -4.755220
  N      5.764600    2.834980   -5.618020
  C      3.217950   -0.137670   -2.619130
  F      3.811160   -0.675350   -8.486020
  C      3.386260   -0.140060   -1.257350
  F      1.737920   -2.336430   -7.931610
  C     13.171980    4.428270   18.936580
  O     12.308040    5.192310   19.302020
  C     14.452980    4.120710   19.618350
  C     14.972050    4.671480   20.772420
  C     16.218020    4.231250   21.191900
  C     16.913600    3.264660   20.466620
  C     16.387160    2.701500   19.312970
  C     15.143340    3.137580   18.888810
  C     14.312470    2.727100   17.754230
  C     14.449310    1.541750   17.072670
  C     13.464160    1.028610   16.208740
  N     12.669310    0.551470   15.530820
  C     15.543150    0.667150   17.217390
  N     16.428200   -0.062970   17.267710
  C     13.199690    3.636650   17.685220
  F     18.121200    2.869180   20.887450
  C     12.278050    3.912950   16.705070
  F     16.761370    4.742490   22.304130
  C     12.323990    3.643410   15.332280
  S     10.853590    3.839650   14.382850
  C     11.697880    3.417030   12.963490
  C     13.066980    3.183160   13.191450
  C     13.408710    3.293260   14.520810
  C     11.411190    3.196710   11.602870
  C     12.589900    2.822880   10.950680
  C     13.764930    2.826580   11.900710
  S     10.049990    3.205920   10.554760
  C     11.071760    2.721830    9.217690
  C     12.396050    2.557770    9.605800
  C     10.486170    2.530480    7.925900
  C     11.211420    2.287870    6.748510
  C     10.567390    2.023150    5.512000
  C      9.181630    2.079240    5.349070
  C      8.435790    2.372220    6.518370
  C      9.076910    2.579000    7.781260
  N      7.112900    2.470900    6.607560
  S      6.709560    2.795610    8.129650
  N      8.195020    2.822930    8.747200
  C      8.503970    1.820210    4.114240
  S      6.783210    1.507090    4.129790
  C      6.816480    1.252720    2.432690
  C      8.085860    1.448550    1.876820
  C      9.037880    1.761830    2.833970
  C      5.925530    0.866560    1.412000
  C      6.626020    0.799420    0.196480
  C      8.066540    1.213950    0.386010
  S      4.278100    0.458400    1.246110
  C      4.491800    0.246260   -0.489480
  C      5.820860    0.458330   -0.867480
  O     12.566270    2.257490    6.832540
  O     11.359260    1.644990    4.445660
  C     13.350500    2.896300    5.824870
  C     14.461780    3.673830    6.517390
  C     11.642730    0.246970    4.427240
  C     12.390580   -0.074990    3.145450
  C      9.055350    0.116910   -0.037410
  C      8.827070   -1.197920    0.699240
  C      8.283110    2.518190   -0.415800
  C      9.585990    3.246360   -0.116320
  C     14.450980    1.453120   11.973080
  C     13.473980    0.320940   12.266510
  C     14.742000    3.933840   11.445270
  C     15.899130    4.203770   12.397470
  H      1.011100   -2.431270   -5.424230
  H      4.796280    0.627920   -6.506870
  H      2.554420   -0.572240   -0.708780
  H     14.432810    5.418070   21.333150
  H     16.961340    1.957370   18.785330
  H     11.428880    4.497770   17.045890
  H     14.401340    3.167840   14.913930
  H     13.159870    2.236090    8.926040
  H     10.076830    1.949250    2.640920
  H      6.165870    0.311590   -1.875180
  H     12.728270    3.568820    5.228440
  H     13.779700    2.135920    5.163580
  H     14.039730    4.420110    7.186060
  H     15.076800    4.170600    5.772530
  H     15.086460    2.998990    7.096680
  H     10.700770   -0.317080    4.473870
  H     12.246620   -0.019440    5.305640
  H     11.761470    0.123340    2.282230
  H     12.672530   -1.123870    3.143140
  H     13.286700    0.535290    3.070350
  H     10.070270    0.465160    0.157750
  H      8.954990   -0.044720   -1.112450
  H      8.944930   -1.064050    1.772200
  H      9.545170   -1.942950    0.365000
  H      7.825670   -1.577870    0.510040
  H      7.445210    3.187040   -0.207670
  H      8.242410    2.266240   -1.477620
  H      9.620880    3.566750    0.921190
  H      9.654270    4.129720   -0.746550
  H     10.450090    2.619590   -0.321280
  H     15.209760    1.477130   12.756060
  H     14.950390    1.268200   11.019460
  H     12.989930    0.466160   13.229530
  H     14.006200   -0.626720   12.295610
  H     12.707330    0.261280   11.497540
  H     14.170170    4.856060   11.313940
  H     15.136010    3.646260   10.468250
  H     15.535270    4.556640   13.358550
  H     16.541010    4.974470   11.976620
  H     16.500600    3.312600   12.553410

----------------------------
CARTESIAN COORDINATES (A.U.)
----------------------------
  NO LB      ZA    FRAG     MASS         X           Y           Z
   0 C     6.0000    0    12.011    4.097928   -1.900705   -6.054683
   1 O     8.0000    0    15.999    2.452865   -3.025773   -4.935511
   2 C     6.0000    0    12.011    4.627429   -1.940598   -8.804990
   3 C     6.0000    0    12.011    3.461846   -3.341829  -10.670792
   4 C     6.0000    0    12.011    4.353967   -3.085696  -13.120501
   5 C     6.0000    0    12.011    6.360119   -1.463914  -13.658959
   6 C     6.0000    0    12.011    7.518332   -0.038834  -11.787507
   7 C     6.0000    0    12.011    6.634526   -0.284479   -9.336513
   8 C     6.0000    0    12.011    7.394555    0.973700   -6.988623
   9 C     6.0000    0    12.011    8.720651    3.202368   -6.879869
  10 C     6.0000    0    12.011    8.982624    4.680965   -4.682779
  11 N     7.0000    0    14.007    9.211659    5.996479   -2.972426
  12 C     6.0000    0    12.011    9.867243    4.359768   -8.986064
  13 N     7.0000    0    14.007   10.893515    5.357336  -10.616519
  14 C     6.0000    0    12.011    6.081044   -0.260159   -4.949438
  15 F     9.0000    0    18.998    7.202049   -1.276227  -16.036254
  16 C     6.0000    0    12.011    6.399104   -0.264675   -2.376047
  17 F     9.0000    0    18.998    3.284193   -4.415213  -14.988571
  18 C     6.0000    0    12.011   24.891435    8.368218   35.784950
  19 O     8.0000    0    15.999   23.258825    9.812044   36.475532
  20 C     6.0000    0    12.011   27.312174    7.787013   37.073309
  21 C     6.0000    0    12.011   28.293074    8.827818   39.254185
  22 C     6.0000    0    12.011   30.647616    7.995904   40.046887
  23 C     6.0000    0    12.011   31.962072    6.169313   38.676307
  24 C     6.0000    0    12.011   30.967245    5.105095   36.496224
  25 C     6.0000    0    12.011   28.616765    5.929167   35.694678
  26 C     6.0000    0    12.011   27.046649    5.153472   33.550632
  27 C     6.0000    0    12.011   27.305239    2.913485   32.262671
  28 C     6.0000    0    12.011   25.443575    1.943791   30.630080
  29 N     7.0000    0    14.007   23.941526    1.042127   29.348996
  30 C     6.0000    0    12.011   29.372297    1.260731   32.536152
  31 N     7.0000    0    14.007   31.044799   -0.118996   32.631243
  32 C     6.0000    0    12.011   24.943799    6.872273   33.420222
  33 F     9.0000    0    18.998   34.244105    5.421964   39.471560
  34 C     6.0000    0    12.011   23.202152    7.394404   31.568007
  35 F     9.0000    0    18.998   31.674399    8.962007   42.148697
  36 C     6.0000    0    12.011   23.288966    6.885047   28.973810
  37 S    16.0000    0    32.060   20.510313    7.255887   27.179648
  38 C     6.0000    0    12.011   22.105790    6.457251   24.497446
  39 C     6.0000    0    12.011   24.693014    6.015301   24.928228
  40 C     6.0000    0    12.011   25.338790    6.223359   27.440354
  41 C     6.0000    0    12.011   21.564024    6.040906   21.926247
  42 C     6.0000    0    12.011   23.791463    5.334470   20.693786
  43 C     6.0000    0    12.011   26.011948    5.341462   22.489083
  44 S    16.0000    0    32.060   18.991729    6.058311   19.945606
  45 C     6.0000    0    12.011   20.922594    5.143513   17.418910
  46 C     6.0000    0    12.011   23.425140    4.833485   18.152331
  47 C     6.0000    0    12.011   19.815989    4.781914   14.977780
  48 C     6.0000    0    12.011   21.186513    4.323448   12.752836
  49 C     6.0000    0    12.011   19.969473    3.823199   10.416170
  50 C     6.0000    0    12.011   17.350766    3.929194   10.108277
  51 C     6.0000    0    12.011   15.941333    4.482846   12.317934
  52 C     6.0000    0    12.011   17.152874    4.873604   14.704450
  53 N     7.0000    0    14.007   13.441433    4.669324   12.486479
  54 S    16.0000    0    32.060   12.679231    5.282937   15.362812
  55 N     7.0000    0    14.007   15.486343    5.334565   16.529812
  56 C     6.0000    0    12.011   16.070174    3.439698    7.774787
  57 S    16.0000    0    32.060   12.818409    2.847987    7.804172
  58 C     6.0000    0    12.011   12.881280    2.367298    4.597118
  59 C     6.0000    0    12.011   15.280061    2.737363    3.546676
  60 C     6.0000    0    12.011   17.079118    3.329376    5.355427
  61 C     6.0000    0    12.011   11.197629    1.637561    2.668293
  62 C     6.0000    0    12.011   12.521363    1.510685    0.371293
  63 C     6.0000    0    12.011   15.243551    2.294033    0.729453
  64 S    16.0000    0    32.060    8.084437    0.866250    2.354807
  65 C     6.0000    0    12.011    8.488272    0.465364   -0.924983
  66 C     6.0000    0    12.011   10.999831    0.866118   -1.639300
  67 O     8.0000    0    15.999   23.746809    4.266038   12.911629
  68 O     8.0000    0    15.999   21.465890    3.108581    8.401080
  69 C     6.0000    0    12.011   25.228789    5.473214   11.007409
  70 C     6.0000    0    12.011   27.328804    6.942533   12.316082
  71 C     6.0000    0    12.011   22.001571    0.466706    8.366271
  72 C     6.0000    0    12.011   23.414803   -0.141711    5.944039
  73 C     6.0000    0    12.011   17.112132    0.220928   -0.070695
  74 C     6.0000    0    12.011   16.680745   -2.263741    1.321372
  75 C     6.0000    0    12.011   15.652809    4.758689   -0.785748
  76 C     6.0000    0    12.011   18.114896    6.134731   -0.219813
  77 C     6.0000    0    12.011   27.308395    2.745999   22.625842
  78 C     6.0000    0    12.011   25.462132    0.606489   23.180345
  79 C     6.0000    0    12.011   27.858343    7.433880   21.628426
  80 C     6.0000    0    12.011   30.045001    7.943974   23.427823
  81 H     1.0000    0     1.008    1.910702   -4.594434  -10.250309
  82 H     1.0000    0     1.008    9.063656    1.186597  -12.296202
  83 H     1.0000    0     1.008    4.827154   -1.081377   -1.339400
  84 H     1.0000    0     1.008   27.274058   10.238668   40.313811
  85 H     1.0000    0     1.008   32.052287    3.698893   35.499129
  86 H     1.0000    0     1.008   21.597453    8.499554   32.212064
  87 H     1.0000    0     1.008   27.214589    5.986350   28.183243
  88 H     1.0000    0     1.008   24.868550    4.225598   16.867771
  89 H     1.0000    0     1.008   19.042449    3.683549    4.990616
  90 H     1.0000    0     1.008   11.651806    0.588820   -3.543577
  91 H     1.0000    0     1.008   24.052944    6.744092    9.880320
  92 H     1.0000    0     1.008   26.039859    4.036304    9.757752
  93 H     1.0000    0     1.008   26.531245    8.352797   13.579685
  94 H     1.0000    0     1.008   28.491023    7.881292   10.908501
  95 H     1.0000    0     1.008   28.509278    5.667270   13.410782
  96 H     1.0000    0     1.008   20.221525   -0.599194    8.454389
  97 H     1.0000    0     1.008   23.142758   -0.036736   10.026207
  98 H     1.0000    0     1.008   22.225957    0.233079    4.312790
  99 H     1.0000    0     1.008   23.947611   -2.123807    5.939674
 100 H     1.0000    0     1.008   25.108224    1.011552    5.802121
 101 H     1.0000    0     1.008   19.030052    0.879025    0.298104
 102 H     1.0000    0     1.008   16.922479   -0.084509   -2.102226
 103 H     1.0000    0     1.008   16.903468   -2.010763    3.348973
 104 H     1.0000    0     1.008   18.037757   -3.671643    0.689750
 105 H     1.0000    0     1.008   14.788373   -2.981742    0.963836
 106 H     1.0000    0     1.008   14.069408    6.022633   -0.392439
 107 H     1.0000    0     1.008   15.575898    4.282573   -2.792297
 108 H     1.0000    0     1.008   18.180828    6.740181    1.740797
 109 H     1.0000    0     1.008   18.243926    7.804040   -1.410775
 110 H     1.0000    0     1.008   19.747808    4.950308   -0.607131
 111 H     1.0000    0     1.008   28.742281    2.791371   24.105460
 112 H     1.0000    0     1.008   28.252143    2.396551   20.823762
 113 H     1.0000    0     1.008   24.547410    0.880915   25.000189
 114 H     1.0000    0     1.008   26.467882   -1.184329   23.235336
 115 H     1.0000    0     1.008   24.013374    0.493748   21.727202
 116 H     1.0000    0     1.008   26.777741    9.176623   21.380248
 117 H     1.0000    0     1.008   28.602914    6.890433   19.782126
 118 H     1.0000    0     1.008   29.357406    8.610802   25.244001
 119 H     1.0000    0     1.008   31.257979    9.400386   22.632532
 120 H     1.0000    0     1.008   31.181615    6.259907   23.722507

--------------------------------
INTERNAL COORDINATES (ANGSTROEM)
--------------------------------
 C      0   0   0     0.000000000000     0.00000000     0.00000000
 O      1   0   0     1.209555384470     0.00000000     0.00000000
 C      1   2   0     1.482277582675   127.57472310     0.00000000
 C      3   1   2     1.380255326235   128.72163874   356.57578162
 C      4   3   1     1.386258103168   117.65963425   181.58598278
 C      5   4   3     1.394536123519   120.69650445     0.00000000
 C      6   5   4     1.387478610033   121.66311905   359.43246108
 C      7   6   5     1.384870490804   117.92280159     0.49792691
 C      8   7   6     1.465854166894   131.18765658   181.62988546
 C      9   8   7     1.373550523170   124.44951053    19.10234917
 C     10   9   8     1.408256245504   124.19022501   165.79748983
 N     11  10   9     1.148246552793   176.36990749   206.94265176
 C     10   9   8     1.409073016525   124.06003363   349.47846887
 N     13  10   9     1.148053822127   176.38019968   208.30952721
 C      9   8   7     1.440100350462   107.26272919   187.85441410
 F      6   5   4     1.338264026043   119.41836357   179.21753902
 C     15   9   8     1.372143846905   133.25462446   164.65359733
 F      5   4   3     1.338903709794   119.67372999   179.79172735
 C     12  11  10    22.159921619891   143.45430373   215.57490300
 O     19  12  11     1.209832979712    92.74828827   211.51224138
 C     19  12  11     1.483362560705   137.47554842    48.94210395
 C     21  19  12     1.380093773155   128.78469293   154.54662540
 C     22  21  19     1.386436859074   117.66465331   181.52521526
 C     23  22  21     1.394330966055   120.73434757   359.94697267
 C     24  23  22     1.387514533870   121.64003994   359.45557619
 C     25  24  23     1.384617515562   117.88549065     0.55341597
 C     26  25  24     1.464960942722   131.18503727   181.79416996
 C     27  26  25     1.374155683211   124.70494480    19.25077979
 C     28  27  26     1.407198716244   123.32168890   164.49642722
 N     29  28  27     1.148487974904   176.75627298   224.44205337
 C     28  27  26     1.407961286400   124.20922033   348.52549797
 N     31  28  27     1.148442780159   176.50077912   213.19207436
 C     27  26  25     1.438861671948   107.37663922   187.64703213
 F     24  23  22     1.338581368203   119.42800166   179.27609742
 C     33  27  26     1.373483164112   132.87053000   164.40996460
 F     23  22  21     1.339272613399   119.64732573   179.76808441
 C     35  33  27     1.399755221208   129.72592770   341.60957788
 S     37  35  33     1.761250584812   118.67400697   168.25093585
 C     38  37  35     1.704704102799    90.44281228   178.10791510
 C     39  38  37     1.407514031369   112.83614849   357.77445418
 C     40  39  38     1.376989256494   112.61086893     2.55266519
 C     39  38  37     1.407841909768   137.95572157   175.72068974
 C     42  39  38     1.398019287814   108.72438203   181.93975137
 C     40  39  38     1.510063987552   110.51082605   180.53755710
 S     42  39  38     1.717988601883   138.60113928   359.34802181
 C     45  42  39     1.751032051648    90.11627034   182.00205511
 C     43  42  39     1.384399996027   112.72698882   178.74574252
 C     46  45  42     1.431171504293   119.17162325   179.71879192
 C     48  46  45     1.403956689752   124.65873490   172.68470693
 C     49  48  46     1.419087135943   121.90570079   175.96800543
 C     50  49  48     1.396432257791   122.99305593     4.80018009
 C     51  50  49     1.417524982496   115.73392589   357.73713477
 C     48  46  45     1.417493798082   119.62470219   352.55430819
 N     52  51  50     1.329560284681   126.45507984   180.31554886
 S     54  52  51     1.607755487566   109.15414376   179.17302970
 N     53  48  46     1.330515652144   126.23966359     1.68966787
 C     51  50  49     1.432174830599   124.25563691   179.86333684
 S     57  51  50     1.749085736749   119.35495520   163.89124085
 C     58  57  51     1.716379736480    89.92382581   182.44450143
 C     59  58  57     1.399523644030   112.92760149   357.90708196
 C     60  59  58     1.385865275306   112.35745609     1.96459901
 C     59  58  57     1.408800739707   138.13640622   176.07638326
 C     62  59  58     1.404522299609   108.94779905   182.40365690
 C     60  59  58     1.509279589241   111.03660395   179.98501103
 S     62  59  58     1.705326855063   138.33379795     1.89939688
 C     17  15   9     1.400387864450   129.83213713   342.76189175
 C     63  62  59     1.377184045544   112.88334513   181.47053583
 O     49  48  46     1.357793249284   117.86710987   358.66082024
 O     50  49  48     1.380993873303   117.62355280   187.32331710
 C     68  49  48     1.427758291133   119.62979685   222.42720791
 C     70  68  49     1.522852615882   107.95779070   135.76383013
 C     69  50  49     1.426588398137   113.09498560    84.50843209
 C     72  69  50     1.518526742669   108.45340378   174.18302147
 C     64  60  59     1.536400492743   112.02241593   237.98627200
 C     74  64  60     1.524317194615   112.72668204    55.34450937
 C     64  60  59     1.546235369729   112.29071605   111.38302263
 C     76  64  60     1.522306182639   114.91864224    58.42035416
 C     44  40  39     1.536975728826   112.15263977   238.11838802
 C     78  44  40     1.523962505215   112.75472407    59.66942421
 C     44  40  39     1.545353061957   112.02115073   111.40223215
 C     80  44  40     1.522661118503   115.03676588    62.80858704
 H      4   3   1     1.078259111485   121.52157377     1.60809396
 H      7   6   5     1.077818008525   118.93991446   179.93350181
 H     17  15   9     1.086124478547   114.07957191   167.40837694
 H     22  21  19     1.078236772977   121.54085065     1.54328608
 H     25  24  23     1.077875734443   119.01922854   180.01197954
 H     35  33  27     1.085938485228   114.14746773   167.07226991
 H     41  40  39     1.074982710419   124.95135046   180.88488838
 H     47  43  42     1.071901428491   125.01209090   181.35198550
 H     61  60  59     1.073224888549   125.46842676   179.70799748
 H     67  63  62     1.075185480603   124.76909657   182.77236915
 H     70  68  49     1.093243828338   110.34376302    14.97750422
 H     70  68  49     1.095305824188   109.31344335   255.48070070
 H     71  70  68     1.087280832996   110.29489388   300.07296735
 H     71  70  68     1.086207371039   109.56326514   179.93368442
 H     71  70  68     1.086835328879   110.16888369    60.13945684
 H     72  69  50     1.098915556810   109.39797691    53.67168850
 H     72  69  50     1.098746549574   109.66382063   295.12207703
 H     73  72  69     1.086399074650   110.29199207   296.24814288
 H     73  72  69     1.086117117534   109.53566689   176.32809937
 H     73  72  69     1.086790109819   110.20323887    56.22685773
 H     74  64  60     1.090609047505   108.75997769   294.13339512
 H     74  64  60     1.091745111324   108.53737898   176.86767963
 H     75  74  64     1.087683464111   110.75255237   299.66602680
 H     75  74  64     1.087406864288   110.09292854   179.77088101
 H     75  74  64     1.087639923182   110.80222968    59.90249429
 H     76  64  60     1.092133155526   108.07710287   296.41526033
 H     76  64  60     1.092060897981   107.72048515   180.73300460
 H     77  76  64     1.086413394754   110.88060121   297.56673345
 H     77  76  64     1.087279587273   109.16791555   178.48476799
 H     77  76  64     1.086976561155   111.55912546    59.18524915
 H     78  44  40     1.090587570487   108.94683013   298.62890341
 H     78  44  40     1.092243955763   108.31694564   181.13835626
 H     79  78  44     1.087566444545   110.89331457   298.73829273
 H     79  78  44     1.087273844990   109.80752830   179.34548329
 H     79  78  44     1.087486275316   110.88913244    59.53197015
 H     80  44  40     1.093035610673   108.00940526   301.01432496
 H     80  44  40     1.092022992844   107.64473786   185.02230329
 H     81  80  44     1.086547791356   110.86864844   297.46625643
 H     81  80  44     1.087705450432   109.39680036   178.41010553
 H     81  80  44     1.086401129142   111.41208261    58.99421348

---------------------------
INTERNAL COORDINATES (A.U.)
---------------------------
 C      0   0   0     0.000000000000     0.00000000     0.00000000
 O      1   0   0     2.285728420458     0.00000000     0.00000000
 C      1   2   0     2.801098685706   127.57472310     0.00000000
 C      3   1   2     2.608304561470   128.72163874   356.57578162
 C      4   3   1     2.619648165917   117.65963425   181.58598278
 C      5   4   3     2.635291357311   120.69650445     0.00000000
 C      6   5   4     2.621954589637   121.66311905   359.43246108
 C      7   6   5     2.617025958569   117.92280159     0.49792691
 C      8   7   6     2.770062927697   131.18765658   181.62988546
 C      9   8   7     2.595634319895   124.44951053    19.10234917
 C     10   9   8     2.661218630386   124.19022501   165.79748983
 N     11  10   9     2.169871518997   176.36990749   206.94265176
 C     10   9   8     2.662762103931   124.06003363   349.47846887
 N     13  10   9     2.169507310821   176.38019968   208.30952721
 C      9   8   7     2.721395267737   107.26272919   187.85441410
 F      6   5   4     2.528952504100   119.41836357   179.21753902
 C     15   9   8     2.592976086996   133.25462446   164.65359733
 F      5   4   3     2.530161331202   119.67372999   179.79172735
 C     12  11  10    41.876183010754   143.45430373   215.57490300
 O     19  12  11     2.286252999443    92.74828827   211.51224138
 C     19  12  11     2.803148997044   137.47554842    48.94210395
 C     21  19  12     2.607999270392   128.78469293   154.54662540
 C     22  21  19     2.619985965625   117.66465331   181.52521526
 C     23  22  21     2.634903665890   120.73434757   359.94697267
 C     24  23  22     2.622022475849   121.64003994   359.45557619
 C     25  24  23     2.616547904642   117.88549065     0.55341597
 C     26  25  24     2.768374978635   131.18503727   181.79416996
 C     27  26  25     2.596777906639   124.70494480    19.25077979
 C     28  27  26     2.659220189708   123.32168890   164.49642722
 N     29  28  27     2.170327740671   176.75627298   224.44205337
 C     28  27  26     2.660661238459   124.20922033   348.52549797
 N     31  28  27     2.170242334980   176.50077912   213.19207436
 C     27  26  25     2.719054504577   107.37663922   187.64703213
 F     24  23  22     2.529552193873   119.42800166   179.27609742
 C     33  27  26     2.595507029724   132.87053000   164.40996460
 F     23  22  21     2.530858457985   119.64732573   179.76808441
 C     35  33  27     2.645154022610   129.72592770   341.60957788
 S     37  35  33     3.328281258503   118.67400697   168.25093585
 C     38  37  35     3.221423893662    90.44281228   178.10791510
 C     39  38  37     2.659816048938   112.83614849   357.77445418
 C     40  39  38     2.602132584126   112.61086893     2.55266519
 C     39  38  37     2.660435649319   137.95572157   175.72068974
 C     42  39  38     2.641873583908   108.72438203   181.93975137
 C     40  39  38     2.853607381169   110.51082605   180.53755710
 S     42  39  38     3.246527958757   138.60113928   359.34802181
 C     45  42  39     3.308971029334    90.11627034   182.00205511
 C     43  42  39     2.616136852293   112.72698882   178.74574252
 C     46  45  42     2.704522193786   119.17162325   179.71879192
 C     48  46  45     2.653093647518   124.65873490   172.68470693
 C     49  48  46     2.681686047104   121.90570079   175.96800543
 C     50  49  48     2.638874531799   122.99305593     4.80018009
 C     51  50  49     2.678734004909   115.73392589   357.73713477
 C     48  46  45     2.678675074906   119.62470219   352.55430819
 N     52  51  50     2.512504816585   126.45507984   180.31554886
 S     54  52  51     3.038217561810   109.15414376   179.17302970
 N     53  48  46     2.514310199448   126.23966359     1.68966787
 C     51  50  49     2.706418205726   124.25563691   179.86333684
 S     57  51  50     3.305293027204   119.35495520   163.89124085
 C     58  57  51     3.243487643760    89.92382581   182.44450143
 C     59  58  57     2.644716405165   112.92760149   357.90708196
 C     60  59  58     2.618905828840   112.35745609     1.96459901
 C     59  58  57     2.662247575313   138.13640622   176.07638326
 C     62  59  58     2.654162495247   108.94779905   182.40365690
 C     60  59  58     2.852125083183   111.03660395   179.98501103
 S     62  59  58     3.222600724891   138.33379795     1.89939688
 C     17  15   9     2.646349545078   129.83213713   342.76189175
 C     63  62  59     2.602500682083   112.88334513   181.47053583
 O     49  48  46     2.565857387633   117.86710987   358.66082024
 O     50  49  48     2.609700213166   117.62355280   187.32331710
 C     68  49  48     2.698072155677   119.62979685   222.42720791
 C     70  68  49     2.877774386343   107.95779070   135.76383013
 C     69  50  49     2.695861378309   113.09498560    84.50843209
 C     72  69  50     2.869599670679   108.45340378   174.18302147
 C     64  60  59     2.903376163305   112.02241593   237.98627200
 C     74  64  60     2.880542039050   112.72668204    55.34450937
 C     64  60  59     2.921961387370   112.29071605   111.38302263
 C     76  64  60     2.876741777162   114.91864224    58.42035416
 C     44  40  39     2.904463201965   112.15263977   238.11838802
 C     78  44  40     2.879871773220   112.75472407    59.66942421
 C     44  40  39     2.920294067315   112.02115073   111.40223215
 C     80  44  40     2.877412508740   115.03676588    62.80858704
 H      4   3   1     2.037614422112   121.52157377     1.60809396
 H      7   6   5     2.036780858320   118.93991446   179.93350181
 H     17  15   9     2.052477811803   114.07957191   167.40837694
 H     22  21  19     2.037572208450   121.54085065     1.54328608
 H     25  24  23     2.036889944496   119.01922854   180.01197954
 H     35  33  27     2.052126335367   114.14746773   167.07226991
 H     41  40  39     2.031422921392   124.95135046   180.88488838
 H     47  43  42     2.025600142406   125.01209090   181.35198550
 H     61  60  59     2.028101119465   125.46842676   179.70799748
 H     67  63  62     2.031806101509   124.76909657   182.77236915
 H     70  68  49     2.065931433159   110.34376302    14.97750422
 H     70  68  49     2.069828040604   109.31344335   255.48070070
 H     71  70  68     2.054663005024   110.29489388   300.07296735
 H     71  70  68     2.052634455911   109.56326514   179.93368442
 H     71  70  68     2.053821124252   110.16888369    60.13945684
 H     72  69  50     2.076649446677   109.39797691    53.67168850
 H     72  69  50     2.076330069285   109.66382063   295.12207703
 H     73  72  69     2.052996723234   110.29199207   296.24814288
 H     73  72  69     2.052463901503   109.53566689   176.32809937
 H     73  72  69     2.053735672612   110.20323887    56.22685773
 H     74  64  60     2.060952418961   108.75997769   294.13339512
 H     74  64  60     2.063099268450   108.53737898   176.86767963
 H     75  74  64     2.055423867564   110.75255237   299.66602680
 H     75  74  64     2.054901169650   110.09292854   179.77088101
 H     75  74  64     2.055341587134   110.80222968    59.90249429
 H     76  64  60     2.063832565720   108.07710287   296.41526033
 H     76  64  60     2.063696018749   107.72048515   180.73300460
 H     77  76  64     2.053023784308   110.88060121   297.56673345
 H     77  76  64     2.054660650948   109.16791555   178.48476799
 H     77  76  64     2.054088014574   111.55912546    59.18524915
 H     78  44  40     2.060911833278   108.94683013   298.62890341
 H     78  44  40     2.064041947822   108.31694564   181.13835626
 H     79  78  44     2.055202732632   110.89331457   298.73829273
 H     79  78  44     2.054649799607   109.80752830   179.34548329
 H     79  78  44     2.055051234745   110.88913244    59.53197015
 H     80  44  40     2.065537958796   108.00940526   301.01432496
 H     80  44  40     2.063624388420   107.64473786   185.02230329
 H     81  80  44     2.053277757079   110.86864844   297.46625643
 H     81  80  44     2.055465415690   109.39680036   178.41010553
 H     81  80  44     2.053000605660   111.41208261    58.99421348

---------------------
BASIS SET INFORMATION
---------------------
There are 6 groups of distinct atoms

 Group   1 Type C   : 7s4p1d contracted to 3s2p1d pattern {511/31/1}
 Group   2 Type O   : 7s4p1d contracted to 3s2p1d pattern {511/31/1}
 Group   3 Type N   : 7s4p1d contracted to 3s2p1d pattern {511/31/1}
 Group   4 Type F   : 7s4p1d contracted to 3s2p1d pattern {511/31/1}
 Group   5 Type S   : 10s7p1d contracted to 4s3p1d pattern {5311/511/1}
 Group   6 Type H   : 4s1p contracted to 2s1p pattern {31/1}

Atom   0C    basis set group =>   1
Atom   1O    basis set group =>   2
Atom   2C    basis set group =>   1
Atom   3C    basis set group =>   1
Atom   4C    basis set group =>   1
Atom   5C    basis set group =>   1
Atom   6C    basis set group =>   1
Atom   7C    basis set group =>   1
Atom   8C    basis set group =>   1
Atom   9C    basis set group =>   1
Atom  10C    basis set group =>   1
Atom  11N    basis set group =>   3
Atom  12C    basis set group =>   1
Atom  13N    basis set group =>   3
Atom  14C    basis set group =>   1
Atom  15F    basis set group =>   4
Atom  16C    basis set group =>   1
Atom  17F    basis set group =>   4
Atom  18C    basis set group =>   1
Atom  19O    basis set group =>   2
Atom  20C    basis set group =>   1
Atom  21C    basis set group =>   1
Atom  22C    basis set group =>   1
Atom  23C    basis set group =>   1
Atom  24C    basis set group =>   1
Atom  25C    basis set group =>   1
Atom  26C    basis set group =>   1
Atom  27C    basis set group =>   1
Atom  28C    basis set group =>   1
Atom  29N    basis set group =>   3
Atom  30C    basis set group =>   1
Atom  31N    basis set group =>   3
Atom  32C    basis set group =>   1
Atom  33F    basis set group =>   4
Atom  34C    basis set group =>   1
Atom  35F    basis set group =>   4
Atom  36C    basis set group =>   1
Atom  37S    basis set group =>   5
Atom  38C    basis set group =>   1
Atom  39C    basis set group =>   1
Atom  40C    basis set group =>   1
Atom  41C    basis set group =>   1
Atom  42C    basis set group =>   1
Atom  43C    basis set group =>   1
Atom  44S    basis set group =>   5
Atom  45C    basis set group =>   1
Atom  46C    basis set group =>   1
Atom  47C    basis set group =>   1
Atom  48C    basis set group =>   1
Atom  49C    basis set group =>   1
Atom  50C    basis set group =>   1
Atom  51C    basis set group =>   1
Atom  52C    basis set group =>   1
Atom  53N    basis set group =>   3
Atom  54S    basis set group =>   5
Atom  55N    basis set group =>   3
Atom  56C    basis set group =>   1
Atom  57S    basis set group =>   5
Atom  58C    basis set group =>   1
Atom  59C    basis set group =>   1
Atom  60C    basis set group =>   1
Atom  61C    basis set group =>   1
Atom  62C    basis set group =>   1
Atom  63C    basis set group =>   1
Atom  64S    basis set group =>   5
Atom  65C    basis set group =>   1
Atom  66C    basis set group =>   1
Atom  67O    basis set group =>   2
Atom  68O    basis set group =>   2
Atom  69C    basis set group =>   1
Atom  70C    basis set group =>   1
Atom  71C    basis set group =>   1
Atom  72C    basis set group =>   1
Atom  73C    basis set group =>   1
Atom  74C    basis set group =>   1
Atom  75C    basis set group =>   1
Atom  76C    basis set group =>   1
Atom  77C    basis set group =>   1
Atom  78C    basis set group =>   1
Atom  79C    basis set group =>   1
Atom  80C    basis set group =>   1
Atom  81H    basis set group =>   6
Atom  82H    basis set group =>   6
Atom  83H    basis set group =>   6
Atom  84H    basis set group =>   6
Atom  85H    basis set group =>   6
Atom  86H    basis set group =>   6
Atom  87H    basis set group =>   6
Atom  88H    basis set group =>   6
Atom  89H    basis set group =>   6
Atom  90H    basis set group =>   6
Atom  91H    basis set group =>   6
Atom  92H    basis set group =>   6
Atom  93H    basis set group =>   6
Atom  94H    basis set group =>   6
Atom  95H    basis set group =>   6
Atom  96H    basis set group =>   6
Atom  97H    basis set group =>   6
Atom  98H    basis set group =>   6
Atom  99H    basis set group =>   6
Atom 100H    basis set group =>   6
Atom 101H    basis set group =>   6
Atom 102H    basis set group =>   6
Atom 103H    basis set group =>   6
Atom 104H    basis set group =>   6
Atom 105H    basis set group =>   6
Atom 106H    basis set group =>   6
Atom 107H    basis set group =>   6
Atom 108H    basis set group =>   6
Atom 109H    basis set group =>   6
Atom 110H    basis set group =>   6
Atom 111H    basis set group =>   6
Atom 112H    basis set group =>   6
Atom 113H    basis set group =>   6
Atom 114H    basis set group =>   6
Atom 115H    basis set group =>   6
Atom 116H    basis set group =>   6
Atom 117H    basis set group =>   6
Atom 118H    basis set group =>   6
Atom 119H    basis set group =>   6
Atom 120H    basis set group =>   6
---------------------------------
AUXILIARY/J BASIS SET INFORMATION
---------------------------------
There are 6 groups of distinct atoms

 Group   1 Type C   : 12s5p4d2f1g contracted to 6s4p3d1f1g pattern {711111/2111/211/2/1}
 Group   2 Type O   : 12s5p4d2f1g contracted to 6s4p3d1f1g pattern {711111/2111/211/2/1}
 Group   3 Type N   : 12s5p4d2f1g contracted to 6s4p3d1f1g pattern {711111/2111/211/2/1}
 Group   4 Type F   : 12s5p4d2f1g contracted to 6s4p3d1f1g pattern {711111/2111/211/2/1}
 Group   5 Type S   : 14s5p5d2f1g contracted to 8s4p3d1f1g pattern {71111111/2111/311/2/1}
 Group   6 Type H   : 5s2p1d contracted to 3s1p1d pattern {311/2/1}

Atom   0C    basis set group =>   1
Atom   1O    basis set group =>   2
Atom   2C    basis set group =>   1
Atom   3C    basis set group =>   1
Atom   4C    basis set group =>   1
Atom   5C    basis set group =>   1
Atom   6C    basis set group =>   1
Atom   7C    basis set group =>   1
Atom   8C    basis set group =>   1
Atom   9C    basis set group =>   1
Atom  10C    basis set group =>   1
Atom  11N    basis set group =>   3
Atom  12C    basis set group =>   1
Atom  13N    basis set group =>   3
Atom  14C    basis set group =>   1
Atom  15F    basis set group =>   4
Atom  16C    basis set group =>   1
Atom  17F    basis set group =>   4
Atom  18C    basis set group =>   1
Atom  19O    basis set group =>   2
Atom  20C    basis set group =>   1
Atom  21C    basis set group =>   1
Atom  22C    basis set group =>   1
Atom  23C    basis set group =>   1
Atom  24C    basis set group =>   1
Atom  25C    basis set group =>   1
Atom  26C    basis set group =>   1
Atom  27C    basis set group =>   1
Atom  28C    basis set group =>   1
Atom  29N    basis set group =>   3
Atom  30C    basis set group =>   1
Atom  31N    basis set group =>   3
Atom  32C    basis set group =>   1
Atom  33F    basis set group =>   4
Atom  34C    basis set group =>   1
Atom  35F    basis set group =>   4
Atom  36C    basis set group =>   1
Atom  37S    basis set group =>   5
Atom  38C    basis set group =>   1
Atom  39C    basis set group =>   1
Atom  40C    basis set group =>   1
Atom  41C    basis set group =>   1
Atom  42C    basis set group =>   1
Atom  43C    basis set group =>   1
Atom  44S    basis set group =>   5
Atom  45C    basis set group =>   1
Atom  46C    basis set group =>   1
Atom  47C    basis set group =>   1
Atom  48C    basis set group =>   1
Atom  49C    basis set group =>   1
Atom  50C    basis set group =>   1
Atom  51C    basis set group =>   1
Atom  52C    basis set group =>   1
Atom  53N    basis set group =>   3
Atom  54S    basis set group =>   5
Atom  55N    basis set group =>   3
Atom  56C    basis set group =>   1
Atom  57S    basis set group =>   5
Atom  58C    basis set group =>   1
Atom  59C    basis set group =>   1
Atom  60C    basis set group =>   1
Atom  61C    basis set group =>   1
Atom  62C    basis set group =>   1
Atom  63C    basis set group =>   1
Atom  64S    basis set group =>   5
Atom  65C    basis set group =>   1
Atom  66C    basis set group =>   1
Atom  67O    basis set group =>   2
Atom  68O    basis set group =>   2
Atom  69C    basis set group =>   1
Atom  70C    basis set group =>   1
Atom  71C    basis set group =>   1
Atom  72C    basis set group =>   1
Atom  73C    basis set group =>   1
Atom  74C    basis set group =>   1
Atom  75C    basis set group =>   1
Atom  76C    basis set group =>   1
Atom  77C    basis set group =>   1
Atom  78C    basis set group =>   1
Atom  79C    basis set group =>   1
Atom  80C    basis set group =>   1
Atom  81H    basis set group =>   6
Atom  82H    basis set group =>   6
Atom  83H    basis set group =>   6
Atom  84H    basis set group =>   6
Atom  85H    basis set group =>   6
Atom  86H    basis set group =>   6
Atom  87H    basis set group =>   6
Atom  88H    basis set group =>   6
Atom  89H    basis set group =>   6
Atom  90H    basis set group =>   6
Atom  91H    basis set group =>   6
Atom  92H    basis set group =>   6
Atom  93H    basis set group =>   6
Atom  94H    basis set group =>   6
Atom  95H    basis set group =>   6
Atom  96H    basis set group =>   6
Atom  97H    basis set group =>   6
Atom  98H    basis set group =>   6
Atom  99H    basis set group =>   6
Atom 100H    basis set group =>   6
Atom 101H    basis set group =>   6
Atom 102H    basis set group =>   6
Atom 103H    basis set group =>   6
Atom 104H    basis set group =>   6
Atom 105H    basis set group =>   6
Atom 106H    basis set group =>   6
Atom 107H    basis set group =>   6
Atom 108H    basis set group =>   6
Atom 109H    basis set group =>   6
Atom 110H    basis set group =>   6
Atom 111H    basis set group =>   6
Atom 112H    basis set group =>   6
Atom 113H    basis set group =>   6
Atom 114H    basis set group =>   6
Atom 115H    basis set group =>   6
Atom 116H    basis set group =>   6
Atom 117H    basis set group =>   6
Atom 118H    basis set group =>   6
Atom 119H    basis set group =>   6
Atom 120H    basis set group =>   6
------------------------------------------------------------------------------
                           ORCA GTO INTEGRAL CALCULATION
                           -- RI-GTO INTEGRALS CHOSEN --
------------------------------------------------------------------------------

                         BASIS SET STATISTICS AND STARTUP INFO

Gaussian basis set:
 # of primitive gaussian shells          ... 1202
 # of primitive gaussian functions       ... 2284
 # of contracted shells                  ...  616
 # of contracted basis functions         ... 1354
 Highest angular momentum                ...    2
 Maximum contraction depth               ...    5
Auxiliary gaussian basis set:
 # of primitive gaussian shells          ... 2279
 # of primitive gaussian functions       ... 6345
 # of contracted shells                  ... 1425
 # of contracted aux-basis functions     ... 4419
 Highest angular momentum                ...    4
 Maximum contraction depth               ...    7
Ratio of auxiliary to basis functions    ...  3.26
Integral package used                  ... LIBINT
 One Electron integrals                  ... done
 Ordering auxiliary basis shells         ... done
 Integral threshhold             Thresh  ...  2.500e-11
 Primitive cut-off               TCut    ...  2.500e-12
 Pre-screening matrix                    ... done
 Shell pair data                         ... 
 Ordering of the shell pairs             ... done (   0.013 sec) 60416 of 190036 pairs
 Determination of significant pairs      ... done (   0.000 sec)
 Creation of shell pair data             ... done (   0.008 sec)
 Storage of shell pair data              ... done (   0.013 sec)
 Shell pair data done in (   0.035 sec)
 Computing two index integrals           ... done
 Cholesky decomposition of the V-matrix  ... done


Timings:
 Total evaluation time                   ...   2.900 sec (  0.048 min)
 One electron matrix time                ...   0.810 sec (  0.014 min) = 27.9%
 Schwartz matrix evaluation time         ...   0.822 sec (  0.014 min) = 28.3%
 Two index repulsion integral time       ...   0.491 sec (  0.008 min) = 16.9%
 Cholesky decomposition of V             ...   0.724 sec (  0.012 min) = 25.0%
 Three index repulsion integral time     ...   0.000 sec (  0.000 min) =  0.0%

-------------------------------------------------------------------------------
                                 ORCA SCF
-------------------------------------------------------------------------------

------------
SCF SETTINGS
------------
Hamiltonian:
 Density Functional     Method          .... DFT(GTOs)
 Exchange Functional    Exchange        .... WB88
 Correlation Functional Correlation     .... LYP
 LDA part of GGA corr.  LDAOpt          .... VWN-5
 Gradients option       PostSCFGGA      .... off
 Hybrid DFT is turned on
   Fraction HF Exchange ScalHFX         ....  0.190000
   Scaling of DF-GGA-X  ScalDFX         ....  0.350000
   Scaling of DF-GGA-C  ScalDFC         ....  0.810000
   Scaling of DF-LDA-C  ScalLDAC        ....  1.000000
   Perturbative correction              ....  0.000000
   Density functional embedding theory  .... OFF
 Long-range corrected/Screened/Range-Separated Hybrid DFT is turned on
   Amount of maximum screened exact exchange              ....  0.460000
   Range separation parameter mu (erf(mu*r12)/r12)        ....  0.330000
 RI-approximation to the Coulomb term is turned on
   Number of auxiliary basis functions  .... 4419
   RIJ-COSX (HFX calculated with COS-X)).... on


General Settings:
 Integral files         IntName         .... BCDT-4F
 Hartree-Fock type      HFTyp           .... RHF
 Total Charge           Charge          ....    0
 Multiplicity           Mult            ....    1
 Number of Electrons    NEL             ....  602
 Basis Dimension        Dim             .... 1354
 Nuclear Repulsion      ENuc            ....  13285.9217823452 Eh

Convergence Acceleration:
 DIIS                   CNVDIIS         .... on
   Start iteration      DIISMaxIt       ....    12
   Startup error        DIISStart       ....  0.200000
   # of expansion vecs  DIISMaxEq       ....     5
   Bias factor          DIISBfac        ....   1.050
   Max. coefficient     DIISMaxC        ....  10.000
 Newton-Raphson         CNVNR           .... off
 SOSCF                  CNVSOSCF        .... on
   Start iteration      SOSCFMaxIt      ....   150
   Startup grad/error   SOSCFStart      ....  0.003300
 Level Shifting         CNVShift        .... on
   Level shift para.    LevelShift      ....    0.2500
   Turn off err/grad.   ShiftErr        ....    0.0010
 Zerner damping         CNVZerner       .... off
 Static damping         CNVDamp         .... on
   Fraction old density DampFac         ....    0.7000
   Max. Damping (<1)    DampMax         ....    0.9800
   Min. Damping (>=0)   DampMin         ....    0.0000
   Turn off err/grad.   DampErr         ....    0.1000
 Fernandez-Rico         CNVRico         .... off

SCF Procedure:
 Maximum # iterations   MaxIter         ....   125
 SCF integral mode      SCFMode         .... Direct
   Integral package                     .... LIBINT
 Reset frequency        DirectResetFreq ....    20
 Integral Threshold     Thresh          ....  2.500e-11 Eh
 Primitive CutOff       TCut            ....  2.500e-12 Eh

Convergence Tolerance:
 Convergence Check Mode ConvCheckMode   .... Total+1el-Energy
 Convergence forced     ConvForced      .... 1
 Energy Change          TolE            ....  1.000e-08 Eh
 1-El. energy change                    ....  1.000e-05 Eh
 Orbital Gradient       TolG            ....  1.000e-05
 Orbital Rotation angle TolX            ....  1.000e-05
 DIIS Error             TolErr          ....  5.000e-07


Diagonalization of the overlap matrix:
Smallest eigenvalue                        ... 1.146e-04
Time for diagonalization                   ...    0.466 sec
Threshold for overlap eigenvalues          ... 1.000e-08
Number of eigenvalues below threshold      ... 0
Time for construction of square roots      ...    0.177 sec
Total time needed                          ...    0.648 sec

-------------------
DFT GRID GENERATION
-------------------

General Integration Accuracy     IntAcc      ...  4.670
Radial Grid Type                 RadialGrid  ... Gauss-Chebyshev
Angular Grid (max. acc.)         AngularGrid ... Lebedev-302
Angular grid pruning method      GridPruning ... 3 (G Style)
Weight generation scheme         WeightScheme... Becke
Basis function cutoff            BFCut       ...    1.0000e-11
Integration weight cutoff        WCut        ...    1.0000e-14
Grids for H and He will be reduced by one unit

# of grid points (after initial pruning)     ... 642342 (   1.4 sec)
# of grid points (after weights+screening)   ... 542272 (  35.9 sec)
nearest neighbour list constructed           ...    0.0 sec
Grid point re-assignment to atoms done       ...    0.1 sec
Grid point division into batches done        ...    1.9 sec
Reduced shell lists constructed in    9.6 sec

Total number of grid points                  ...   542272
Total number of batches                      ...     8532
Average number of points per batch           ...       63
Average number of grid points per atom       ...     4482
Average number of shells per batch           ...   106.54 (17.30%)
Average number of basis functions per batch  ...   215.48 (15.91%)
Average number of large shells per batch     ...    62.50 (58.66%)
Average number of large basis fcns per batch ...   128.14 (59.47%)
Maximum spatial batch extension              ...  24.43, 23.02, 21.42 au
Average spatial batch extension              ...   2.12,  2.17,  2.05 au

Time for grid setup =   47.060 sec

------------------------------
INITIAL GUESS: MODEL POTENTIAL
------------------------------
Loading Hartree-Fock densities                     ... done
Calculating cut-offs                               ... done
Setting up the integral package                    ... done
Initializing the effective Hamiltonian             ... done
Starting the Coulomb interaction                   ... done (  12.4 sec)
Reading the grid                                   ... done
Mapping shells                                     ... done
Starting the XC term evaluation                    ... done (  12.3 sec)
  promolecular density results
     # of electrons  =    601.979031751
     EX              =   -565.603826148
     EC              =    -20.917651254
     EX+EC           =   -586.521477402
Transforming the Hamiltonian                       ... done (   0.2 sec)
Diagonalizing the Hamiltonian                      ... done (   0.7 sec)
Back transforming the eigenvectors                 ... done (   0.1 sec)
Now organizing SCF variables                       ... done
                      ------------------
                      INITIAL GUESS DONE (  73.0 sec)
                      ------------------
--------------------
COSX GRID GENERATION
--------------------

General Integration Accuracy     IntAcc      ...  3.340
Radial Grid Type                 RadialGrid  ... Gauss-Chebyshev
Angular Grid (max. acc.)         AngularGrid ... Lebedev-50
Angular grid pruning method      GridPruning ... 3 (G Style)
Weight generation scheme         WeightScheme... Becke
Basis function cutoff            BFCut       ...    1.0000e-11
Integration weight cutoff        WCut        ...    1.0000e-14
Grids for H and He will be reduced by one unit

# of grid points (after initial pruning)     ...  60326 (   0.1 sec)
# of grid points (after weights+screening)   ...  53327 (   3.7 sec)
nearest neighbour list constructed           ...    0.0 sec
Grid point re-assignment to atoms done       ...    0.0 sec
Grid point division into batches done        ...    0.0 sec
Reduced shell lists constructed in    1.4 sec

Total number of grid points                  ...    53327
Total number of batches                      ...      899
Average number of points per batch           ...       59
Average number of grid points per atom       ...      441
Average number of shells per batch           ...   129.13 (20.96%)
Average number of basis functions per batch  ...   264.48 (19.53%)
Average number of large shells per batch     ...    76.69 (59.39%)
Average number of large basis fcns per batch ...   159.74 (60.40%)
Maximum spatial batch extension              ...  19.64, 23.00, 20.68 au
Average spatial batch extension              ...   4.31,  4.68,  3.87 au

Overlap Fitting                  UseSFitting ... on
Constructing numerical overlap ... done (      0.9 sec)
Inverting numerical overlap    ... done (      0.1 sec)
Obtaining analytic overlap     ... done (      0.0 sec)
Final contraction and storage  ... done (      0.1 sec)


General Integration Accuracy     IntAcc      ...  3.670
Radial Grid Type                 RadialGrid  ... Gauss-Chebyshev
Angular Grid (max. acc.)         AngularGrid ... Lebedev-50
Angular grid pruning method      GridPruning ... 3 (G Style)
Weight generation scheme         WeightScheme... Becke
Basis function cutoff            BFCut       ...    1.0000e-11
Integration weight cutoff        WCut        ...    1.0000e-14
Grids for H and He will be reduced by one unit

# of grid points (after initial pruning)     ...  75542 (   0.1 sec)
# of grid points (after weights+screening)   ...  66505 (   4.7 sec)
nearest neighbour list constructed           ...    0.0 sec
Grid point re-assignment to atoms done       ...    0.0 sec
Grid point division into batches done        ...    0.0 sec
Reduced shell lists constructed in    1.7 sec

Total number of grid points                  ...    66505
Total number of batches                      ...     1098
Average number of points per batch           ...       60
Average number of grid points per atom       ...      550
Average number of shells per batch           ...   126.66 (20.56%)
Average number of basis functions per batch  ...   258.89 (19.12%)
Average number of large shells per batch     ...    74.78 (59.04%)
Average number of large basis fcns per batch ...   155.39 (60.02%)
Maximum spatial batch extension              ...  18.83, 23.21, 22.63 au
Average spatial batch extension              ...   4.04,  4.34,  3.68 au

Overlap Fitting                  UseSFitting ... on
Constructing numerical overlap ... done (      1.1 sec)
Inverting numerical overlap    ... done (      0.1 sec)
Obtaining analytic overlap     ... done (      0.0 sec)
Final contraction and storage  ... done (      0.1 sec)


General Integration Accuracy     IntAcc      ...  4.010
Radial Grid Type                 RadialGrid  ... Gauss-Chebyshev
Angular Grid (max. acc.)         AngularGrid ... Lebedev-110
Angular grid pruning method      GridPruning ... 3 (G Style)
Weight generation scheme         WeightScheme... Becke
Basis function cutoff            BFCut       ...    1.0000e-11
Integration weight cutoff        WCut        ...    1.0000e-14
Grids for H and He will be reduced by one unit

# of grid points (after initial pruning)     ... 146176 (   0.3 sec)
# of grid points (after weights+screening)   ... 127571 (   9.1 sec)
nearest neighbour list constructed           ...    0.0 sec
Grid point re-assignment to atoms done       ...    0.0 sec
Grid point division into batches done        ...    0.1 sec
Reduced shell lists constructed in    3.2 sec

Total number of grid points                  ...   127571
Total number of batches                      ...     2057
Average number of points per batch           ...       62
Average number of grid points per atom       ...     1054
Average number of shells per batch           ...   119.43 (19.39%)
Average number of basis functions per batch  ...   243.78 (18.00%)
Average number of large shells per batch     ...    70.86 (59.33%)
Average number of large basis fcns per batch ...   146.72 (60.19%)
Maximum spatial batch extension              ...  19.78, 26.72, 23.36 au
Average spatial batch extension              ...   3.38,  3.54,  3.14 au

Overlap Fitting                  UseSFitting ... on
Constructing numerical overlap ... done (      2.0 sec)
Inverting numerical overlap    ... done (      0.1 sec)
Obtaining analytic overlap     ... done (      0.0 sec)
Final contraction and storage  ... done (      0.1 sec)

Time for X-Grid setup             =   29.151 sec
--------------
SCF ITERATIONS
--------------
ITER       Energy         Delta-E        Max-DP      RMS-DP      [F,P]     Damp
               ***  Starting incremental Fock matrix formation  ***
  0  -5399.7678926121   0.000000000000 0.11682202  0.00096956  0.2228247 0.7000
  1  -5400.5172938257  -0.749401213625 0.07176315  0.00067770  0.0950689 0.7000
                               ***Turning on DIIS***
  2  -5400.8316709554  -0.314377129767 0.11948263  0.00119133  0.0434413 0.0000
  3  -5401.3267168071  -0.495045851630 0.07269262  0.00053674  0.0609141 0.0000
  4  -5401.4365552029  -0.109838395789 0.01608302  0.00014870  0.0192287 0.0000
  5  -5401.4423890816  -0.005833878758 0.00728247  0.00006291  0.0116186 0.0000
                      *** Initiating the SOSCF procedure ***
                           *** Shutting down DIIS ***
                      *** Re-Reading the Fockian *** 
                      *** Removing any level shift *** 
ITER      Energy       Delta-E        Grad      Rot      Max-DP    RMS-DP
  6  -5401.44377503  -0.0013859528  0.003013  0.003013  0.003136  0.000032
               *** Restarting incremental Fock matrix formation ***
  7  -5401.44410314  -0.0003281010  0.002025  0.013857  0.003342  0.000034
  8  -5401.44437076  -0.0002676224  0.000740  0.014396  0.003585  0.000041
  9  -5401.44438494  -0.0000141788  0.000839  0.003843  0.001605  0.000014
 10  -5401.44444982  -0.0000648785  0.000221  0.002015  0.000669  0.000008
 11  -5401.44444897   0.0000008408  0.000202  0.001290  0.000521  0.000005
 12  -5401.44445521  -0.0000062384  0.000022  0.000159  0.000210  0.000002
 13  -5401.44445528  -0.0000000681  0.000035  0.000110  0.000085  0.000001
 14  -5401.44445551  -0.0000002282  0.000005  0.000043  0.000040  0.000000
 15  -5401.44445548   0.0000000327  0.000006  0.000025  0.000020  0.000000
                  ***Gradient check signals convergence***
              ***Rediagonalizing the Fockian in SOSCF/NRSCF***

               *****************************************************
               *                     SUCCESS                       *
               *           SCF CONVERGED AFTER  16 CYCLES          *
               *****************************************************

Setting up the final grid:

General Integration Accuracy     IntAcc      ...  5.010
Radial Grid Type                 RadialGrid  ... Gauss-Chebyshev
Angular Grid (max. acc.)         AngularGrid ... Lebedev-434
Angular grid pruning method      GridPruning ... 3 (G Style)
Weight generation scheme         WeightScheme... Becke
Basis function cutoff            BFCut       ...    1.0000e-11
Integration weight cutoff        WCut        ...    1.0000e-14
Grids for H and He will be reduced by one unit

# of grid points (after initial pruning)     ... 1139836 (   3.0 sec)
# of grid points (after weights+screening)   ... 958816 (  68.1 sec)
nearest neighbour list constructed           ...    0.0 sec
Grid point re-assignment to atoms done       ...    0.2 sec
Grid point division into batches done        ...    6.4 sec
Reduced shell lists constructed in   23.7 sec

Total number of grid points                  ...   958816
Total number of batches                      ...    15041
Average number of points per batch           ...       63
Average number of grid points per atom       ...     7924
Average number of shells per batch           ...   103.02 (16.72%)
Average number of basis functions per batch  ...   207.43 (15.32%)
Average number of large shells per batch     ...    60.26 (58.50%)
Average number of large basis fcns per batch ...   123.07 (59.33%)
Maximum spatial batch extension              ...  22.19, 22.89, 21.41 au
Average spatial batch extension              ...   1.73,  1.77,  1.69 au

Final grid set up in   95.0 sec
Final integration                            ... done (  32.1 sec)
Change in XC energy                          ...    -0.000052533
Integrated number of electrons               ...   602.000039634
Previous integrated no of electrons          ...   601.999200235
Old exchange energy                            =   -156.293908823 Eh
New exchange energy                            =   -156.291667726 Eh
Exchange energy change after final integration =      0.002241097 Eh
Total energy after final integration           =  -5401.442267001 Eh
Final COS-X integration done in                =   609.254 sec

----------------
TOTAL SCF ENERGY
----------------

Total Energy       :        -5401.44226700 Eh         -146980.71644 eV

Components:
Nuclear Repulsion  :        13285.92178235 Eh          361528.31144 eV
Electronic Energy  :       -18687.36404935 Eh         -508509.02788 eV
One Electron Energy:       -33869.79554735 Eh         -921643.99232 eV
Two Electron Energy:        15182.43149800 Eh          413134.96444 eV

Virial components:
Potential Energy   :       -10767.41594592 Eh         -292996.28353 eV
Kinetic Energy     :         5365.97367892 Eh          146015.56709 eV
Virial Ratio       :            2.00660991


DFT components:
N(Alpha)           :      301.000019817181 electrons
N(Beta)            :      301.000019817181 electrons
N(Total)           :      602.000039634363 electrons
E(XC)              :     -439.681783282293 Eh       
DFET-embed. en.    :        0.000000000000 Eh       

---------------
SCF CONVERGENCE
---------------

  Last Energy change         ...   -8.8423e-08  Tolerance :   1.0000e-08
  Last MAX-Density change    ...    9.3259e-15  Tolerance :   1.0000e-07
  Last RMS-Density change    ...    3.5968e-17  Tolerance :   5.0000e-09
  Last Orbital Gradient      ...    1.4843e-06  Tolerance :   1.0000e-05
  Last Orbital Rotation      ...    1.4820e-05  Tolerance :   1.0000e-05

             **** THE GBW FILE WAS UPDATED (BCDT-4F.gbw) ****
             **** DENSITY FILE WAS UPDATED (BCDT-4F.scfp) ****
             **** ENERGY FILE WAS UPDATED (BCDT-4F.en.tmp) ****
             **** THE GBW FILE WAS UPDATED (BCDT-4F.gbw) ****
             **** DENSITY FILE WAS UPDATED (BCDT-4F.scfp) ****
----------------
ORBITAL ENERGIES
----------------

  NO   OCC          E(Eh)            E(eV) 
   0   2.0000     -89.036097     -2422.7954 
   1   2.0000     -88.977127     -2421.1907 
   2   2.0000     -88.973648     -2421.0960 
   3   2.0000     -88.970052     -2420.9982 
   4   2.0000     -88.963365     -2420.8162 
   5   2.0000     -24.799576      -674.8308 
   6   2.0000     -24.799104      -674.8179 
   7   2.0000     -24.796767      -674.7543 
   8   2.0000     -24.796306      -674.7418 
   9   2.0000     -19.265021      -524.2279 
  10   2.0000     -19.258447      -524.0490 
  11   2.0000     -19.214748      -522.8599 
  12   2.0000     -19.210925      -522.7559 
  13   2.0000     -14.452349      -393.2684 
  14   2.0000     -14.449809      -393.1993 
  15   2.0000     -14.416772      -392.3003 
  16   2.0000     -14.415852      -392.2753 
  17   2.0000     -14.414175      -392.2296 
  18   2.0000     -14.412546      -392.1853 
  19   2.0000     -10.384632      -282.5802 
  20   2.0000     -10.384034      -282.5639 
  21   2.0000     -10.381638      -282.4987 
  22   2.0000     -10.380956      -282.4802 
  23   2.0000     -10.366475      -282.0861 
  24   2.0000     -10.365292      -282.0539 
  25   2.0000     -10.362946      -281.9901 
  26   2.0000     -10.359781      -281.9040 
  27   2.0000     -10.344011      -281.4749 
  28   2.0000     -10.342021      -281.4207 
  29   2.0000     -10.339942      -281.3641 
  30   2.0000     -10.339921      -281.3636 
  31   2.0000     -10.338428      -281.3229 
  32   2.0000     -10.337615      -281.3008 
  33   2.0000     -10.337374      -281.2942 
  34   2.0000     -10.337022      -281.2847 
  35   2.0000     -10.324702      -280.9494 
  36   2.0000     -10.322684      -280.8945 
  37   2.0000     -10.321344      -280.8581 
  38   2.0000     -10.320946      -280.8472 
  39   2.0000     -10.319085      -280.7966 
  40   2.0000     -10.318357      -280.7768 
  41   2.0000     -10.317622      -280.7568 
  42   2.0000     -10.316791      -280.7342 
  43   2.0000     -10.316540      -280.7273 
  44   2.0000     -10.316423      -280.7242 
  45   2.0000     -10.316276      -280.7201 
  46   2.0000     -10.315990      -280.7124 
  47   2.0000     -10.315147      -280.6894 
  48   2.0000     -10.312373      -280.6139 
  49   2.0000     -10.311739      -280.5967 
  50   2.0000     -10.310406      -280.5604 
  51   2.0000     -10.307940      -280.4933 
  52   2.0000     -10.307286      -280.4755 
  53   2.0000     -10.307109      -280.4707 
  54   2.0000     -10.304311      -280.3945 
  55   2.0000     -10.304190      -280.3913 
  56   2.0000     -10.300777      -280.2984 
  57   2.0000     -10.300320      -280.2859 
  58   2.0000     -10.300302      -280.2855 
  59   2.0000     -10.298677      -280.2413 
  60   2.0000     -10.297478      -280.2086 
  61   2.0000     -10.297160      -280.2000 
  62   2.0000     -10.294366      -280.1239 
  63   2.0000     -10.292632      -280.0768 
  64   2.0000     -10.287801      -279.9453 
  65   2.0000     -10.286921      -279.9214 
  66   2.0000     -10.285975      -279.8956 
  67   2.0000     -10.284655      -279.8597 
  68   2.0000     -10.284163      -279.8463 
  69   2.0000     -10.280286      -279.7408 
  70   2.0000     -10.279363      -279.7157 
  71   2.0000     -10.278184      -279.6836 
  72   2.0000     -10.277342      -279.6607 
  73   2.0000     -10.274425      -279.5813 
  74   2.0000     -10.274285      -279.5775 
  75   2.0000     -10.270344      -279.4703 
  76   2.0000     -10.267057      -279.3808 
  77   2.0000     -10.261719      -279.2356 
  78   2.0000     -10.260860      -279.2122 
  79   2.0000     -10.258371      -279.1445 
  80   2.0000     -10.239648      -278.6350 
  81   2.0000      -8.127496      -221.1604 
  82   2.0000      -8.072223      -219.6563 
  83   2.0000      -8.068781      -219.5627 
  84   2.0000      -8.063866      -219.4290 
  85   2.0000      -8.057001      -219.2421 
  86   2.0000      -6.098806      -165.9569 
  87   2.0000      -6.091158      -165.7488 
  88   2.0000      -6.089631      -165.7073 
  89   2.0000      -6.041466      -164.3966 
  90   2.0000      -6.038018      -164.3028 
  91   2.0000      -6.037426      -164.2867 
  92   2.0000      -6.034372      -164.2036 
  93   2.0000      -6.033960      -164.1924 
  94   2.0000      -6.033354      -164.1759 
  95   2.0000      -6.030958      -164.1107 
  96   2.0000      -6.028905      -164.0549 
  97   2.0000      -6.026586      -163.9917 
  98   2.0000      -6.025975      -163.9751 
  99   2.0000      -6.022046      -163.8682 
 100   2.0000      -6.019007      -163.7855 
 101   2.0000      -1.322897       -35.9979 
 102   2.0000      -1.319985       -35.9186 
 103   2.0000      -1.307728       -35.5851 
 104   2.0000      -1.304816       -35.5059 
 105   2.0000      -1.179725       -32.1019 
 106   2.0000      -1.152114       -31.3506 
 107   2.0000      -1.138396       -30.9773 
 108   2.0000      -1.130360       -30.7587 
 109   2.0000      -1.126515       -30.6540 
 110   2.0000      -1.026466       -27.9316 
 111   2.0000      -1.022266       -27.8173 
[...]
  19      4.59     270.1   108 -> 113      gap,J,K:    6.025     1.775     0.170
  20      4.68     264.9   100 -> 111      gap,J,K:    6.282     1.906     0.152
  21      4.71     263.2   107 -> 112      gap,J,K:    6.009     1.683     0.192
  22      4.77     260.0   102 -> 111      gap,J,K:    6.188     1.653     0.116
  23      4.78     259.2   101 -> 111      gap,J,K:    6.225     1.678     0.118
  24      4.82     257.3   105 -> 112      gap,J,K:    6.295     1.618     0.071

average / max PT2 energy lowering (eV):       0.051       0.081

CSF included by PT:                   194 
total number of CSF included:         227 
 
sTD-DFT procedure...
setting up A+B and A-B matrices...  done
estimated time (min):    0.000
calculating (A-B)^0.5 ... done
calculating (A+B)*(A-B)^0.5 ... done
calculating (A-B)^0.5 *(A+B)*(A-B)^0.5 ... done
diagonalizing ...using LAPACKE_ssyevr ...done

   42 roots found, lowest/highest eigenvalue :     1.739     4.980

excitation energies, transition moments and amplitudes

molecular weight: 1169.332
state   eV        nm        fL         fV        Rl        RV
   0   1.739     712.9   2.504194   3.258101  421.290790  504.397875     0.86 ( 110-> 111)    0.09 ( 109-> 112)    0.02 ( 110-> 112)
   1   2.188     566.7   0.019441   0.023402  -109.923834  -134.502733     0.60 ( 110-> 112)    0.29 ( 109-> 111)    0.06 ( 109-> 113)
   2   2.495     496.9   0.055942   0.066983  -272.806751  -299.427248     0.73 ( 110-> 113)    0.15 ( 109-> 112)    0.02 ( 109-> 111)
   3   2.701     459.0   0.015287   0.017593  -15.184574  -18.032338     0.59 ( 109-> 111)    0.20 ( 110-> 112)    0.12 ( 109-> 113)
   4   3.023     410.1   0.262537   0.267563   5.235757  -7.390598     0.64 ( 110-> 115)    0.13 ( 109-> 115)    0.08 ( 110-> 114)
   5   3.048     406.8   0.223637   0.217633  -19.622357  -28.756731     0.48 ( 110-> 114)    0.19 ( 109-> 114)    0.08 ( 110-> 115)
   6   3.260     380.3   0.076747   0.090307  -143.641092  -156.240193     0.45 ( 109-> 112)    0.18 ( 108-> 111)    0.13 ( 110-> 113)
   7   3.492     355.0   0.042919   0.041227  198.234874  185.080756     0.44 ( 109-> 113)    0.14 ( 108-> 112)    0.12 ( 108-> 111)
   8   3.614     343.0   0.075635   0.080794  -110.402017  -98.635615     0.46 ( 108-> 111)    0.15 ( 109-> 112)    0.07 ( 109-> 113)
   9   3.718     333.5   0.022852   0.022489  245.654069  243.022015     0.32 ( 107-> 111)    0.16 ( 106-> 112)    0.05 ( 106-> 111)
  10   3.769     329.0   0.309028   0.278424  -61.801110  -71.030223     0.29 ( 106-> 111)    0.15 ( 107-> 112)    0.07 ( 108-> 111)
  11   3.871     320.3   0.052144   0.040351   7.812664   2.732708     0.53 ( 105-> 111)    0.11 ( 104-> 111)    0.08 ( 105-> 112)
  12   3.918     316.4   0.077698   0.069525  -39.073407  -30.528409     0.30 ( 110-> 116)    0.11 ( 105-> 111)    0.09 ( 109-> 114)
  13   3.957     313.3   0.028814   0.022054  -9.994588  -8.618414     0.67 ( 103-> 111)    0.05 ( 103-> 113)    0.04 ( 110-> 116)
  14   3.963     312.9   0.002102   0.001662  36.468835  27.846637     0.22 (  98-> 111)    0.17 (  99-> 112)    0.09 ( 102-> 111)
  15   3.968     312.5   0.084157   0.072872  87.231698  80.975782     0.18 (  99-> 111)    0.13 (  98-> 112)    0.12 ( 102-> 112)
  16   4.002     309.8   0.142688   0.130592  29.400114  32.135027     0.18 ( 104-> 111)    0.16 (  98-> 114)    0.10 ( 110-> 117)
  17   4.010     309.2   0.065072   0.060901  234.202852  234.714801     0.18 (  99-> 115)    0.15 ( 102-> 115)    0.11 (  99-> 114)
  18   4.046     306.5   0.045319   0.041448   1.058213   0.613165     0.23 (  98-> 114)    0.11 ( 110-> 117)    0.08 ( 104-> 111)
  19   4.118     301.0   0.148316   0.127842  -203.620211  -191.660353     0.18 ( 110-> 114)    0.17 ( 104-> 111)    0.17 ( 109-> 114)
  20   4.156     298.3   0.043832   0.042475  -31.696534  -36.105995     0.34 ( 108-> 112)    0.09 ( 110-> 117)    0.05 ( 108-> 113)
  21   4.177     296.8   0.029072   0.023926  -62.702459  -49.845717     0.46 ( 100-> 111)    0.16 ( 100-> 112)    0.05 ( 103-> 112)
  22   4.210     294.5   0.147987   0.134896  -13.994603  -13.503513     0.16 ( 110-> 117)    0.12 ( 110-> 116)    0.08 ( 108-> 113)
  23   4.219     293.9   0.020935   0.014052  -56.044745  -40.484358     0.42 ( 101-> 111)    0.29 ( 101-> 112)    0.07 ( 105-> 112)
  24   4.290     289.0   0.081148   0.074884  180.916167  171.650255     0.18 ( 109-> 115)    0.12 ( 102-> 111)    0.12 ( 110-> 117)
  25   4.399     281.9   0.038575   0.034423  -46.469587  -44.670650     0.19 ( 108-> 113)    0.10 ( 109-> 115)    0.08 ( 109-> 114)
  26   4.420     280.5   0.026447   0.023586   3.431632   3.814794     0.29 (  94-> 111)    0.13 ( 105-> 112)    0.10 ( 105-> 113)
  27   4.484     276.5   0.000375   0.000295  -5.621129  -2.952479     0.15 ( 107-> 111)    0.13 ( 102-> 111)    0.11 ( 108-> 112)
  28   4.516     274.6   0.018250   0.015951  -99.662365  -92.312604     0.17 ( 105-> 113)    0.16 (  94-> 111)    0.14 ( 105-> 112)
  29   4.584     270.5   0.368344   0.330139  -240.581914  -224.191672     0.20 (  96-> 112)    0.12 (  96-> 111)    0.10 (  97-> 111)
  30   4.603     269.3   0.035212   0.031363  312.385904  298.701710     0.09 (  97-> 112)    0.09 ( 103-> 112)    0.08 ( 107-> 115)
  31   4.626     268.0   0.013069   0.010347  140.140661  126.784438     0.23 ( 103-> 112)    0.16 ( 103-> 113)    0.08 (  94-> 111)
  32   4.653     266.5   0.388443   0.313368  -949.812528  -860.699562     0.18 ( 106-> 113)    0.07 ( 107-> 112)    0.06 (  97-> 111)
  33   4.724     262.5   0.081042   0.060527  1095.250947  950.557333     0.13 (  96-> 111)    0.11 ( 106-> 114)    0.10 (  97-> 112)
  34   4.812     257.7   0.209237   0.158263  -277.449321  -245.662991     0.29 ( 109-> 116)    0.20 ( 110-> 118)    0.07 ( 107-> 114)
  35   4.832     256.6   0.042544   0.029230  -58.923268  -48.839186     0.23 ( 104-> 112)    0.07 ( 107-> 112)    0.06 ( 104-> 113)
  36   4.870     254.6   0.122680   0.093784  -8.334615  -9.093727     0.16 ( 108-> 115)    0.07 ( 109-> 116)    0.06 ( 107-> 115)
  37   4.885     253.8   0.022528   0.017478  -231.469569  -206.229553     0.13 ( 106-> 111)    0.10 ( 110-> 118)    0.07 (  95-> 111)
  38   4.910     252.5   0.031126   0.025969  114.273437  104.807683     0.13 ( 109-> 116)    0.12 ( 100-> 113)    0.05 ( 100-> 112)
  39   4.935     251.2   0.004839   0.003449  -18.171793  -16.209969     0.27 ( 101-> 113)    0.15 ( 101-> 111)    0.09 (  95-> 111)
  40   4.957     250.1   0.002381   0.002164  -17.992075  -18.888183     0.10 ( 102-> 112)    0.09 (  95-> 111)    0.06 ( 110-> 118)
  41   4.980     249.0   0.005715   0.003358  -17.804825  -13.669001     0.16 ( 100-> 113)    0.09 ( 100-> 111)    0.09 ( 100-> 112)

-----------------------------------------------------------------------------
         ABSORPTION SPECTRUM VIA TRANSITION ELECTRIC DIPOLE MOMENTS
-----------------------------------------------------------------------------
State   Energy  Wavelength   fosc         T2         TX        TY        TZ  
        (cm-1)    (nm)                  (au**2)     (au)      (au)      (au) 
-----------------------------------------------------------------------------
   0   14027.7    712.9   2.504194452  58.77019  -3.25858  -0.60591  -6.91265
   1   17646.5    566.7   0.019440914   0.36269   0.33046   0.48523   0.13432
   2   20124.1    496.9   0.055941798   0.91516   0.24615  -0.78827   0.48290
   3   21785.6    459.0   0.015287281   0.23101   0.34006   0.23623   0.24406
   4   24381.8    410.1   0.262537486   3.54487   0.22128   0.48901   1.80465
   5   24584.5    406.8   0.223637321   2.99473   1.22336   0.74044   0.97462
   6   26296.0    380.3   0.076747482   0.96084  -0.38684   0.51681  -0.73763
   7   28165.1    355.0   0.042918899   0.50166   0.35722  -0.45919  -0.40398
   8   29150.5    343.0   0.075635318   0.85419   0.35093   0.68592   0.51043
   9   29988.9    333.5   0.022851951   0.25086   0.42652   0.14054  -0.22181
  10   30398.2    329.0   0.309027994   3.34677  -0.85608  -0.86850  -1.36367
  11   31221.8    320.3   0.052144426   0.54983   0.50609   0.05500   0.53914
  12   31604.1    316.4   0.077697577   0.80936   0.21127  -0.34436  -0.80383
  13   31916.7    313.3   0.028813611   0.29720  -0.10161   0.03896  -0.53419
  14   31962.1    312.9   0.002101981   0.02165  -0.08228  -0.12174   0.00775
  15   32002.1    312.5   0.084157220   0.86574   0.70937   0.37461   0.47139
  16   32278.9    309.8   0.142688282   1.45528   1.06704   0.53853   0.16335
  17   32343.8    309.2   0.065071759   0.66233  -0.05836   0.47801   0.65608
  18   32631.4    306.5   0.045318919   0.45721   0.06759  -0.58261  -0.33647
  19   33217.4    301.0   0.148316047   1.46994  -0.28950   0.58915   1.01932
  20   33518.2    298.3   0.043831689   0.43051   0.07915   0.36940   0.53646
  21   33691.0    296.8   0.029072129   0.28408  -0.48384  -0.20516  -0.08882
  22   33957.0    294.5   0.147986880   1.43473  -0.91451  -0.62891  -0.45041
  23   34025.6    293.9   0.020934731   0.20255  -0.40202  -0.05851  -0.19368
  24   34598.4    289.0   0.081148228   0.77214   0.60718  -0.33209  -0.54148
  25   35477.7    281.9   0.038575103   0.35795   0.06734  -0.29902   0.51382
  26   35645.9    280.5   0.026447376   0.24426   0.43742  -0.04728  -0.22514
  27   36165.6    276.5   0.000375095   0.00341   0.03977   0.04281  -0.00086
  28   36420.3    274.6   0.018249624   0.16496   0.02719  -0.40274  -0.04503
  29   36974.1    270.5   0.368344008   3.27968   0.61206   1.24145   1.16784
  30   37128.5    269.3   0.035212171   0.31222   0.08134  -0.22642  -0.50432
  31   37309.9    268.0   0.013069472   0.11532  -0.12207   0.02513   0.31590
  32   37526.1    266.5   0.388442912   3.40776   0.62350   1.46123   0.94011
  33   38099.3    262.5   0.081041685   0.70027   0.68065  -0.03354  -0.48566
  34   38811.8    257.7   0.209236698   1.77480  -0.69037  -0.96968  -0.59826
  35   38973.8    256.6   0.042543857   0.35937   0.29394   0.37783   0.36085
  36   39278.6    254.6   0.122679818   1.02824   0.16908  -0.66346  -0.74798
  37   39403.8    253.8   0.022528360   0.18822   0.03350   0.42824  -0.06090
  38   39603.2    252.5   0.031125569   0.25874  -0.41829  -0.24310  -0.15708
  39   39801.1    251.2   0.004838711   0.04002  -0.04526   0.10103  -0.16664
  40   39980.9    250.1   0.002380718   0.01960   0.13213  -0.03877  -0.02536
  41   40165.4    249.0   0.005715159   0.04684   0.14360   0.04400  -0.15584

-----------------------------------------------------------------------------
         ABSORPTION SPECTRUM VIA TRANSITION VELOCITY DIPOLE MOMENTS
-----------------------------------------------------------------------------
State   Energy  Wavelength   fosc         P2         PX        PY        PZ  
        (cm-1)    (nm)                  (au**2)     (au)      (au)      (au) 
-----------------------------------------------------------------------------
   0   14027.7    712.9   3.258100844   0.31236  -0.23745  -0.04302  -0.50411
   1   17646.5    566.7   0.023402009   0.00282   0.02937   0.04335   0.00899
   2   20124.1    496.9   0.066982771   0.00921   0.02544  -0.07770   0.05028
   3   21785.6    459.0   0.017592610   0.00262   0.03757   0.02421   0.02493
   4   24381.8    410.1   0.267562850   0.04459   0.02196   0.05653   0.20226
   5   24584.5    406.8   0.217633482   0.03657   0.13754   0.08364   0.10322
   6   26296.0    380.3   0.090307340   0.01623  -0.05243   0.06003  -0.09939
   7   28165.1    355.0   0.041226595   0.00794   0.04380  -0.05873  -0.05068
   8   29150.5    343.0   0.080793905   0.01610   0.04998   0.09046   0.07359
   9   29988.9    333.5   0.022489345   0.00461   0.05653   0.01848  -0.03275
  10   30398.2    329.0   0.278423680   0.05784  -0.11336  -0.11614  -0.17750
  11   31221.8    320.3   0.040350645   0.00861   0.05770   0.00883   0.07213
  12   31604.1    316.4   0.069525066   0.01502   0.02876  -0.04575  -0.10999
  13   31916.7    313.3   0.022054387   0.00481  -0.01498   0.00507  -0.06753
  14   31962.1    312.9   0.001661705   0.00036  -0.00814  -0.01722  -0.00043
  15   32002.1    312.5   0.072872323   0.01594   0.09649   0.05082   0.06361
  16   32278.9    309.8   0.130592394   0.02881   0.14757   0.07860   0.02925
  17   32343.8    309.2   0.060900748   0.01346  -0.00930   0.06740   0.09399
  18   32631.4    306.5   0.041448204   0.00924   0.00634  -0.08305  -0.04803
  19   33217.4    301.0   0.127841944   0.02902  -0.03488   0.08446   0.14378
  20   33518.2    298.3   0.042475026   0.00973   0.01580   0.05456   0.08065
  21   33691.0    296.8   0.023926362   0.00551  -0.06423  -0.03244  -0.01821
  22   33957.0    294.5   0.134895664   0.03131  -0.13529  -0.09274  -0.06637
  23   34025.6    293.9   0.014051997   0.00327  -0.04770  -0.00940  -0.03006
  24   34598.4    289.0   0.074884045   0.01771   0.09009  -0.05093  -0.08364
  25   35477.7    281.9   0.034422761   0.00835   0.01022  -0.04517   0.07875
  26   35645.9    280.5   0.023586136   0.00575   0.06725  -0.00688  -0.03429
  27   36165.6    276.5   0.000294551   0.00007   0.00402   0.00689   0.00302
  28   36420.3    274.6   0.015951344   0.00397   0.00212  -0.06249  -0.00778
  29   36974.1    270.5   0.330138837   0.08343   0.09907   0.19698   0.18658
  30   37128.5    269.3   0.031362924   0.00796   0.01363  -0.03605  -0.08045
  31   37309.9    268.0   0.010346599   0.00264  -0.01909   0.00303   0.04759
  32   37526.1    266.5   0.313368106   0.08037   0.09573   0.22494   0.14356
  33   38099.3    262.5   0.060526680   0.01576   0.10281  -0.00418  -0.07193
  34   38811.8    257.7   0.158263206   0.04198  -0.10623  -0.14974  -0.09097
  35   38973.8    256.6   0.029230332   0.00779   0.04162   0.05676   0.05322
  36   39278.6    254.6   0.093784381   0.02518   0.02551  -0.10379  -0.11727
  37   39403.8    253.8   0.017478090   0.00471   0.00407   0.06747  -0.01177
  38   39603.2    252.5   0.025968962   0.00703  -0.06955  -0.03928  -0.02547
  39   39801.1    251.2   0.003448633   0.00094  -0.00529   0.01604  -0.02555
  40   39980.9    250.1   0.002164229   0.00059   0.01947  -0.01052  -0.01008
  41   40165.4    249.0   0.003357925   0.00092   0.01959   0.00815  -0.02171

-------------------------------------------------------------------
                             CD SPECTRUM
-------------------------------------------------------------------
State   Energy Wavelength       R         MX        MY        MZ   
        (cm-1)   (nm)       (1e40*cgs)   (au)      (au)      (au)  
-------------------------------------------------------------------
   0   14027.7    712.9    421.29079   2.05472  -5.81561  -0.20028
   1   17646.5    566.7    -109.92383   2.67697  -0.43637  -1.53777
   2   20124.1    496.9    -272.80675  -1.41481  -0.98414   1.51131
   3   21785.6    459.0    -15.18457   0.35464   0.09879  -0.32582
   4   24381.8    410.1      5.23576   0.31310   3.97967  -1.12908
   5   24584.5    406.8    -19.62236  -0.03038   0.97420  -0.61657
   6   26296.0    380.3    -143.64109   1.26750   0.24008  -1.32263
   7   28165.1    355.0    198.23487  -2.52364  -1.95356   2.07075
   8   29150.5    343.0    -110.40202   0.03489   1.41544  -1.00849
   9   29988.9    333.5    245.65407  -1.64586  -1.05226   0.86683
  10   30398.2    329.0    -61.80111  -0.91866  -1.88792   1.58683
  11   31221.8    320.3      7.81266  -0.27713   0.00850   0.19780
  12   31604.1    316.4    -39.07341  -0.05218  -2.95761   1.04713
  13   31916.7    313.3     -9.99459  -0.01348  -0.50077  -0.11333
  14   31962.1    312.9     36.46883   1.11239   0.48620  -0.51525
  15   32002.1    312.5     87.23170   0.12670  -0.92509  -0.24056
  16   32278.9    309.8     29.40011  -0.01787  -0.08455  -0.36806
  17   32343.8    309.2    234.20285   3.05036   1.42187  -2.27900
  18   32631.4    306.5      1.05821  -0.09328  -0.50745   0.87326
  19   33217.4    301.0    -203.62021  -0.50622   3.10938  -1.09351
  20   33518.2    298.3    -31.69653   1.29443   1.92457  -1.26555
  21   33691.0    296.8    -62.70246  -0.58025  -0.18552   0.59449
  22   33957.0    294.5    -13.99460  -0.16669  -0.37622   0.73195
  23   34025.6    293.9    -56.04475  -0.69059   0.40818   0.08256
  24   34598.4    289.0    180.91617  -1.31326  -3.00419   1.78728
  25   35477.7    281.9    -46.46959  -0.77320   0.50622   0.77960
  26   35645.9    280.5      3.43163   0.01116  -1.28606   0.35643
  27   36165.6    276.5     -5.62113   0.42380   0.15847  -0.24330
  28   36420.3    274.6    -99.66236  -0.01813  -1.14402   0.83156
  29   36974.1    270.5    -240.58191   0.88649   2.91751  -2.69207
  30   37128.5    269.3    312.38590  -4.36269  -1.76689   2.71735
  31   37309.9    268.0    140.14066   2.11055   0.50950  -1.10700
  32   37526.1    266.5    -949.81253   2.01098   4.44365  -3.95453
  33   38099.3    262.5    1095.25095  -4.99075  -2.38690   2.73746
  34   38811.8    257.7    -277.44932  -0.48688  -2.05400   1.92362
  35   38973.8    256.6    -58.92327   0.74220   1.16467  -1.13135
  36   39278.6    254.6     -8.33461  -2.21224  -3.68603   2.72215
  37   39403.8    253.8    -231.46957   0.37819   2.07851  -1.30037
  38   39603.2    252.5    114.27344   0.97827   0.46371  -0.23649
  39   39801.1    251.2    -18.17179   0.34105   0.15864  -0.45908
  40   39980.9    250.1    -17.99207   0.35309  -0.83370   0.10433
  41   40165.4    249.0    -17.80482   0.24884   0.09475  -0.22863

sTD-DFT done

Total run time:        6.474 sec

           *** ORCA-CIS/TD-DFT FINISHED WITHOUT ERROR ***

-------------------------   --------------------
FINAL SINGLE POINT ENERGY     -5401.442267000620
-------------------------   --------------------


                            ***************************************
                            *     ORCA property calculations      *
                            ***************************************

                                    ---------------------
                                    Active property flags
                                    ---------------------
   (+) Dipole Moment


------------------------------------------------------------------------------
                       ORCA ELECTRIC PROPERTIES CALCULATION
------------------------------------------------------------------------------

Dipole Moment Calculation                       ... on
Quadrupole Moment Calculation                   ... off
Polarizability Calculation                      ... off
GBWName                                         ... BCDT-4F.gbw
Electron density file                           ... BCDT-4F.scfp
The origin for moment calculation is the CENTER OF MASS  = (18.165079,  3.522965 12.881712)

-------------
DIPOLE MOMENT
-------------
                                X             Y             Z
Electronic contribution:    -72.36877       2.25745      30.72483
Nuclear contribution   :     73.80578      -2.22317     -32.01280
                        -----------------------------------------
Total Dipole Moment    :      1.43701       0.03428      -1.28796
                        -----------------------------------------
Magnitude (a.u.)       :      1.93003
Magnitude (Debye)      :      4.90574



--------------------
Rotational spectrum 
--------------------
 
Rotational constants in cm-1:     0.002936     0.000156     0.000153 
Rotational constants in MHz :    88.032623     4.670359     4.579373 

 Dipole components along the rotational axes: 
x,y,z [a.u.] :    -0.516804     1.852884     0.157313 
x,y,z [Debye]:    -1.313611     4.709657     0.399858 

 

Timings for individual modules:

Sum of individual times         ...     5823.504 sec (=  97.058 min)
GTO integral calculation        ...        3.991 sec (=   0.067 min)   0.1 %
SCF iterations                  ...     5812.979 sec (=  96.883 min)  99.8 %
CIS module                      ...        6.534 sec (=   0.109 min)   0.1 %
                             ****ORCA TERMINATED NORMALLY****
TOTAL RUN TIME: 0 days 1 hours 37 minutes 4 seconds 180 msec
