
                                 *****************
                                 * O   R   C   A *
                                 *****************

           --- An Ab Initio, DFT and Semiempirical electronic structure package ---

                  #######################################################
                  #                        -***-                        #
                  #          Department of theory and spectroscopy      #
                  #               Directorship: Frank Neese             #
                  #        Max Planck Institute fuer Kohlenforschung    #
                  #                Kaiser Wilhelm Platz 1               #
                  #                 D-45470 Muelheim/Ruhr               #
                  #                      Germany                        #
                  #                                                     #
                  #                  All rights reserved                #
                  #                        -***-                        #
                  #######################################################


                         Program Version 4.2.0 -  RELEASE  -


 With contributions from (in alphabetic order):
   Daniel Aravena         : Magnetic Suceptibility
   Michael Atanasov       : Ab Initio Ligand Field Theory (pilot matlab implementation)
   Alexander A. Auer      : GIAO ZORA, VPT2
   Ute Becker             : Parallelization
   Giovanni Bistoni       : ED, misc. LED, open-shell LED, HFLED
   Martin Brehm           : Molecular dynamics
   Dmytro Bykov           : SCF Hessian
   Vijay G. Chilkuri      : MRCI spin determinant printing, contributions to CSF-ICE
   Dipayan Datta          : RHF DLPNO-CCSD density
   Achintya Kumar Dutta   : EOM-CC, STEOM-CC
   Dmitry Ganyushin       : Spin-Orbit,Spin-Spin,Magnetic field MRCI
   Miquel Garcia          : C-PCM Hessian, Gaussian charge scheme
   Yang Guo               : DLPNO-NEVPT2, CIM, IAO-localization
   Andreas Hansen         : Spin unrestricted coupled pair/coupled cluster methods
   Benjamin Helmich-Paris : CASSCF linear response (MC-RPA)
   Lee Huntington         : MR-EOM, pCC
   Robert Izsak           : Overlap fitted RIJCOSX, COSX-SCS-MP3, EOM
   Christian Kollmar      : KDIIS, OOCD, Brueckner-CCSD(T), CCSD density
   Simone Kossmann        : Meta GGA functionals, TD-DFT gradient, OOMP2, MP2 Hessian
   Martin Krupicka        : AUTO-CI
   Lucas Lang             : DCDCAS
   Dagmar Lenk            : GEPOL surface, SMD
   Dimitrios Liakos       : Extrapolation schemes; Compound Job, initial MDCI parallelization
   Dimitrios Manganas     : Further ROCIS development; embedding schemes
   Dimitrios Pantazis     : SARC Basis sets
   Taras Petrenko         : DFT Hessian,TD-DFT gradient, ASA, ECA, R-Raman, ABS, FL, XAS/XES, NRVS
   Peter Pinski           : DLPNO-MP2, DLPNO-MP2 Gradient
   Christoph Reimann      : Effective Core Potentials
   Marius Retegan         : Local ZFS, SOC
   Christoph Riplinger    : Optimizer, TS searches, QM/MM, DLPNO-CCSD(T), (RO)-DLPNO pert. Triples
   Tobias Risthaus        : Range-separated hybrids, TD-DFT gradient, RPA, STAB
   Michael Roemelt        : Original ROCIS implementation
   Masaaki Saitow         : Open-shell DLPNO-CCSD energy and density
   Barbara Sandhoefer     : DKH picture change effects
   Avijit Sen             : IP-ROCIS
   Kantharuban Sivalingam : CASSCF convergence, NEVPT2, FIC-MRCI
   Bernardo de Souza      : ESD, SOC TD-DFT
   Georgi Stoychev        : AutoAux, RI-MP2 NMR
   Willem Van den Heuvel  : Paramagnetic NMR
   Boris Wezisla          : Elementary symmetry handling
   Frank Wennmohs         : Technical directorship


 We gratefully acknowledge several colleagues who have allowed us to
 interface, adapt or use parts of their codes:
   Stefan Grimme, W. Hujo, H. Kruse,             : VdW corrections, initial TS optimization,
                  C. Bannwarth                     DFT functionals, gCP, sTDA/sTD-DF
   Ed Valeev, F. Pavosevic, A. Kumar             : LibInt (2-el integral package), F12 methods
   Garnet Chan, S. Sharma, J. Yang, R. Olivares  : DMRG
   Ulf Ekstrom                                   : XCFun DFT Library
   Mihaly Kallay                                 : mrcc  (arbitrary order and MRCC methods)
   Andreas Klamt, Michael Diedenhofen            : otool_cosmo (COSMO solvation model)
   Jiri Pittner, Ondrej Demel                    : Mk-CCSD
   Frank Weinhold                                : gennbo (NPA and NBO analysis)
   Christopher J. Cramer and Donald G. Truhlar   : smd solvation model
   Lars Goerigk                                  : TD-DFT with DH, B97 family of functionals
   V. Asgeirsson, H. Jonsson                     : NEB implementation
   FAccTs GmbH                                   : IRC, NEB, NEB-TS, Multilevel, MM, QM/MM, CI optimization
   S Lehtola, MJT Oliveira, MAL Marques          : LibXC Library


 Your calculation uses the libint2 library for the computation of 2-el integrals
 For citations please refer to: http://libint.valeyev.net

 Your ORCA version has been built with support for libXC version: 4.2.3
 For citations please refer to: https://tddft.org/programs/libxc/

 This ORCA versions uses:
   CBLAS   interface :  Fast vector & matrix operations
   LAPACKE interface :  Fast linear algebra routines
   SCALAPACK package :  Parallel linear algebra routines


XCFun DFT library Copyright 2009-2010 Ulf Ekstrom and contributors.
See http://admol.org/xcfun for more information. This is free soft-
ware; see the source code for copying conditions. There is ABSOLUTELY
NO WARRANTY; not even for MERCHANTABILITY or FITNESS FOR A PARTICULAR
PURPOSE. For details see the documentation. Scientific users of this 
library should cite U. Ekstrom, L. Visscher, R. Bast, A. J. Thorvald-
sen and K. Ruud; J.Chem.Theor.Comp. 2010, DOI: 10.1021/ct100117s
XCFun Version 0.99 
----- Orbital basis set information -----
Your calculation utilizes the basis: def2-SVP
   F. Weigend and R. Ahlrichs, Phys. Chem. Chem. Phys. 7, 3297 (2005).

----- AuxJ basis set information -----
Your calculation utilizes the auxiliary basis: def2/J
   F. Weigend, Phys. Chem. Chem. Phys. 8, 1057 (2006).

================================================================================
                                        WARNINGS
                       Please study these warnings very carefully!
================================================================================

INFO   : Checking CIS options ...

WARNING: CIS/ROCIS methods need fully converged wavefunctions
  ===> : Setting SCFConvForced true
         You can overwrite this default with %scf ConvForced false 


INFO   : the flag for use of LIBINT has been found!

================================================================================
                                       INPUT FILE
================================================================================
NAME = BCDT-4F.inp
|  1> # ORCA input file
|  2> # BCDT-4F.out: Geometry 166
|  3> ! CAM-B3LYP def2-SVP def2/J RIJCOSX Grid4 TightSCF
|  4> %maxcore 5000
|  5> %tddft
|  6>     Mode sTDDFT
|  7>     Ethresh 5.0
|  8>     maxcore 5000
|  9> end
| 10> * xyz 0 1
| 11>    C        2.33218        -1.21393        -3.61652
| 12>    O        1.55547        -1.99376        -3.10448
| 13>    C        2.52990        -0.98580        -5.07127
| 14>    C        1.89208        -1.62675        -6.12760
| 15>    C        2.25614        -1.25652        -7.41778
| 16>    C        3.23565        -0.26647        -7.62464
| 17>    C        3.86285         0.38448        -6.56385
| 18>    C        3.50203         0.01645        -5.26169
| 19>    C        3.91671         0.53963        -3.93161
| 20>    C        4.56136         1.75472        -3.74132
| 21>    C        4.63272         2.41648        -2.47976
| 22>    N        4.69689         2.99631        -1.47422
| 23>    C        5.12931         2.50496        -4.81711
| 24>    N        5.62184         3.11807        -5.67345
| 25>    C        3.32285        -0.32555        -2.92446
| 26>    F        3.56482         0.05241        -8.87397
| 27>    C        3.52612        -0.52822        -1.57259
| 28>    F        1.68675        -1.83292        -8.47403
| 29>    C       13.79329         5.08857        18.79255
| 30>    O       13.07972         6.05439        18.97068
| 31>    C       14.96814         4.67910        19.61030
| 32>    C       15.52718         5.33676        20.70093
| 33>    C       16.63528         4.75426        21.31029
| 34>    C       17.14558         3.53101        20.83856
| 35>    C       16.58100         2.87290        19.74685
| 36>    C       15.47800         3.46206        19.11600
| 37>    C       14.62306         3.00994        17.98280
| 38>    C       14.60105         1.71289        17.48590
| 39>    C       13.53725         1.21824        16.67660
| 40>    N       12.66382         0.78843        16.04119
| 41>    C       15.56643         0.72729        17.85680
| 42>    N       16.35412        -0.07958        18.13978
| 43>    C       13.69397         4.08202        17.68503
| 44>    F       18.19349         2.99314        21.46073
| 45>    C       12.83475         4.38097        16.64169
| 46>    F       17.22972         5.34411        22.34626
| 47>    C       12.74578         3.92735        15.30729
| 48>    S       11.29656         4.36188        14.37686
| 49>    C       11.93061         3.60453        12.97855
| 50>    C       13.22110         3.06722        13.18372
| 51>    C       13.66280         3.22784        14.49451
| 52>    C       11.51049         3.32608        11.64070
| 53>    C       12.53843         2.64121        10.98795
| 54>    C       13.73110         2.40588        11.90306
| 55>    S       10.10854         3.51968        10.65192
| 56>    C       10.92849         2.71319         9.30352
| 57>    C       12.21720         2.30608         9.66815
| 58>    C       10.28167         2.51880         8.01839
| 59>    C       10.98966         2.24821         6.84193
| 60>    C       10.34816         1.94618         5.58905
| 61>    C        8.96303         1.92807         5.41675
| 62>    C        8.20380         2.25639         6.59553
| 63>    C        8.84877         2.55418         7.86570
| 64>    N        6.87642         2.32552         6.65619
| 65>    S        6.46960         2.75212         8.18925
| 66>    N        7.97933         2.85542         8.82777
| 67>    C        8.32693         1.59362         4.15437
| 68>    S        6.66020         1.00081         4.08838
| 69>    C        6.77713         0.81284         2.37811
| 70>    C        8.01188         1.23536         1.86936
| 71>    C        8.89166         1.65817         2.87529
| 72>    C        5.95563         0.37663         1.29012
| 73>    C        6.67618         0.52273         0.08874
| 74>    C        8.05851         1.11602         0.35085
| 75>    S        4.35023        -0.17597         1.03431
| 76>    C        4.59621        -0.15903        -0.72411
| 77>    C        5.91150         0.23005        -1.03631
| 78>    O       12.34577         2.18567         6.85492
| 79>    O       11.17527         1.65840         4.54570
| 80>    C       13.08797         3.18099         6.12149
| 81>    C       13.69003         4.20130         7.06801
| 82>    C       11.67059         0.30763         4.48806
| 83>    C       12.30832         0.10055         3.13036
| 84>    C        9.21701         0.20413        -0.11913
| 85>    C        9.18454        -1.21807         0.43439
| 86>    C        8.11217         2.51345        -0.33400
| 87>    C        9.40216         3.30714        -0.13984
| 88>    C       13.98492         0.88975        12.09516
| 89>    C       12.75957         0.08842        12.52791
| 90>    C       14.96811         3.13255        11.30802
| 91>    C       16.27864         2.97459        12.07183
| 92>    H        1.13186        -2.39042        -5.95485
| 93>    H        4.60640         1.14501        -6.79552
| 94>    H        2.73386        -1.13897        -1.11870
| 95>    H       15.11289         6.27407        21.07521
| 96>    H       17.02456         1.93114        19.43134
| 97>    H       12.14796         5.19661        16.90618
| 98>    H       14.62208         2.88072        14.87404
| 99>    H       12.86516         1.77173         8.98091
|100>    H        9.90216         2.01921         2.71561
|101>    H        6.27057         0.27722        -2.06343
|102>    H       12.43215         3.65903         5.37965
|103>    H       13.87045         2.63727         5.57060
|104>    H       12.90707         4.75432         7.60824
|105>    H       14.29801         4.92433         6.49992
|106>    H       14.33610         3.71375         7.81347
|107>    H       10.82721        -0.38753         4.64449
|108>    H       12.39572         0.15528         5.30535
|109>    H       11.55818         0.17983         2.32940
|110>    H       12.77264        -0.89605         3.07476
|111>    H       13.08943         0.85457         2.95025
|112>    H       10.16455         0.68742         0.16892
|113>    H        9.20873         0.18058        -1.22221
|114>    H        9.25822        -1.22389         1.53362
|115>    H       10.02337        -1.80994         0.03721
|116>    H        8.25285        -1.73710         0.15975
|117>    H        7.25051         3.09811         0.02348
|118>    H        7.93539         2.36062        -1.41189
|119>    H        9.61210         3.50257         0.92252
|120>    H        9.31918         4.28245        -0.64217
|121>    H       10.27411         2.79310        -0.57127
|122>    H       14.78673         0.75775        12.83930
|123>    H       14.38041         0.49601        11.14267
|124>    H       12.39160         0.41837        13.51110
|125>    H       13.01671        -0.97859        12.61349
|126>    H       11.93741         0.18017        11.80181
|127>    H       14.71443         4.20148        11.21608
|128>    H       15.10274         2.75796        10.27876
|129>    H       16.19302         3.33118        13.10992
|130>    H       17.07150         3.56717        11.59091
|131>    H       16.61835         1.92854        12.09589
|132> *
|133> 
|134>                          ****END OF INPUT****
================================================================================

                       ****************************
                       * Single Point Calculation *
                       ****************************

---------------------------------
CARTESIAN COORDINATES (ANGSTROEM)
---------------------------------
  C      2.332180   -1.213930   -3.616520
  O      1.555470   -1.993760   -3.104480
  C      2.529900   -0.985800   -5.071270
  C      1.892080   -1.626750   -6.127600
  C      2.256140   -1.256520   -7.417780
  C      3.235650   -0.266470   -7.624640
  C      3.862850    0.384480   -6.563850
  C      3.502030    0.016450   -5.261690
  C      3.916710    0.539630   -3.931610
  C      4.561360    1.754720   -3.741320
  C      4.632720    2.416480   -2.479760
  N      4.696890    2.996310   -1.474220
  C      5.129310    2.504960   -4.817110
  N      5.621840    3.118070   -5.673450
  C      3.322850   -0.325550   -2.924460
  F      3.564820    0.052410   -8.873970
  C      3.526120   -0.528220   -1.572590
  F      1.686750   -1.832920   -8.474030
  C     13.793290    5.088570   18.792550
  O     13.079720    6.054390   18.970680
  C     14.968140    4.679100   19.610300
  C     15.527180    5.336760   20.700930
  C     16.635280    4.754260   21.310290
  C     17.145580    3.531010   20.838560
  C     16.581000    2.872900   19.746850
  C     15.478000    3.462060   19.116000
  C     14.623060    3.009940   17.982800
  C     14.601050    1.712890   17.485900
  C     13.537250    1.218240   16.676600
  N     12.663820    0.788430   16.041190
  C     15.566430    0.727290   17.856800
  N     16.354120   -0.079580   18.139780
  C     13.693970    4.082020   17.685030
  F     18.193490    2.993140   21.460730
  C     12.834750    4.380970   16.641690
  F     17.229720    5.344110   22.346260
  C     12.745780    3.927350   15.307290
  S     11.296560    4.361880   14.376860
  C     11.930610    3.604530   12.978550
  C     13.221100    3.067220   13.183720
  C     13.662800    3.227840   14.494510
  C     11.510490    3.326080   11.640700
  C     12.538430    2.641210   10.987950
  C     13.731100    2.405880   11.903060
  S     10.108540    3.519680   10.651920
  C     10.928490    2.713190    9.303520
  C     12.217200    2.306080    9.668150
  C     10.281670    2.518800    8.018390
  C     10.989660    2.248210    6.841930
  C     10.348160    1.946180    5.589050
  C      8.963030    1.928070    5.416750
  C      8.203800    2.256390    6.595530
  C      8.848770    2.554180    7.865700
  N      6.876420    2.325520    6.656190
  S      6.469600    2.752120    8.189250
  N      7.979330    2.855420    8.827770
  C      8.326930    1.593620    4.154370
  S      6.660200    1.000810    4.088380
  C      6.777130    0.812840    2.378110
  C      8.011880    1.235360    1.869360
  C      8.891660    1.658170    2.875290
  C      5.955630    0.376630    1.290120
  C      6.676180    0.522730    0.088740
  C      8.058510    1.116020    0.350850
  S      4.350230   -0.175970    1.034310
  C      4.596210   -0.159030   -0.724110
  C      5.911500    0.230050   -1.036310
  O     12.345770    2.185670    6.854920
  O     11.175270    1.658400    4.545700
  C     13.087970    3.180990    6.121490
  C     13.690030    4.201300    7.068010
  C     11.670590    0.307630    4.488060
  C     12.308320    0.100550    3.130360
  C      9.217010    0.204130   -0.119130
  C      9.184540   -1.218070    0.434390
  C      8.112170    2.513450   -0.334000
  C      9.402160    3.307140   -0.139840
  C     13.984920    0.889750   12.095160
  C     12.759570    0.088420   12.527910
  C     14.968110    3.132550   11.308020
  C     16.278640    2.974590   12.071830
  H      1.131860   -2.390420   -5.954850
  H      4.606400    1.145010   -6.795520
  H      2.733860   -1.138970   -1.118700
  H     15.112890    6.274070   21.075210
  H     17.024560    1.931140   19.431340
  H     12.147960    5.196610   16.906180
  H     14.622080    2.880720   14.874040
  H     12.865160    1.771730    8.980910
  H      9.902160    2.019210    2.715610
  H      6.270570    0.277220   -2.063430
  H     12.432150    3.659030    5.379650
  H     13.870450    2.637270    5.570600
  H     12.907070    4.754320    7.608240
  H     14.298010    4.924330    6.499920
  H     14.336100    3.713750    7.813470
  H     10.827210   -0.387530    4.644490
  H     12.395720    0.155280    5.305350
  H     11.558180    0.179830    2.329400
  H     12.772640   -0.896050    3.074760
  H     13.089430    0.854570    2.950250
  H     10.164550    0.687420    0.168920
  H      9.208730    0.180580   -1.222210
  H      9.258220   -1.223890    1.533620
  H     10.023370   -1.809940    0.037210
  H      8.252850   -1.737100    0.159750
  H      7.250510    3.098110    0.023480
  H      7.935390    2.360620   -1.411890
  H      9.612100    3.502570    0.922520
  H      9.319180    4.282450   -0.642170
  H     10.274110    2.793100   -0.571270
  H     14.786730    0.757750   12.839300
  H     14.380410    0.496010   11.142670
  H     12.391600    0.418370   13.511100
  H     13.016710   -0.978590   12.613490
  H     11.937410    0.180170   11.801810
  H     14.714430    4.201480   11.216080
  H     15.102740    2.757960   10.278760
  H     16.193020    3.331180   13.109920
  H     17.071500    3.567170   11.590910
  H     16.618350    1.928540   12.095890

----------------------------
CARTESIAN COORDINATES (A.U.)
----------------------------
  NO LB      ZA    FRAG     MASS         X           Y           Z
   0 C     6.0000    0    12.011    4.407181   -2.293995   -6.834232
   1 O     8.0000    0    15.999    2.939412   -3.767660   -5.866617
   2 C     6.0000    0    12.011    4.780818   -1.862892   -9.583311
   3 C     6.0000    0    12.011    3.575513   -3.074112  -11.579486
   4 C     6.0000    0    12.011    4.263487   -2.374479  -14.017573
   5 C     6.0000    0    12.011    6.114492   -0.503555  -14.408481
   6 C     6.0000    0    12.011    7.299729    0.726562  -12.403879
   7 C     6.0000    0    12.011    6.617878    0.031086   -9.943153
   8 C     6.0000    0    12.011    7.401509    1.019753   -7.429666
   9 C     6.0000    0    12.011    8.619721    3.315940   -7.070070
  10 C     6.0000    0    12.011    8.754572    4.566485   -4.686067
  11 N     7.0000    0    14.007    8.875836    5.662205   -2.785872
  12 C     6.0000    0    12.011    9.692991    4.733688   -9.103019
  13 N     7.0000    0    14.007   10.623738    5.892298  -10.721267
  14 C     6.0000    0    12.011    6.279276   -0.615200   -5.526428
  15 F     9.0000    0    18.998    6.736534    0.099041  -16.769373
  16 C     6.0000    0    12.011    6.663401   -0.998191   -2.971764
  17 F     9.0000    0    18.998    3.187496   -3.463717  -16.013596
  18 C     6.0000    0    12.011   26.065541    9.616004   35.512773
  19 O     8.0000    0    15.999   24.717089   11.441139   35.849390
  20 C     6.0000    0    12.011   28.285685    8.842218   37.058096
  21 C     6.0000    0    12.011   29.342118   10.085015   39.119088
  22 C     6.0000    0    12.011   31.436123    8.984249   40.270612
  23 C     6.0000    0    12.011   32.400451    6.672642   39.379171
  24 C     6.0000    0    12.011   31.333549    5.428994   37.316139
  25 C     6.0000    0    12.011   29.249181    6.542345   36.124005
  26 C     6.0000    0    12.011   27.633579    5.687962   33.982567
  27 C     6.0000    0    12.011   27.591986    3.236893   33.043562
  28 C     6.0000    0    12.011   25.581695    2.302140   31.514207
  29 N     7.0000    0    14.007   23.931152    1.489917   30.313456
  30 C     6.0000    0    12.011   29.416290    1.374379   33.744462
  31 N     7.0000    0    14.007   30.904808   -0.150384   34.279216
  32 C     6.0000    0    12.011   25.877853    7.713900   33.419863
  33 F     9.0000    0    18.998   34.380714    5.656215   40.554902
  34 C     6.0000    0    12.011   24.254162    8.278834   31.448237
  35 F     9.0000    0    18.998   32.559452   10.098904   42.228312
  36 C     6.0000    0    12.011   24.086034    7.421616   28.926586
  37 S    16.0000    0    32.060   21.347405    8.242759   27.168328
  38 C     6.0000    0    12.011   22.545586    6.811575   24.525905
  39 C     6.0000    0    12.011   24.984258    5.796206   24.913620
  40 C     6.0000    0    12.011   25.818950    6.099734   27.390654
  41 C     6.0000    0    12.011   21.751674    6.285380   21.997735
  42 C     6.0000    0    12.011   23.694199    4.991164   20.764216
  43 C     6.0000    0    12.011   25.948019    4.546454   22.493524
  44 S    16.0000    0    32.060   19.102372    6.651231   20.129212
  45 C     6.0000    0    12.011   20.651853    5.127186   17.581105
  46 C     6.0000    0    12.011   23.087162    4.357860   18.270156
  47 C     6.0000    0    12.011   19.429540    4.759842   15.152561
  48 C     6.0000    0    12.011   20.767448    4.248501   12.929374
  49 C     6.0000    0    12.011   19.555188    3.677747   10.561774
  50 C     6.0000    0    12.011   16.937672    3.643524   10.236174
  51 C     6.0000    0    12.011   15.502935    4.263959   12.463745
  52 C     6.0000    0    12.011   16.721752    4.826701   14.864019
  53 N     7.0000    0    14.007   12.994551    4.394596   12.578376
  54 S    16.0000    0    32.060   12.225772    5.200753   15.475440
  55 N     7.0000    0    14.007   15.078748    5.395962   16.682068
  56 C     6.0000    0    12.011   15.735617    3.011505    7.850622
  57 S    16.0000    0    32.060   12.585954    1.891257    7.725919
  58 C     6.0000    0    12.011   12.806920    1.536045    4.493977
  59 C     6.0000    0    12.011   15.140259    2.334492    3.532578
  60 C     6.0000    0    12.011   16.802802    3.133487    5.433511
  61 C     6.0000    0    12.011   11.254510    0.711728    2.437973
  62 C     6.0000    0    12.011   12.616152    0.987817    0.167694
  63 C     6.0000    0    12.011   15.228377    2.108972    0.663010
  64 S    16.0000    0    32.060    8.220743   -0.332535    1.954563
  65 C     6.0000    0    12.011    8.685578   -0.300523   -1.368370
  66 C     6.0000    0    12.011   11.171116    0.434731   -1.958342
  67 O     8.0000    0    15.999   23.330124    4.130318   12.953921
  68 O     8.0000    0    15.999   21.118200    3.133922    8.590128
  69 C     6.0000    0    12.011   24.732679    6.011200   11.567940
  70 C     6.0000    0    12.011   25.870407    7.939306   13.356603
  71 C     6.0000    0    12.011   22.054219    0.581336    8.481204
  72 C     6.0000    0    12.011   23.259354    0.190012    5.915523
  73 C     6.0000    0    12.011   17.417625    0.385750   -0.225123
  74 C     6.0000    0    12.011   17.356265   -2.301819    0.820878
  75 C     6.0000    0    12.011   15.329780    4.749732   -0.631169
  76 C     6.0000    0    12.011   17.767507    6.249589   -0.264259
  77 C     6.0000    0    12.011   26.427669    1.681384   22.856540
  78 C     6.0000    0    12.011   24.112093    0.167090   23.674319
  79 C     6.0000    0    12.011   28.285629    5.919662   21.369061
  80 C     6.0000    0    12.011   30.762171    5.621160   22.812453
  81 H     1.0000    0     1.008    2.138905   -4.517239  -11.253036
  82 H     1.0000    0     1.008    8.704834    2.163755  -12.841672
  83 H     1.0000    0     1.008    5.166247   -2.152341   -2.114037
  84 H     1.0000    0     1.008   28.559223   11.856274   39.826375
  85 H     1.0000    0     1.008   32.171756    3.649326   36.719911
  86 H     1.0000    0     1.008   22.956317    9.820170   31.948050
  87 H     1.0000    0     1.008   27.631727    5.443772   28.107862
  88 H     1.0000    0     1.008   24.311629    3.348084   16.971460
  89 H     1.0000    0     1.008   18.712371    3.815754    5.131759
  90 H     1.0000    0     1.008   11.849660    0.523870   -3.899318
  91 H     1.0000    0     1.008   23.493359    6.914565   10.166065
  92 H     1.0000    0     1.008   26.211352    4.983718   10.526908
  93 H     1.0000    0     1.008   24.390827    8.984363   14.377490
  94 H     1.0000    0     1.008   27.019323    9.305635   12.283069
  95 H     1.0000    0     1.008   27.091303    7.017970   14.765318
  96 H     1.0000    0     1.008   20.460462   -0.732326    8.776814
  97 H     1.0000    0     1.008   23.424516    0.293437   10.025659
  98 H     1.0000    0     1.008   21.841795    0.339829    4.401928
  99 H     1.0000    0     1.008   24.136792   -1.693289    5.810454
 100 H     1.0000    0     1.008   24.735438    1.614903    5.575165
 101 H     1.0000    0     1.008   19.208216    1.299036    0.319213
 102 H     1.0000    0     1.008   17.401978    0.341247   -2.309642
 103 H     1.0000    0     1.008   17.495500   -2.312817    2.898122
 104 H     1.0000    0     1.008   18.941424   -3.420291    0.070317
 105 H     1.0000    0     1.008   15.595626   -3.282643    0.301884
 106 H     1.0000    0     1.008   13.701478    5.854579    0.044371
 107 H     1.0000    0     1.008   14.995714    4.460925   -2.668085
 108 H     1.0000    0     1.008   18.164237    6.618898    1.743310
 109 H     1.0000    0     1.008   17.610698    8.092658   -1.213525
 110 H     1.0000    0     1.008   19.415254    5.278194   -1.079544
 111 H     1.0000    0     1.008   27.942870    1.431940   24.262761
 112 H     1.0000    0     1.008   27.175037    0.937323   21.056595
 113 H     1.0000    0     1.008   23.416730    0.790605   25.532279
 114 H     1.0000    0     1.008   24.598017   -1.849267   23.836042
 115 H     1.0000    0     1.008   22.558436    0.340472   22.302189
 116 H     1.0000    0     1.008   27.806243    7.939647   21.195319
 117 H     1.0000    0     1.008   28.540042    5.211789   19.424041
 118 H     1.0000    0     1.008   30.600373    6.295018   24.774158
 119 H     1.0000    0     1.008   32.260460    6.740974   21.903646
 120 H     1.0000    0     1.008   31.404130    3.644412   22.857919

--------------------------------
INTERNAL COORDINATES (ANGSTROEM)
--------------------------------
 C      0   0   0     0.000000000000     0.00000000     0.00000000
 O      1   0   0     1.213918537053     0.00000000     0.00000000
 C      1   2   0     1.485743604327   126.64075249     0.00000000
 C      3   1   2     1.390490677351   127.73523333   358.75581083
 C      4   3   1     1.390745975691   117.51382230   180.86902911
 C      5   4   3     1.407987891354   120.37087950   359.95025583
 C      6   5   4     1.393696942165   121.98353254   359.34480701
 C      7   6   5     1.400449148988   117.97099530     0.67644999
 C      8   7   6     1.488216926795   131.82352455   183.26144714
 C      9   8   7     1.388606357000   124.01794341    15.49784687
 C     10   9   8     1.426377292584   123.39439131   162.38918677
 N     11  10   9     1.162510778187   177.69430301   204.13023098
 C     10   9   8     1.429248538289   122.72850319   347.19325533
 N     13  10   9     1.162672726351   178.22848678   229.86055636
 C      9   8   7     1.454495532650   107.21641110   185.94625263
 F      6   5   4     1.330737687225   118.58822302   179.44733355
 C     15   9   8     1.382008074759   134.79057845   165.11997578
 F      5   4   3     1.331204715511   120.58695449   179.84237663
 C     12  11  10    22.312866492239   148.75172291   231.43610564
 O     19  12  11     1.213968992273    88.18047802   180.77781311
 C     19  12  11     1.488842928552   142.63580666    18.80032093
 C     21  19  12     1.390868863013   128.15662897   154.13309002
 C     22  21  19     1.392304373907   117.72670331   180.01146573
 C     23  22  21     1.406867387283   120.37763648   359.02119628
 C     24  23  22     1.394162857273   121.74323504     0.87672048
 C     25  24  23     1.400603522807   118.23228303     0.05884069
 C     26  25  24     1.489790971244   131.82638030   182.66224194
 C     27  26  25     1.389148211171   124.36995781    14.43884535
 C     28  27  26     1.425242278527   122.61523902   162.02006878
 N     29  28  27     1.162481169353   178.19768098   238.30817631
 C     28  27  26     1.428612163745   122.72361243   348.75573390
 N     31  28  27     1.162571465932   179.03571635   226.68732713
 C     27  26  25     1.449562253717   107.43471299   184.66777747
 F     24  23  22     1.332109234973   118.67261990   181.09529027
 C     33  27  26     1.384264594108   135.42972630   166.31075080
 F     23  22  21     1.332109521398   120.68150250   178.96539868
 C     35  33  27     1.412200455070   132.99428176   342.25572368
 S     37  35  33     1.776162975124   117.89183024   169.24802215
 C     38  37  35     1.711978177752    90.99984721   176.87821315
 C     39  38  37     1.412855691534   112.82470688   358.27770821
 C     40  39  38     1.392504254392   112.49203169     2.46403198
 C     39  38  37     1.429642556515   137.87338821   176.45916066
 C     42  39  38     1.397064824194   108.45075563   180.50184667
 C     43  42  39     1.521600555304   111.81106878     0.80047627
 S     42  39  38     1.726450303629   138.82830812   356.69756089
 C     45  42  39     1.772265974001    90.51694282   182.05887050
 C     43  42  39     1.399061424599   112.90767145   179.26743736
 C     46  45  42     1.451799814506   121.89013768   180.59721643
 C     48  46  45     1.399473801041   122.99961053   161.15310588
 C     49  48  46     1.439601564774   123.14382679   174.71198176
 C     50  49  48     1.395922769712   123.52545685     1.74015376
 C     51  50  49     1.440050868442   114.78116536     0.83044415
 C     48  46  45     1.441446631166   122.23337968   339.39515590
 N     52  51  50     1.330562383693   125.10853973   178.65173578
 S     54  52  51     1.642486845001   107.64628006   180.82085257
 N     53  48  46     1.331258853905   125.32585787     5.06190740
 C     51  50  49     1.452612569442   123.00884594   181.36621439
 S     57  51  50     1.770244974319   121.45250533   157.08808971
 C     58  57  51     1.724537276692    90.55179495   182.48597963
 C     59  58  57     1.400698852502   112.77406563   357.59010187
 C     57  51  50     1.399690080625   127.36277910   338.17664120
 C     59  58  57     1.431385222154   138.42694535   179.84529511
 C     62  59  58     1.408492604489   108.85131046   177.88839411
 C     60  59  58     1.523905841120   111.42460041   182.61928554
 S     62  59  58     1.717007477008   138.41200153     2.30924097
 C     17  15   9     1.414677410083   131.27510761   344.32262046
 C     63  62  59     1.391450533544   112.74896100   185.21577624
 O     49  48  46     1.357613466271   120.41107521   358.48082037
 O     50  49  48     1.362170144659   116.12624501   182.27050671
 C     68  49  48     1.442027152068   118.51962295   245.61991502
 C     70  68  49     1.516380179935   110.56694947   104.34659557
 C     69  50  49     1.439876336669   115.95922676    81.85355213
 C     72  69  50     1.514242704886   108.00273765   167.90115982
 C     64  60  59     1.547432332123   111.82034361   238.09498170
 C     74  64  60     1.526463734027   115.02312128    57.96261074
 C     64  60  59     1.557147880903   111.65570089   112.13763256
 C     76  64  60     1.526995783164   116.08142286    68.65834941
 C     44  43  42     1.549185973116   110.75408615   118.23451395
 C     78  44  43     1.526723601016   114.66542261   308.18416776
 C     44  43  42     1.553163104957   108.75395572   241.74270168
 C     80  44  43     1.525072443722   116.36368872   181.77191365
 H      4   3   1     1.091315206437   121.45591480     1.02483993
 H      7   6   5     1.088551088512   118.14673430   180.42097077
 H     17  15   9     1.098502436137   112.31105505   168.70242013
 H     22  21  19     1.090995764703   121.50759711     0.38509887
 H     25  24  23     1.087751778348   118.07905816   179.89167275
 H     35  33  27     1.098591859518   111.52561644   168.16005410
 H     41  40  39     1.088463795310   124.81927153   179.39236856
 H     47  43  42     1.085210072613   125.32796900   180.18331511
 H     61  57  51     1.084876875042   121.71260056   357.68982995
 H     67  63  62     1.089096767142   124.90637328   180.06544137
 H     70  68  49     1.099522032340   109.64867689   341.08964964
 H     70  68  49     1.100629901874   106.23094409   225.17974119
 H     71  70  68     1.100320832712   111.23054236   297.00436029
 H     71  70  68     1.102333120885   109.79370475   177.01003662
 H     71  70  68     1.100373599738   110.96860266    57.17564925
 H     72  69  50     1.104086769643   108.79696527    47.01060002
 H     72  69  50     1.103171330075   109.02709900   289.36670860
 H     73  72  69     1.100241909582   110.83823837   295.52036181
 H     73  72  69     1.100861472848   110.28691794   175.44001442
 H     73  72  69     1.100508339178   110.60765201    55.76408539
 H     74  64  60     1.101986423782   107.81246770   295.62184870
 H     74  64  60     1.103362427899   108.09526396   181.33988973
 H     75  74  64     1.101711944067   111.42593923   298.64502727
 H     75  74  64     1.100771465019   110.72676507   178.63246865
 H     75  74  64     1.101301741849   111.51002020    58.93705344
 H     76  64  60     1.100943786758   107.86674978   304.59981871
 H     76  64  60     1.102930201509   107.45445904   191.41228698
 H     77  76  64     1.100398317929   112.10103689   300.63618673
 H     77  76  64     1.100204847017   109.81578870   181.43289256
 H     77  76  64     1.100302580657   112.13445218    62.42314821
 H     78  44  43     1.101847364974   108.67584249   185.62056959
 H     78  44  43     1.103938733717   107.50358260    71.05656058
 H     79  78  44     1.100423327406   111.36192015   297.39771500
 H     79  78  44     1.100888394025   110.07707986   178.37972450
 H     79  78  44     1.100720826595   111.63887299    58.63699477
 H     80  44  43     1.102459908976   107.59700432    58.04753325
 H     80  44  43     1.103548391599   107.19808866   304.15574915
 H     81  80  44     1.100962333870   111.83031723   301.67673378
 H     81  80  44     1.100482658837   110.14951643   182.73150452
 H     81  80  44     1.100091982609   112.01202689    63.26039398

---------------------------
INTERNAL COORDINATES (A.U.)
---------------------------
 C      0   0   0     0.000000000000     0.00000000     0.00000000
 O      1   0   0     2.293973583920     0.00000000     0.00000000
 C      1   2   0     2.807648517404   126.64075249     0.00000000
 C      3   1   2     2.627646571964   127.73523333   358.75581083
 C      4   3   1     2.628129015909   117.51382230   180.86902911
 C      5   4   3     2.660711514537   120.37087950   359.95025583
 C      6   5   4     2.633705534375   121.98353254   359.34480701
 C      7   6   5     2.646465356070   117.97099530     0.67644999
 C      8   7   6     2.812322419509   131.82352455   183.26144714
 C      9   8   7     2.624085722552   124.01794341    15.49784687
 C     10   9   8     2.695462446628   123.39439131   162.38918677
 N     11  10   9     2.196826998504   177.69430301   204.13023098
 C     10   9   8     2.700888314673   122.72850319   347.19325533
 N     13  10   9     2.197133036183   178.22848678   229.86055636
 C      9   8   7     2.748598219721   107.21641110   185.94625263
 F      6   5   4     2.514729784942   118.58822302   179.44733355
 C     15   9   8     2.611616776163   134.79057845   165.11997578
 F      5   4   3     2.515612340501   120.58695449   179.84237663
 C     12  11  10    42.165206933081   148.75172291   231.43610564
 O     19  12  11     2.294068930468    88.18047802   180.77781311
 C     19  12  11     2.813505391389   142.63580666    18.80032093
 C     21  19  12     2.628361239294   128.15662897   154.13309002
 C     22  21  19     2.631073961745   117.72670331   180.01146573
 C     23  22  21     2.658594068710   120.37763648   359.02119628
 C     24  23  22     2.634585986331   121.74323504     0.87672048
 C     25  24  23     2.646757080311   118.23228303     0.05884069
 C     26  25  24     2.815296932440   131.82638030   182.66224194
 C     27  26  25     2.625109678540   124.36995781    14.43884535
 C     28  27  26     2.693317580901   122.61523902   162.02006878
 N     29  28  27     2.196771045917   178.19768098   238.30817631
 C     28  27  26     2.699685741067   122.72361243   348.75573390
 N     31  28  27     2.196941681723   179.03571635   226.68732713
 C     27  26  25     2.739275673594   107.43471299   184.66777747
 F     24  23  22     2.517321634566   118.67261990   181.09529027
 C     33  27  26     2.615880979747   135.42972630   166.31075080
 F     23  22  21     2.517322175832   120.68150250   178.96539868
 C     35  33  27     2.668672106281   132.99428176   342.25572368
 S     37  35  33     3.356461592194   117.89183024   169.24802215
 C     38  37  35     3.235169903201    90.99984721   176.87821315
 C     39  38  37     2.669910323751   112.82470688   358.27770821
 C     40  39  38     2.631451681121   112.49203169     2.46403198
 C     39  38  37     2.701632901213   137.87338821   176.45916066
 C     42  39  38     2.640069909061   108.45075563   180.50184667
 C     43  42  39     2.875408334746   111.81106878     0.80047627
 S     42  39  38     3.262518257684   138.82830812   356.69756089
 C     45  42  39     3.349097327328    90.51694282   182.05887050
 C     43  42  39     2.643842937025   112.90767145   179.26743736
 C     46  45  42     2.743504050694   121.89013768   180.59721643
 C     48  46  45     2.644622215565   122.99961053   161.15310588
 C     49  48  46     2.720452699388   123.14382679   174.71198176
 C     50  49  48     2.637911738860   123.52545685     1.74015376
 C     51  50  49     2.721301760270   114.78116536     0.83044415
 C     48  46  45     2.723939369567   122.23337968   339.39515590
 N     52  51  50     2.514398509278   125.10853973   178.65173578
 S     54  52  51     3.103850315619   107.64628006   180.82085257
 N     53  48  46     2.515714647238   125.32585787     5.06190740
 C     51  50  49     2.745039934936   123.00884594   181.36621439
 S     57  51  50     3.345278191412   121.45250533   157.08808971
 C     58  57  51     3.258903160686    90.55179495   182.48597963
 C     59  58  57     2.646937227326   112.77406563   357.59010187
 C     57  51  50     2.645030924747   127.36277910   338.17664120
 C     59  58  57     2.704926062013   138.42694535   179.84529511
 C     62  59  58     2.661665284138   108.85131046   177.88839411
 C     60  59  58     2.879764693600   111.42460041   182.61928554
 S     62  59  58     3.244673901439   138.41200153     2.30924097
 C     17  15   9     2.673352872902   131.27510761   344.32262046
 C     63  62  59     2.629460437297   112.74896100   185.21577624
 O     49  48  46     2.565517646975   120.41107521   358.48082037
 O     50  49  48     2.574128521209   116.12624501   182.27050671
 C     68  49  48     2.725036395086   118.51962295   245.61991502
 C     70  68  49     2.865543254984   110.56694947   104.34659557
 C     69  50  49     2.720971943019   115.95922676    81.85355213
 C     72  69  50     2.861504012522   108.00273765   167.90115982
 C     64  60  59     2.924223318488   111.82034361   238.09498170
 C     74  64  60     2.884598410674   115.02312128    57.96261074
 C     64  60  59     2.942583044922   111.65570089   112.13763256
 C     76  64  60     2.885603837832   116.08142286    68.65834941
 C     44  43  42     2.927537219702   110.75408615   118.23451395
 C     78  44  43     2.885089488115   114.66542261   308.18416776
 C     44  43  42     2.935052909680   108.75395572   241.74270168
 C     80  44  43     2.881969253024   116.36368872   181.77191365
 H      4   3   1     2.062286865949   121.45591480     1.02483993
 H      7   6   5     2.057063440069   118.14673430   180.42097077
 H     17  15   9     2.075868761745   112.31105505   168.70242013
 H     22  21  19     2.061683208557   121.50759711     0.38509887
 H     25  24  23     2.055552962764   118.07905816   179.89167275
 H     35  33  27     2.076037747445   111.52561644   168.16005410
 H     41  40  39     2.056898479824   124.81927153   179.39236856
 H     47  43  42     2.050749835011   125.32796900   180.18331511
 H     61  57  51     2.050120182853   121.71260056   357.68982995
 H     67  63  62     2.058094623238   124.90637328   180.06544137
 H     70  68  49     2.077795519334   109.64867689   341.08964964
 H     70  68  49     2.079889089347   106.23094409   225.17974119
 H     71  70  68     2.079305033274   111.23054236   297.00436029
 H     71  70  68     2.083107706823   109.79370475   177.01003662
 H     71  70  68     2.079404748502   110.96860266    57.17564925
 H     72  69  50     2.086421622710   108.79696527    47.01060002
 H     72  69  50     2.084691692636   109.02709900   289.36670860
 H     73  72  69     2.079155890172   110.83823837   295.52036181
 H     73  72  69     2.080326695067   110.28691794   175.44001442
 H     73  72  69     2.079659369143   110.60765201    55.76408539
 H     74  64  60     2.082452544247   107.81246770   295.62184870
 H     74  64  60     2.085052815188   108.09526396   181.33988973
 H     75  74  64     2.081933852757   111.42593923   298.64502727
 H     75  74  64     2.080156604921   110.72676507   178.63246865
 H     75  74  64     2.081158682905   111.51002020    58.93705344
 H     76  64  60     2.080482245814   107.86674978   304.59981871
 H     76  64  60     2.084236025682   107.45445904   191.41228698
 H     77  76  64     2.079451459113   112.10103689   300.63618673
 H     77  76  64     2.079085852075   109.81578870   181.43289256
 H     77  76  64     2.079270541888   112.13445218    62.42314821
 H     78  44  43     2.082189761184   108.67584249   185.62056959
 H     78  44  43     2.086141875352   107.50358260    71.05656058
 H     79  78  44     2.079498720176   111.36192015   297.39771500
 H     79  78  44     2.080377568721   110.07707986   178.37972450
 H     79  78  44     2.080060912168   111.63887299    58.63699477
 H     80  44  43     2.083347301593   107.59700432    58.04753325
 H     80  44  43     2.085404235651   107.19808866   304.15574915
 H     81  80  44     2.080517294777   111.83031723   301.67673378
 H     81  80  44     2.079610840331   110.14951643   182.73150452
 H     81  80  44     2.078872569253   112.01202689    63.26039398

---------------------
BASIS SET INFORMATION
---------------------
There are 6 groups of distinct atoms

 Group   1 Type C   : 7s4p1d contracted to 3s2p1d pattern {511/31/1}
 Group   2 Type O   : 7s4p1d contracted to 3s2p1d pattern {511/31/1}
 Group   3 Type N   : 7s4p1d contracted to 3s2p1d pattern {511/31/1}
 Group   4 Type F   : 7s4p1d contracted to 3s2p1d pattern {511/31/1}
 Group   5 Type S   : 10s7p1d contracted to 4s3p1d pattern {5311/511/1}
 Group   6 Type H   : 4s1p contracted to 2s1p pattern {31/1}

Atom   0C    basis set group =>   1
Atom   1O    basis set group =>   2
Atom   2C    basis set group =>   1
Atom   3C    basis set group =>   1
Atom   4C    basis set group =>   1
Atom   5C    basis set group =>   1
Atom   6C    basis set group =>   1
Atom   7C    basis set group =>   1
Atom   8C    basis set group =>   1
Atom   9C    basis set group =>   1
Atom  10C    basis set group =>   1
Atom  11N    basis set group =>   3
Atom  12C    basis set group =>   1
Atom  13N    basis set group =>   3
Atom  14C    basis set group =>   1
Atom  15F    basis set group =>   4
Atom  16C    basis set group =>   1
Atom  17F    basis set group =>   4
Atom  18C    basis set group =>   1
Atom  19O    basis set group =>   2
Atom  20C    basis set group =>   1
Atom  21C    basis set group =>   1
Atom  22C    basis set group =>   1
Atom  23C    basis set group =>   1
Atom  24C    basis set group =>   1
Atom  25C    basis set group =>   1
Atom  26C    basis set group =>   1
Atom  27C    basis set group =>   1
Atom  28C    basis set group =>   1
Atom  29N    basis set group =>   3
Atom  30C    basis set group =>   1
Atom  31N    basis set group =>   3
Atom  32C    basis set group =>   1
Atom  33F    basis set group =>   4
Atom  34C    basis set group =>   1
Atom  35F    basis set group =>   4
Atom  36C    basis set group =>   1
Atom  37S    basis set group =>   5
Atom  38C    basis set group =>   1
Atom  39C    basis set group =>   1
Atom  40C    basis set group =>   1
Atom  41C    basis set group =>   1
Atom  42C    basis set group =>   1
Atom  43C    basis set group =>   1
Atom  44S    basis set group =>   5
Atom  45C    basis set group =>   1
Atom  46C    basis set group =>   1
Atom  47C    basis set group =>   1
Atom  48C    basis set group =>   1
Atom  49C    basis set group =>   1
Atom  50C    basis set group =>   1
Atom  51C    basis set group =>   1
Atom  52C    basis set group =>   1
Atom  53N    basis set group =>   3
Atom  54S    basis set group =>   5
Atom  55N    basis set group =>   3
Atom  56C    basis set group =>   1
Atom  57S    basis set group =>   5
Atom  58C    basis set group =>   1
Atom  59C    basis set group =>   1
Atom  60C    basis set group =>   1
Atom  61C    basis set group =>   1
Atom  62C    basis set group =>   1
Atom  63C    basis set group =>   1
Atom  64S    basis set group =>   5
Atom  65C    basis set group =>   1
Atom  66C    basis set group =>   1
Atom  67O    basis set group =>   2
Atom  68O    basis set group =>   2
Atom  69C    basis set group =>   1
Atom  70C    basis set group =>   1
Atom  71C    basis set group =>   1
Atom  72C    basis set group =>   1
Atom  73C    basis set group =>   1
Atom  74C    basis set group =>   1
Atom  75C    basis set group =>   1
Atom  76C    basis set group =>   1
Atom  77C    basis set group =>   1
Atom  78C    basis set group =>   1
Atom  79C    basis set group =>   1
Atom  80C    basis set group =>   1
Atom  81H    basis set group =>   6
Atom  82H    basis set group =>   6
Atom  83H    basis set group =>   6
Atom  84H    basis set group =>   6
Atom  85H    basis set group =>   6
Atom  86H    basis set group =>   6
Atom  87H    basis set group =>   6
Atom  88H    basis set group =>   6
Atom  89H    basis set group =>   6
Atom  90H    basis set group =>   6
Atom  91H    basis set group =>   6
Atom  92H    basis set group =>   6
Atom  93H    basis set group =>   6
Atom  94H    basis set group =>   6
Atom  95H    basis set group =>   6
Atom  96H    basis set group =>   6
Atom  97H    basis set group =>   6
Atom  98H    basis set group =>   6
Atom  99H    basis set group =>   6
Atom 100H    basis set group =>   6
Atom 101H    basis set group =>   6
Atom 102H    basis set group =>   6
Atom 103H    basis set group =>   6
Atom 104H    basis set group =>   6
Atom 105H    basis set group =>   6
Atom 106H    basis set group =>   6
Atom 107H    basis set group =>   6
Atom 108H    basis set group =>   6
Atom 109H    basis set group =>   6
Atom 110H    basis set group =>   6
Atom 111H    basis set group =>   6
Atom 112H    basis set group =>   6
Atom 113H    basis set group =>   6
Atom 114H    basis set group =>   6
Atom 115H    basis set group =>   6
Atom 116H    basis set group =>   6
Atom 117H    basis set group =>   6
Atom 118H    basis set group =>   6
Atom 119H    basis set group =>   6
Atom 120H    basis set group =>   6
---------------------------------
AUXILIARY/J BASIS SET INFORMATION
---------------------------------
There are 6 groups of distinct atoms

 Group   1 Type C   : 12s5p4d2f1g contracted to 6s4p3d1f1g pattern {711111/2111/211/2/1}
 Group   2 Type O   : 12s5p4d2f1g contracted to 6s4p3d1f1g pattern {711111/2111/211/2/1}
 Group   3 Type N   : 12s5p4d2f1g contracted to 6s4p3d1f1g pattern {711111/2111/211/2/1}
 Group   4 Type F   : 12s5p4d2f1g contracted to 6s4p3d1f1g pattern {711111/2111/211/2/1}
 Group   5 Type S   : 14s5p5d2f1g contracted to 8s4p3d1f1g pattern {71111111/2111/311/2/1}
 Group   6 Type H   : 5s2p1d contracted to 3s1p1d pattern {311/2/1}

Atom   0C    basis set group =>   1
Atom   1O    basis set group =>   2
Atom   2C    basis set group =>   1
Atom   3C    basis set group =>   1
Atom   4C    basis set group =>   1
Atom   5C    basis set group =>   1
Atom   6C    basis set group =>   1
Atom   7C    basis set group =>   1
Atom   8C    basis set group =>   1
Atom   9C    basis set group =>   1
Atom  10C    basis set group =>   1
Atom  11N    basis set group =>   3
Atom  12C    basis set group =>   1
Atom  13N    basis set group =>   3
Atom  14C    basis set group =>   1
Atom  15F    basis set group =>   4
Atom  16C    basis set group =>   1
Atom  17F    basis set group =>   4
Atom  18C    basis set group =>   1
Atom  19O    basis set group =>   2
Atom  20C    basis set group =>   1
Atom  21C    basis set group =>   1
Atom  22C    basis set group =>   1
Atom  23C    basis set group =>   1
Atom  24C    basis set group =>   1
Atom  25C    basis set group =>   1
Atom  26C    basis set group =>   1
Atom  27C    basis set group =>   1
Atom  28C    basis set group =>   1
Atom  29N    basis set group =>   3
Atom  30C    basis set group =>   1
Atom  31N    basis set group =>   3
Atom  32C    basis set group =>   1
Atom  33F    basis set group =>   4
Atom  34C    basis set group =>   1
Atom  35F    basis set group =>   4
Atom  36C    basis set group =>   1
Atom  37S    basis set group =>   5
Atom  38C    basis set group =>   1
Atom  39C    basis set group =>   1
Atom  40C    basis set group =>   1
Atom  41C    basis set group =>   1
Atom  42C    basis set group =>   1
Atom  43C    basis set group =>   1
Atom  44S    basis set group =>   5
Atom  45C    basis set group =>   1
Atom  46C    basis set group =>   1
Atom  47C    basis set group =>   1
Atom  48C    basis set group =>   1
Atom  49C    basis set group =>   1
Atom  50C    basis set group =>   1
Atom  51C    basis set group =>   1
Atom  52C    basis set group =>   1
Atom  53N    basis set group =>   3
Atom  54S    basis set group =>   5
Atom  55N    basis set group =>   3
Atom  56C    basis set group =>   1
Atom  57S    basis set group =>   5
Atom  58C    basis set group =>   1
Atom  59C    basis set group =>   1
Atom  60C    basis set group =>   1
Atom  61C    basis set group =>   1
Atom  62C    basis set group =>   1
Atom  63C    basis set group =>   1
Atom  64S    basis set group =>   5
Atom  65C    basis set group =>   1
Atom  66C    basis set group =>   1
Atom  67O    basis set group =>   2
Atom  68O    basis set group =>   2
Atom  69C    basis set group =>   1
Atom  70C    basis set group =>   1
Atom  71C    basis set group =>   1
Atom  72C    basis set group =>   1
Atom  73C    basis set group =>   1
Atom  74C    basis set group =>   1
Atom  75C    basis set group =>   1
Atom  76C    basis set group =>   1
Atom  77C    basis set group =>   1
Atom  78C    basis set group =>   1
Atom  79C    basis set group =>   1
Atom  80C    basis set group =>   1
Atom  81H    basis set group =>   6
Atom  82H    basis set group =>   6
Atom  83H    basis set group =>   6
Atom  84H    basis set group =>   6
Atom  85H    basis set group =>   6
Atom  86H    basis set group =>   6
Atom  87H    basis set group =>   6
Atom  88H    basis set group =>   6
Atom  89H    basis set group =>   6
Atom  90H    basis set group =>   6
Atom  91H    basis set group =>   6
Atom  92H    basis set group =>   6
Atom  93H    basis set group =>   6
Atom  94H    basis set group =>   6
Atom  95H    basis set group =>   6
Atom  96H    basis set group =>   6
Atom  97H    basis set group =>   6
Atom  98H    basis set group =>   6
Atom  99H    basis set group =>   6
Atom 100H    basis set group =>   6
Atom 101H    basis set group =>   6
Atom 102H    basis set group =>   6
Atom 103H    basis set group =>   6
Atom 104H    basis set group =>   6
Atom 105H    basis set group =>   6
Atom 106H    basis set group =>   6
Atom 107H    basis set group =>   6
Atom 108H    basis set group =>   6
Atom 109H    basis set group =>   6
Atom 110H    basis set group =>   6
Atom 111H    basis set group =>   6
Atom 112H    basis set group =>   6
Atom 113H    basis set group =>   6
Atom 114H    basis set group =>   6
Atom 115H    basis set group =>   6
Atom 116H    basis set group =>   6
Atom 117H    basis set group =>   6
Atom 118H    basis set group =>   6
Atom 119H    basis set group =>   6
Atom 120H    basis set group =>   6
------------------------------------------------------------------------------
                           ORCA GTO INTEGRAL CALCULATION
                           -- RI-GTO INTEGRALS CHOSEN --
------------------------------------------------------------------------------

                         BASIS SET STATISTICS AND STARTUP INFO

Gaussian basis set:
 # of primitive gaussian shells          ... 1202
 # of primitive gaussian functions       ... 2284
 # of contracted shells                  ...  616
 # of contracted basis functions         ... 1354
 Highest angular momentum                ...    2
 Maximum contraction depth               ...    5
Auxiliary gaussian basis set:
 # of primitive gaussian shells          ... 2279
 # of primitive gaussian functions       ... 6345
 # of contracted shells                  ... 1425
 # of contracted aux-basis functions     ... 4419
 Highest angular momentum                ...    4
 Maximum contraction depth               ...    7
Ratio of auxiliary to basis functions    ...  3.26
Integral package used                  ... LIBINT
 One Electron integrals                  ... done
 Ordering auxiliary basis shells         ... done
 Integral threshhold             Thresh  ...  2.500e-11
 Primitive cut-off               TCut    ...  2.500e-12
 Pre-screening matrix                    ... done
 Shell pair data                         ... 
 Ordering of the shell pairs             ... done (   0.012 sec) 59594 of 190036 pairs
 Determination of significant pairs      ... done (   0.000 sec)
 Creation of shell pair data             ... done (   0.008 sec)
 Storage of shell pair data              ... done (   0.012 sec)
 Shell pair data done in (   0.032 sec)
 Computing two index integrals           ... done
 Cholesky decomposition of the V-matrix  ... done


Timings:
 Total evaluation time                   ...   2.820 sec (  0.047 min)
 One electron matrix time                ...   0.781 sec (  0.013 min) = 27.7%
 Schwartz matrix evaluation time         ...   0.823 sec (  0.014 min) = 29.2%
 Two index repulsion integral time       ...   0.447 sec (  0.007 min) = 15.9%
 Cholesky decomposition of V             ...   0.719 sec (  0.012 min) = 25.5%
 Three index repulsion integral time     ...   0.000 sec (  0.000 min) =  0.0%

-------------------------------------------------------------------------------
                                 ORCA SCF
-------------------------------------------------------------------------------

------------
SCF SETTINGS
------------
Hamiltonian:
 Density Functional     Method          .... DFT(GTOs)
 Exchange Functional    Exchange        .... WB88
 Correlation Functional Correlation     .... LYP
 LDA part of GGA corr.  LDAOpt          .... VWN-5
 Gradients option       PostSCFGGA      .... off
 Hybrid DFT is turned on
   Fraction HF Exchange ScalHFX         ....  0.190000
   Scaling of DF-GGA-X  ScalDFX         ....  0.350000
   Scaling of DF-GGA-C  ScalDFC         ....  0.810000
   Scaling of DF-LDA-C  ScalLDAC        ....  1.000000
   Perturbative correction              ....  0.000000
   Density functional embedding theory  .... OFF
 Long-range corrected/Screened/Range-Separated Hybrid DFT is turned on
   Amount of maximum screened exact exchange              ....  0.460000
   Range separation parameter mu (erf(mu*r12)/r12)        ....  0.330000
 RI-approximation to the Coulomb term is turned on
   Number of auxiliary basis functions  .... 4419
   RIJ-COSX (HFX calculated with COS-X)).... on


General Settings:
 Integral files         IntName         .... BCDT-4F
 Hartree-Fock type      HFTyp           .... RHF
 Total Charge           Charge          ....    0
 Multiplicity           Mult            ....    1
 Number of Electrons    NEL             ....  602
 Basis Dimension        Dim             .... 1354
 Nuclear Repulsion      ENuc            ....  13109.5421435776 Eh

Convergence Acceleration:
 DIIS                   CNVDIIS         .... on
   Start iteration      DIISMaxIt       ....    12
   Startup error        DIISStart       ....  0.200000
   # of expansion vecs  DIISMaxEq       ....     5
   Bias factor          DIISBfac        ....   1.050
   Max. coefficient     DIISMaxC        ....  10.000
 Newton-Raphson         CNVNR           .... off
 SOSCF                  CNVSOSCF        .... on
   Start iteration      SOSCFMaxIt      ....   150
   Startup grad/error   SOSCFStart      ....  0.003300
 Level Shifting         CNVShift        .... on
   Level shift para.    LevelShift      ....    0.2500
   Turn off err/grad.   ShiftErr        ....    0.0010
 Zerner damping         CNVZerner       .... off
 Static damping         CNVDamp         .... on
   Fraction old density DampFac         ....    0.7000
   Max. Damping (<1)    DampMax         ....    0.9800
   Min. Damping (>=0)   DampMin         ....    0.0000
   Turn off err/grad.   DampErr         ....    0.1000
 Fernandez-Rico         CNVRico         .... off

SCF Procedure:
 Maximum # iterations   MaxIter         ....   125
 SCF integral mode      SCFMode         .... Direct
   Integral package                     .... LIBINT
 Reset frequency        DirectResetFreq ....    20
 Integral Threshold     Thresh          ....  2.500e-11 Eh
 Primitive CutOff       TCut            ....  2.500e-12 Eh

Convergence Tolerance:
 Convergence Check Mode ConvCheckMode   .... Total+1el-Energy
 Convergence forced     ConvForced      .... 1
 Energy Change          TolE            ....  1.000e-08 Eh
 1-El. energy change                    ....  1.000e-05 Eh
 Orbital Gradient       TolG            ....  1.000e-05
 Orbital Rotation angle TolX            ....  1.000e-05
 DIIS Error             TolErr          ....  5.000e-07


Diagonalization of the overlap matrix:
Smallest eigenvalue                        ... 1.272e-04
Time for diagonalization                   ...    0.602 sec
Threshold for overlap eigenvalues          ... 1.000e-08
Number of eigenvalues below threshold      ... 0
Time for construction of square roots      ...    0.181 sec
Total time needed                          ...    0.789 sec

-------------------
DFT GRID GENERATION
-------------------

General Integration Accuracy     IntAcc      ...  4.670
Radial Grid Type                 RadialGrid  ... Gauss-Chebyshev
Angular Grid (max. acc.)         AngularGrid ... Lebedev-302
Angular grid pruning method      GridPruning ... 3 (G Style)
Weight generation scheme         WeightScheme... Becke
Basis function cutoff            BFCut       ...    1.0000e-11
Integration weight cutoff        WCut        ...    1.0000e-14
Grids for H and He will be reduced by one unit

# of grid points (after initial pruning)     ... 642342 (   1.5 sec)
# of grid points (after weights+screening)   ... 543463 (  34.8 sec)
nearest neighbour list constructed           ...    0.0 sec
Grid point re-assignment to atoms done       ...    0.1 sec
Grid point division into batches done        ...    1.8 sec
Reduced shell lists constructed in    9.4 sec

Total number of grid points                  ...   543463
Total number of batches                      ...     8556
Average number of points per batch           ...       63
Average number of grid points per atom       ...     4491
Average number of shells per batch           ...   104.64 (16.99%)
Average number of basis functions per batch  ...   211.46 (15.62%)
Average number of large shells per batch     ...    61.39 (58.67%)
Average number of large basis fcns per batch ...   125.75 (59.47%)
Maximum spatial batch extension              ...  20.80, 21.32, 22.41 au
Average spatial batch extension              ...   2.13,  2.16,  2.05 au

Time for grid setup =   45.707 sec

------------------------------
INITIAL GUESS: MODEL POTENTIAL
------------------------------
Loading Hartree-Fock densities                     ... done
Calculating cut-offs                               ... done
Setting up the integral package                    ... done
Initializing the effective Hamiltonian             ... done
Starting the Coulomb interaction                   ... done (  11.7 sec)
Reading the grid                                   ... done
Mapping shells                                     ... done
Starting the XC term evaluation                    ... done (   9.1 sec)
  promolecular density results
     # of electrons  =    601.983279253
     EX              =   -565.189234988
     EC              =    -20.845910719
     EX+EC           =   -586.035145707
Transforming the Hamiltonian                       ... done (   0.1 sec)
Diagonalizing the Hamiltonian                      ... done (   0.4 sec)
Back transforming the eigenvectors                 ... done (   0.1 sec)
Now organizing SCF variables                       ... done
                      ------------------
                      INITIAL GUESS DONE (  67.5 sec)
                      ------------------
--------------------
COSX GRID GENERATION
--------------------

General Integration Accuracy     IntAcc      ...  3.340
Radial Grid Type                 RadialGrid  ... Gauss-Chebyshev
Angular Grid (max. acc.)         AngularGrid ... Lebedev-50
Angular grid pruning method      GridPruning ... 3 (G Style)
Weight generation scheme         WeightScheme... Becke
Basis function cutoff            BFCut       ...    1.0000e-11
Integration weight cutoff        WCut        ...    1.0000e-14
Grids for H and He will be reduced by one unit

# of grid points (after initial pruning)     ...  60326 (   0.1 sec)
# of grid points (after weights+screening)   ...  53412 (   3.2 sec)
nearest neighbour list constructed           ...    0.0 sec
Grid point re-assignment to atoms done       ...    0.0 sec
Grid point division into batches done        ...    0.0 sec
Reduced shell lists constructed in    0.9 sec

Total number of grid points                  ...    53412
Total number of batches                      ...      895
Average number of points per batch           ...       59
Average number of grid points per atom       ...      441
Average number of shells per batch           ...   127.42 (20.68%)
Average number of basis functions per batch  ...   261.00 (19.28%)
Average number of large shells per batch     ...    75.55 (59.29%)
Average number of large basis fcns per batch ...   157.24 (60.24%)
Maximum spatial batch extension              ...  25.32, 25.32, 22.12 au
Average spatial batch extension              ...   4.47,  4.61,  4.06 au

Overlap Fitting                  UseSFitting ... on
Constructing numerical overlap ... done (      0.6 sec)
Inverting numerical overlap    ... done (      0.0 sec)
Obtaining analytic overlap     ... done (      0.0 sec)
Final contraction and storage  ... done (      0.1 sec)


General Integration Accuracy     IntAcc      ...  3.670
Radial Grid Type                 RadialGrid  ... Gauss-Chebyshev
Angular Grid (max. acc.)         AngularGrid ... Lebedev-50
Angular grid pruning method      GridPruning ... 3 (G Style)
Weight generation scheme         WeightScheme... Becke
Basis function cutoff            BFCut       ...    1.0000e-11
Integration weight cutoff        WCut        ...    1.0000e-14
Grids for H and He will be reduced by one unit

# of grid points (after initial pruning)     ...  75542 (   0.1 sec)
# of grid points (after weights+screening)   ...  66555 (   4.1 sec)
nearest neighbour list constructed           ...    0.0 sec
Grid point re-assignment to atoms done       ...    0.0 sec
Grid point division into batches done        ...    0.0 sec
Reduced shell lists constructed in    1.1 sec

Total number of grid points                  ...    66555
Total number of batches                      ...     1099
Average number of points per batch           ...       60
Average number of grid points per atom       ...      550
Average number of shells per batch           ...   124.96 (20.29%)
Average number of basis functions per batch  ...   255.29 (18.85%)
Average number of large shells per batch     ...    73.88 (59.12%)
Average number of large basis fcns per batch ...   153.22 (60.02%)
Maximum spatial batch extension              ...  27.71, 27.71, 19.47 au
Average spatial batch extension              ...   4.17,  4.26,  3.73 au

Overlap Fitting                  UseSFitting ... on
Constructing numerical overlap ... done (      0.7 sec)
Inverting numerical overlap    ... done (      0.0 sec)
Obtaining analytic overlap     ... done (      0.0 sec)
Final contraction and storage  ... done (      0.1 sec)


General Integration Accuracy     IntAcc      ...  4.010
Radial Grid Type                 RadialGrid  ... Gauss-Chebyshev
Angular Grid (max. acc.)         AngularGrid ... Lebedev-110
Angular grid pruning method      GridPruning ... 3 (G Style)
Weight generation scheme         WeightScheme... Becke
Basis function cutoff            BFCut       ...    1.0000e-11
Integration weight cutoff        WCut        ...    1.0000e-14
Grids for H and He will be reduced by one unit

# of grid points (after initial pruning)     ... 146176 (   0.2 sec)
# of grid points (after weights+screening)   ... 127735 (   7.8 sec)
nearest neighbour list constructed           ...    0.0 sec
Grid point re-assignment to atoms done       ...    0.0 sec
Grid point division into batches done        ...    0.1 sec
Reduced shell lists constructed in    2.1 sec

Total number of grid points                  ...   127735
Total number of batches                      ...     2061
Average number of points per batch           ...       61
Average number of grid points per atom       ...     1056
Average number of shells per batch           ...   117.49 (19.07%)
Average number of basis functions per batch  ...   239.70 (17.70%)
Average number of large shells per batch     ...    69.68 (59.31%)
Average number of large basis fcns per batch ...   144.31 (60.20%)
Maximum spatial batch extension              ...  21.17, 21.39, 19.52 au
Average spatial batch extension              ...   3.46,  3.51,  3.16 au

Overlap Fitting                  UseSFitting ... on
Constructing numerical overlap ... done (      1.1 sec)
Inverting numerical overlap    ... done (      0.0 sec)
Obtaining analytic overlap     ... done (      0.0 sec)
Final contraction and storage  ... done (      0.1 sec)

Time for X-Grid setup             =   22.574 sec
--------------
SCF ITERATIONS
--------------
ITER       Energy         Delta-E        Max-DP      RMS-DP      [F,P]     Damp
               ***  Starting incremental Fock matrix formation  ***
  0  -5399.8452551941   0.000000000000 0.09399029  0.00091448  0.2261819 0.7000
  1  -5400.5748073984  -0.729552204297 0.05749477  0.00063712  0.0950032 0.7000
                               ***Turning on DIIS***
  2  -5400.8747492961  -0.299941897720 0.11243126  0.00111095  0.0409113 0.0000
  3  -5401.3512275904  -0.476478294222 0.07109787  0.00050847  0.0607545 0.0000
  4  -5401.4568730724  -0.105645482041 0.01667834  0.00014321  0.0214463 0.0000
  5  -5401.4629833468  -0.006110274415 0.00748304  0.00006067  0.0119937 0.0000
                      *** Initiating the SOSCF procedure ***
                           *** Shutting down DIIS ***
                      *** Re-Reading the Fockian *** 
                      *** Removing any level shift *** 
ITER      Energy       Delta-E        Grad      Rot      Max-DP    RMS-DP
  6  -5401.46440633  -0.0014229787  0.002951  0.002951  0.003228  0.000032
               *** Restarting incremental Fock matrix formation ***
  7  -5401.46472903  -0.0003227054  0.001975  0.013249  0.003677  0.000033
  8  -5401.46499616  -0.0002671322  0.000712  0.013794  0.004102  0.000039
  9  -5401.46500724  -0.0000110746  0.001004  0.003946  0.001679  0.000013
 10  -5401.46507448  -0.0000672378  0.000264  0.002001  0.000729  0.000008
 11  -5401.46507343   0.0000010407  0.000205  0.001301  0.000522  0.000005
 12  -5401.46508024  -0.0000068091  0.000026  0.000141  0.000179  0.000002
 13  -5401.46508024   0.0000000074  0.000034  0.000094  0.000083  0.000001
 14  -5401.46508048  -0.0000002479  0.000005  0.000042  0.000037  0.000000
 15  -5401.46508042   0.0000000625  0.000006  0.000023  0.000019  0.000000
                  ***Gradient check signals convergence***
              ***Rediagonalizing the Fockian in SOSCF/NRSCF***

               *****************************************************
               *                     SUCCESS                       *
               *           SCF CONVERGED AFTER  16 CYCLES          *
               *****************************************************

Setting up the final grid:

General Integration Accuracy     IntAcc      ...  5.010
Radial Grid Type                 RadialGrid  ... Gauss-Chebyshev
Angular Grid (max. acc.)         AngularGrid ... Lebedev-434
Angular grid pruning method      GridPruning ... 3 (G Style)
Weight generation scheme         WeightScheme... Becke
Basis function cutoff            BFCut       ...    1.0000e-11
Integration weight cutoff        WCut        ...    1.0000e-14
Grids for H and He will be reduced by one unit

# of grid points (after initial pruning)     ... 1139836 (   2.3 sec)
# of grid points (after weights+screening)   ... 960871 (  62.1 sec)
nearest neighbour list constructed           ...    0.0 sec
Grid point re-assignment to atoms done       ...    0.1 sec
Grid point division into batches done        ...    6.0 sec
Reduced shell lists constructed in   18.4 sec

Total number of grid points                  ...   960871
Total number of batches                      ...    15073
Average number of points per batch           ...       63
Average number of grid points per atom       ...     7941
Average number of shells per batch           ...   101.27 (16.44%)
Average number of basis functions per batch  ...   203.76 (15.05%)
Average number of large shells per batch     ...    59.19 (58.45%)
Average number of large basis fcns per batch ...   120.81 (59.29%)
Maximum spatial batch extension              ...  22.28, 26.39, 21.14 au
Average spatial batch extension              ...   1.73,  1.76,  1.67 au

Final grid set up in   82.8 sec
Final integration                            ... done (  20.9 sec)
Change in XC energy                          ...     0.000073162
Integrated number of electrons               ...   602.000085337
Previous integrated no of electrons          ...   602.001232110
Old exchange energy                            =   -156.115631907 Eh
New exchange energy                            =   -156.113457172 Eh
Exchange energy change after final integration =      0.002174734 Eh
Total energy after final integration           =  -5401.462832606 Eh
Final COS-X integration done in                =   482.349 sec

----------------
TOTAL SCF ENERGY
----------------

Total Energy       :        -5401.46283261 Eh         -146981.27606 eV

Components:
Nuclear Repulsion  :        13109.54214358 Eh          356728.77747 eV
Electronic Energy  :       -18511.00497618 Eh         -503710.05353 eV
One Electron Energy:       -33517.74637918 Eh         -912064.24743 eV
Two Electron Energy:        15006.74140299 Eh          408354.19390 eV

Virial components:
Potential Energy   :       -10764.45304315 Eh         -292915.65885 eV
Kinetic Energy     :         5362.99021055 Eh          145934.38279 eV
Virial Ratio       :            2.00717373


DFT components:
N(Alpha)           :      301.000042668741 electrons
N(Beta)            :      301.000042668741 electrons
N(Total)           :      602.000085337482 electrons
E(XC)              :     -439.092605776055 Eh       
DFET-embed. en.    :        0.000000000000 Eh       

---------------
SCF CONVERGENCE
---------------

  Last Energy change         ...   -8.0618e-08  Tolerance :   1.0000e-08
  Last MAX-Density change    ...    6.6613e-15  Tolerance :   1.0000e-07
  Last RMS-Density change    ...    3.4311e-17  Tolerance :   5.0000e-09
  Last Orbital Gradient      ...    1.6362e-06  Tolerance :   1.0000e-05
  Last Orbital Rotation      ...    1.3872e-05  Tolerance :   1.0000e-05

             **** THE GBW FILE WAS UPDATED (BCDT-4F.gbw) ****
             **** DENSITY FILE WAS UPDATED (BCDT-4F.scfp) ****
             **** ENERGY FILE WAS UPDATED (BCDT-4F.en.tmp) ****
             **** THE GBW FILE WAS UPDATED (BCDT-4F.gbw) ****
             **** DENSITY FILE WAS UPDATED (BCDT-4F.scfp) ****
----------------
ORBITAL ENERGIES
----------------

  NO   OCC          E(Eh)            E(eV) 
   0   2.0000     -89.027275     -2422.5553 
   1   2.0000     -88.977781     -2421.2085 
   2   2.0000     -88.976297     -2421.1681 
   3   2.0000     -88.970888     -2421.0209 
   4   2.0000     -88.969313     -2420.9781 
   5   2.0000     -24.802283      -674.9044 
   6   2.0000     -24.800894      -674.8666 
   7   2.0000     -24.800249      -674.8491 
   8   2.0000     -24.798962      -674.8141 
   9   2.0000     -19.255928      -523.9804 
  10   2.0000     -19.254730      -523.9478 
  11   2.0000     -19.217039      -522.9222 
  12   2.0000     -19.215061      -522.8684 
  13   2.0000     -14.453461      -393.2987 
  14   2.0000     -14.452741      -393.2791 
  15   2.0000     -14.421511      -392.4293 
  16   2.0000     -14.421382      -392.4258 
  17   2.0000     -14.419764      -392.3817 
  18   2.0000     -14.418709      -392.3530 
  19   2.0000     -10.386360      -282.6272 
  20   2.0000     -10.386030      -282.6183 
  21   2.0000     -10.384272      -282.5704 
  22   2.0000     -10.383932      -282.5612 
  23   2.0000     -10.369513      -282.1688 
  24   2.0000     -10.367624      -282.1174 
  25   2.0000     -10.361083      -281.9394 
  26   2.0000     -10.358507      -281.8693 
  27   2.0000     -10.351159      -281.6694 
  28   2.0000     -10.349453      -281.6229 
  29   2.0000     -10.348027      -281.5841 
  30   2.0000     -10.346287      -281.5368 
  31   2.0000     -10.341033      -281.3938 
  32   2.0000     -10.340694      -281.3846 
  33   2.0000     -10.339151      -281.3426 
  34   2.0000     -10.338826      -281.3337 
  35   2.0000     -10.328936      -281.0646 
  36   2.0000     -10.328691      -281.0580 
  37   2.0000     -10.327075      -281.0140 
  38   2.0000     -10.325652      -280.9753 
  39   2.0000     -10.324443      -280.9424 
  40   2.0000     -10.324209      -280.9360 
  41   2.0000     -10.323684      -280.9217 
  42   2.0000     -10.323295      -280.9111 
  43   2.0000     -10.323045      -280.9043 
  44   2.0000     -10.322241      -280.8825 
  45   2.0000     -10.321000      -280.8487 
  46   2.0000     -10.319972      -280.8207 
  47   2.0000     -10.319626      -280.8113 
  48   2.0000     -10.317690      -280.7586 
  49   2.0000     -10.317456      -280.7523 
  50   2.0000     -10.315765      -280.7062 
  51   2.0000     -10.312590      -280.6199 
  52   2.0000     -10.309878      -280.5460 
  53   2.0000     -10.309864      -280.5457 
  54   2.0000     -10.309586      -280.5381 
  55   2.0000     -10.308234      -280.5013 
  56   2.0000     -10.307501      -280.4814 
  57   2.0000     -10.305079      -280.4155 
  58   2.0000     -10.305013      -280.4137 
  59   2.0000     -10.303605      -280.3753 
  60   2.0000     -10.302868      -280.3553 
  61   2.0000     -10.302150      -280.3358 
  62   2.0000     -10.301175      -280.3092 
  63   2.0000     -10.299444      -280.2621 
  64   2.0000     -10.296001      -280.1684 
  65   2.0000     -10.290544      -280.0199 
  66   2.0000     -10.290445      -280.0173 
  67   2.0000     -10.288379      -279.9610 
  68   2.0000     -10.287303      -279.9317 
  69   2.0000     -10.286054      -279.8978 
  70   2.0000     -10.284518      -279.8560 
  71   2.0000     -10.280874      -279.7568 
  72   2.0000     -10.280562      -279.7483 
  73   2.0000     -10.280241      -279.7396 
  74   2.0000     -10.276188      -279.6293 
  75   2.0000     -10.273691      -279.5613 
  76   2.0000     -10.272980      -279.5420 
  77   2.0000     -10.267926      -279.4045 
  78   2.0000     -10.266147      -279.3561 
  79   2.0000     -10.263261      -279.2775 
  80   2.0000     -10.247784      -278.8564 
  81   2.0000      -8.118521      -220.9162 
  82   2.0000      -8.072378      -219.6606 
  83   2.0000      -8.071031      -219.6239 
  84   2.0000      -8.064473      -219.4455 
  85   2.0000      -8.062696      -219.3971 
  86   2.0000      -6.089939      -165.7157 
  87   2.0000      -6.082504      -165.5133 
  88   2.0000      -6.080223      -165.4513 
  89   2.0000      -6.041748      -164.4043 
  90   2.0000      -6.040311      -164.3652 
  91   2.0000      -6.037624      -164.2921 
  92   2.0000      -6.036264      -164.2551 
  93   2.0000      -6.034463      -164.2061 
  94   2.0000      -6.034004      -164.1936 
  95   2.0000      -6.033183      -164.1713 
  96   2.0000      -6.032284      -164.1468 
  97   2.0000      -6.029674      -164.0758 
  98   2.0000      -6.027898      -164.0274 
  99   2.0000      -6.026507      -163.9896 
 100   2.0000      -6.024702      -163.9405 
 101   2.0000      -1.327934       -36.1349 
 102   2.0000      -1.325499       -36.0687 
 103   2.0000      -1.312344       -35.7107 
 104   2.0000      -1.309852       -35.6429 
 105   2.0000      -1.174659       -31.9641 
 106   2.0000      -1.145268       -31.1643 
 107   2.0000      -1.129519       -30.7358 
 108   2.0000      -1.127514       -30.6812 
 109   2.0000      -1.122094       -30.5337 
 110   2.0000      -1.018883       -27.7252 
 111   2.0000      -1.017605       -27.6904 
[...]
  11      4.25     291.6   109 -> 113      gap,J,K:    5.593     1.685     0.172
  12      4.33     286.2   111 -> 117      gap,J,K:    5.872     1.815     0.138
  13      4.41     281.4   104 -> 112      gap,J,K:    6.038     1.874     0.121
  14      4.42     280.6   108 -> 112      gap,J,K:    5.659     1.516     0.137
  15      4.44     279.1   105 -> 112      gap,J,K:    5.994     1.781     0.115
  16      4.48     276.7   107 -> 112      gap,J,K:    5.758     1.530     0.127
  17      4.56     272.0   106 -> 112      gap,J,K:    5.960     1.719     0.159
  18      4.65     266.6   111 -> 118      gap,J,K:    6.011     1.719     0.180
  19      4.66     265.9   109 -> 114      gap,J,K:    6.067     1.771     0.184
  20      4.67     265.4   108 -> 113      gap,J,K:    5.945     1.677     0.203
  21      4.74     261.7   101 -> 112      gap,J,K:    6.321     1.911     0.164
  22      4.77     259.8   107 -> 113      gap,J,K:    6.043     1.597     0.163
  23      4.81     257.9   103 -> 112      gap,J,K:    6.240     1.688     0.128
  24      4.83     256.5   105 -> 113      gap,J,K:    6.279     1.542     0.048

average / max PT2 energy lowering (eV):       0.054       0.096

CSF included by PT:                   184 
total number of CSF included:         215 
 
sTD-DFT procedure...
setting up A+B and A-B matrices...  done
estimated time (min):    0.000
calculating (A-B)^0.5 ... done
calculating (A+B)*(A-B)^0.5 ... done
calculating (A-B)^0.5 *(A+B)*(A-B)^0.5 ... done
diagonalizing ...using LAPACKE_ssyevr ...done

   40 roots found, lowest/highest eigenvalue :     1.921     4.992

excitation energies, transition moments and amplitudes

molecular weight: 1169.332
state   eV        nm        fL         fV        Rl        RV
   0   1.921     645.4   2.647327   3.195937  433.662745  515.094017     0.83 ( 111-> 112)    0.14 ( 110-> 113)    0.01 ( 109-> 114)
   1   2.257     549.2   0.012649   0.014655  -71.589427  -93.690387     0.60 ( 111-> 113)    0.31 ( 110-> 112)    0.05 ( 110-> 114)
   2   2.641     469.5   0.078963   0.085881  -274.028748  -319.649573     0.73 ( 111-> 114)    0.16 ( 110-> 113)    0.03 ( 110-> 115)
   3   2.870     432.0   0.004384   0.005255  -10.640239  -13.804926     0.56 ( 110-> 112)    0.21 ( 111-> 113)    0.15 ( 110-> 114)
   4   3.112     398.4   0.052255   0.051711  114.883083  115.941782     0.57 ( 111-> 115)    0.13 ( 110-> 116)    0.10 ( 110-> 114)
   5   3.123     397.0   0.343747   0.333807  -101.482496  -121.123850     0.66 ( 111-> 116)    0.16 ( 110-> 115)    0.04 ( 110-> 116)
   6   3.307     375.0   0.103586   0.115936  -104.869509  -121.704238     0.46 ( 110-> 113)    0.17 ( 109-> 112)    0.13 ( 111-> 114)
   7   3.552     349.1   0.013181   0.012220  224.389574  212.163247     0.46 ( 110-> 114)    0.13 ( 109-> 113)    0.13 ( 110-> 116)
   8   3.673     337.6   0.303674   0.290800  -203.605664  -199.642903     0.34 ( 109-> 112)    0.16 ( 108-> 113)    0.14 ( 107-> 112)
   9   3.733     332.1   0.017161   0.017815  176.921079  183.623492     0.31 ( 108-> 112)    0.18 ( 107-> 113)    0.05 ( 109-> 113)
  10   3.829     323.8   0.237128   0.204008  43.504880  37.176211     0.25 ( 109-> 112)    0.24 ( 107-> 112)    0.07 ( 108-> 113)
  11   3.936     315.0   0.039025   0.034837  -16.938906  -14.245708     0.22 (  99-> 112)    0.15 (  99-> 113)    0.12 ( 100-> 113)
  12   3.967     312.6   0.058622   0.050732  12.468842   9.120450     0.19 ( 100-> 113)    0.18 ( 100-> 112)    0.11 (  99-> 113)
  13   3.980     311.5   0.044308   0.038651  -13.523649  -19.795799     0.38 ( 111-> 117)    0.06 ( 110-> 115)    0.05 (  99-> 115)
  14   4.007     309.4   0.042082   0.028617  241.959175  195.004381     0.28 ( 105-> 112)    0.26 ( 104-> 112)    0.07 ( 104-> 113)
  15   4.016     308.7   0.058191   0.052887  309.341490  290.422571     0.15 ( 105-> 112)    0.11 ( 100-> 115)    0.10 (  99-> 115)
  16   4.026     307.9   0.082698   0.076409  -141.853797  -122.192722     0.23 ( 104-> 112)    0.15 ( 100-> 116)    0.09 (  99-> 115)
  17   4.041     306.8   0.063398   0.050869  -153.602915  -133.265094     0.25 ( 106-> 112)    0.07 ( 100-> 115)    0.06 (  99-> 114)
  18   4.049     306.2   0.064553   0.056253  43.805847  40.230390     0.17 ( 104-> 112)    0.16 ( 105-> 112)    0.12 (  99-> 115)
  19   4.150     298.8   0.044607   0.032159  -80.986536  -78.182400     0.43 ( 101-> 112)    0.21 ( 101-> 113)    0.04 ( 111-> 115)
  20   4.175     297.0   0.022003   0.018274  -156.815745  -143.916923     0.30 ( 109-> 113)    0.16 ( 111-> 118)    0.08 ( 103-> 112)
  21   4.210     294.5   0.070109   0.060179  -67.810061  -61.838818     0.15 ( 111-> 115)    0.14 ( 110-> 116)    0.13 ( 106-> 112)
  22   4.246     292.0   0.262070   0.231674  -185.766227  -164.556165     0.16 ( 110-> 115)    0.15 ( 111-> 116)    0.14 ( 109-> 114)
  23   4.258     291.2   0.025107   0.022693  -34.419257  -29.583864     0.34 ( 102-> 112)    0.26 ( 102-> 113)    0.05 ( 109-> 114)
  24   4.318     287.1   0.062222   0.056870  255.692287  239.455012     0.23 ( 111-> 118)    0.18 ( 110-> 117)    0.13 ( 110-> 116)
  25   4.436     279.5   0.039629   0.035553  -55.613512  -48.897342     0.24 ( 109-> 114)    0.13 ( 110-> 115)    0.08 ( 106-> 113)
  26   4.492     276.0   0.064344   0.056727  -58.150744  -51.040014     0.18 (  97-> 112)    0.13 (  97-> 113)    0.06 (  97-> 114)
  27   4.506     275.1   0.025876   0.024595  59.955850  61.547063     0.20 ( 104-> 113)    0.19 ( 105-> 114)    0.07 ( 105-> 113)
  28   4.520     274.3   0.297456   0.265240  -38.578002  -31.243223     0.17 (  98-> 113)    0.14 (  98-> 112)    0.08 (  98-> 114)
  29   4.561     271.8   0.013655   0.010993  -9.057326  -8.638213     0.23 ( 105-> 113)    0.17 ( 104-> 114)    0.13 ( 109-> 114)
  30   4.604     269.3   0.009928   0.007054  284.830747  239.030659     0.13 ( 103-> 112)    0.11 ( 108-> 114)    0.11 ( 111-> 118)
  31   4.651     266.6   0.468754   0.365046  -1143.935652  -1021.715656     0.18 ( 107-> 114)    0.15 ( 108-> 115)    0.08 ( 107-> 116)
  32   4.713     263.1   0.068161   0.050219  1168.065621  1003.606624     0.14 ( 107-> 115)    0.13 ( 108-> 116)    0.12 (  97-> 112)
  33   4.805     258.0   0.058813   0.043432  -9.051866  -7.660773     0.28 ( 106-> 113)    0.12 ( 105-> 113)    0.07 ( 108-> 113)
  34   4.849     255.7   0.101015   0.075931  -153.188539  -132.212205     0.16 ( 110-> 117)    0.13 ( 109-> 115)    0.08 ( 111-> 119)
  35   4.886     253.8   0.103978   0.078649  -117.746156  -101.327565     0.16 ( 109-> 116)    0.14 ( 110-> 117)    0.08 ( 110-> 118)
  36   4.924     251.8   0.000785   0.001237  -2.487956   0.029736     0.18 ( 110-> 117)    0.09 ( 109-> 115)    0.06 ( 110-> 116)
  37   4.944     250.8   0.009250   0.008024  -49.487609  -46.970908     0.20 (  96-> 112)    0.18 ( 111-> 119)    0.10 ( 103-> 113)
  38   4.959     250.0   0.004867   0.003314  -30.715240  -26.343095     0.21 ( 107-> 112)    0.17 ( 108-> 113)    0.09 ( 103-> 113)
  39   4.992     248.4   0.034885   0.025410  55.099558  48.845298     0.20 ( 101-> 114)    0.07 ( 101-> 112)    0.06 ( 101-> 113)

-----------------------------------------------------------------------------
         ABSORPTION SPECTRUM VIA TRANSITION ELECTRIC DIPOLE MOMENTS
-----------------------------------------------------------------------------
State   Energy  Wavelength   fosc         T2         TX        TY        TZ  
        (cm-1)    (nm)                  (au**2)     (au)      (au)      (au) 
-----------------------------------------------------------------------------
   0   15494.5    645.4   2.647327116  56.24777   3.23570   0.56582   6.74225
   1   18207.9    549.2   0.012649140   0.22871  -0.07146   0.12389  -0.45634
   2   21300.1    469.5   0.078962987   1.22044   0.20206   1.07683   0.14163
   3   23146.5    432.0   0.004384372   0.06236  -0.21669  -0.08347  -0.09186
   4   25098.5    398.4   0.052254907   0.68542   0.76644   0.27358   0.15210
   5   25190.3    397.0   0.343747216   4.49243  -0.78154  -0.83537  -1.78432
   6   26669.9    375.0   0.103585506   1.27866  -0.34626   0.60277  -0.89186
   7   28647.3    349.1   0.013180623   0.15147  -0.32258   0.17642   0.12762
   8   29621.7    337.6   0.303674067   3.37499   0.74476   1.26804   1.10109
   9   30108.2    332.1   0.017161113   0.18764  -0.16554   0.24807   0.31417
  10   30886.2    323.8   0.237127961   2.52752  -0.71499  -0.57081  -1.30019
  11   31749.1    315.0   0.039025064   0.40466  -0.03906  -0.22776  -0.59267
  12   31994.7    312.6   0.058622018   0.60320   0.45168   0.30454   0.55356
  13   32101.6    311.5   0.044308461   0.45440  -0.10185  -0.24914  -0.61802
  14   32320.4    309.4   0.042081794   0.42864  -0.46038   0.13562   0.44530
  15   32390.5    308.7   0.058191383   0.59145  -0.68478  -0.34472  -0.06075
  16   32475.9    307.9   0.082697577   0.83832  -0.24656  -0.85635  -0.21019
  17   32595.6    306.8   0.063397964   0.64031   0.78547  -0.15173   0.01810
  18   32658.7    306.2   0.064553083   0.65072   0.26142   0.34005   0.68319
  19   33470.8    298.8   0.044606999   0.43875  -0.34222   0.32045   0.46791
  20   33670.4    297.0   0.022002743   0.21513  -0.42267   0.11957   0.14896
  21   33957.0    294.5   0.070109157   0.67971  -0.36280   0.27354   0.68794
  22   34243.0    292.0   0.262069997   2.51954  -1.04137  -0.85171  -0.84243
  23   34346.1    291.2   0.025106954   0.24065   0.12491   0.38861   0.27209
  24   34830.7    287.1   0.062222334   0.58811   0.53953  -0.27102  -0.47283
  25   35778.9    279.5   0.039628708   0.36463  -0.08824   0.49146  -0.33958
  26   36233.1    276.0   0.064343627   0.58462  -0.18361  -0.49843  -0.54998
  27   36345.3    275.1   0.025875954   0.23438   0.33580   0.21907   0.27135
  28   36453.0    274.3   0.297456024   2.68637   0.63094   0.99740   1.13731
  29   36787.8    271.8   0.013655475   0.12220   0.09200  -0.00999   0.33710
  30   37136.9    269.3   0.009928337   0.08801   0.26218  -0.06950  -0.12018
  31   37513.5    266.6   0.468753680   4.11370  -0.68134  -1.72654  -0.81764
  32   38012.3    263.1   0.068160577   0.59032   0.56978  -0.30895  -0.41257
  33   38755.5    258.0   0.058812622   0.49959   0.45439   0.42647   0.33354
  34   39108.3    255.7   0.101014923   0.85034   0.35313   0.71928   0.45638
  35   39407.3    253.8   0.103978239   0.86864   0.07419   0.73259   0.57136
  36   39714.0    251.8   0.000785403   0.00651   0.02477   0.04916   0.05900
  37   39876.4    250.8   0.009250270   0.07637  -0.14145   0.16385  -0.17179
  38   40000.4    250.0   0.004866933   0.04006  -0.10750  -0.13436   0.10220
  39   40265.1    248.4   0.034885182   0.28523  -0.50491  -0.13145   0.11409

-----------------------------------------------------------------------------
         ABSORPTION SPECTRUM VIA TRANSITION VELOCITY DIPOLE MOMENTS
-----------------------------------------------------------------------------
State   Energy  Wavelength   fosc         P2         PX        PY        PZ  
        (cm-1)    (nm)                  (au**2)     (au)      (au)      (au) 
-----------------------------------------------------------------------------
   0   15494.5    645.4   3.195936545   0.33844   0.25055   0.04178   0.52338
   1   18207.9    549.2   0.014655086   0.00182  -0.00441   0.01125  -0.04096
   2   21300.1    469.5   0.085880584   0.01250   0.01848   0.11010   0.00612
   3   23146.5    432.0   0.005255264   0.00083  -0.02601  -0.00870  -0.00890
   4   25098.5    398.4   0.051710906   0.00887   0.08787   0.03117   0.01335
   5   25190.3    397.0   0.333806652   0.05747  -0.08706  -0.09759  -0.20091
   6   26669.9    375.0   0.115936305   0.02113  -0.04639   0.07132  -0.11787
   7   28647.3    349.1   0.012220092   0.00239  -0.04084   0.02267   0.01451
   8   29621.7    337.6   0.290800219   0.05887   0.09882   0.16729   0.14533
   9   30108.2    332.1   0.017814927   0.00367  -0.02338   0.03402   0.04430
  10   30886.2    323.8   0.204008099   0.04306  -0.09258  -0.07600  -0.16946
  11   31749.1    315.0   0.034837389   0.00756  -0.00170  -0.02945  -0.08179
  12   31994.7    312.6   0.050731671   0.01109   0.06370   0.04017   0.07363
  13   32101.6    311.5   0.038651058   0.00848  -0.01262  -0.03624  -0.08371
  14   32320.4    309.4   0.028616835   0.00632  -0.05343   0.01754   0.05620
  15   32390.5    308.7   0.052887018   0.01171  -0.09521  -0.05019  -0.01107
  16   32475.9    307.9   0.076408722   0.01696  -0.03806  -0.11928  -0.03581
  17   32595.6    306.8   0.050868763   0.01133   0.10476  -0.01888   0.00138
  18   32658.7    306.2   0.056253232   0.01256   0.03622   0.05031   0.09335
  19   33470.8    298.8   0.032159354   0.00736  -0.03989   0.04512   0.06107
  20   33670.4    297.0   0.018273744   0.00421  -0.05983   0.01683   0.01849
  21   33957.0    294.5   0.060179137   0.01397  -0.04962   0.03960   0.09968
  22   34243.0    292.0   0.231673770   0.05422  -0.14680  -0.13030  -0.12526
  23   34346.1    291.2   0.022692967   0.00533   0.02820   0.05492   0.03893
  24   34830.7    287.1   0.056870259   0.01354   0.08202  -0.04211  -0.07098
  25   35778.9    279.5   0.035553366   0.00869  -0.01266   0.07767  -0.05001
  26   36233.1    276.0   0.056726823   0.01405  -0.03212  -0.07829  -0.08298
  27   36345.3    275.1   0.024594575   0.00611   0.05572   0.03400   0.04300
  28   36453.0    274.3   0.265239899   0.06608   0.09823   0.15639   0.17882
  29   36787.8    271.8   0.010993407   0.00276   0.01257  -0.00176   0.05102
  30   37136.9    269.3   0.007053554   0.00179   0.03721  -0.01059  -0.01714
  31   37513.5    266.6   0.365046004   0.09359  -0.10225  -0.26130  -0.12190
  32   38012.3    263.1   0.050219157   0.01305   0.08492  -0.04582  -0.06112
  33   38755.5    258.0   0.043431759   0.01150   0.06991   0.06367   0.05063
  34   39108.3    255.7   0.075930773   0.02030   0.05643   0.10995   0.07086
  35   39407.3    253.8   0.078649433   0.02118   0.01466   0.11325   0.09024
  36   39714.0    251.8   0.001236894   0.00034   0.00889   0.01225   0.01033
  37   39876.4    250.8   0.008023606   0.00219  -0.02330   0.03217  -0.02468
  38   40000.4    250.0   0.003314206   0.00091  -0.01408  -0.01747   0.02007
  39   40265.1    248.4   0.025410436   0.00699  -0.07893  -0.02373   0.01412

-------------------------------------------------------------------
                             CD SPECTRUM
-------------------------------------------------------------------
State   Energy Wavelength       R         MX        MY        MZ   
        (cm-1)   (nm)       (1e40*cgs)   (au)      (au)      (au)  
-------------------------------------------------------------------
   0   15494.5    645.4    433.66275  -1.70897   5.83596   0.05753
   1   18207.9    549.2    -71.58943   2.92031  -1.12858  -1.42922
   2   21300.1    469.5    -274.02875   1.63851   1.02847  -1.94914
   3   23146.5    432.0    -10.64024  -0.38914   0.24234   0.20634
   4   25098.5    398.4    114.88308  -0.44445  -0.60318   0.12033
   5   25190.3    397.0    -101.48250  -0.73465  -3.17344   1.56621
   6   26669.9    375.0    -104.86951   1.23147  -0.56409  -1.35818
   7   28647.3    349.1    224.38957   2.66417   0.70414  -1.69831
   8   29621.7    337.6    -203.60566   0.87616   2.09238  -2.21780
   9   30108.2    332.1    176.92108   2.59448   0.98538  -1.80004
  10   30886.2    323.8     43.50488  -0.60843  -1.39717   1.08992
  11   31749.1    315.0    -16.93891   0.32895  -1.20409   0.31980
  12   31994.7    312.6     12.46884   0.41015   0.27403  -0.58098
  13   32101.6    311.5    -13.52365  -0.17119  -1.89126   0.69779
  14   32320.4    309.4    241.95917   1.52716   1.39342  -1.15058
  15   32390.5    308.7    309.34149   1.75576   0.42736  -0.61419
  16   32475.9    307.9    -141.85380  -2.59479  -0.58530   2.56536
  17   32595.6    306.8    -153.60292   0.47566  -1.77001   0.52160
  18   32658.7    306.2     43.80585   0.33938  -0.04527  -0.37934
  19   33470.8    298.8    -80.98654  -0.12296   1.91712  -0.66861
  20   33670.4    297.0    -156.81574  -1.22919   1.01916   0.16018
  21   33957.0    294.5    -67.81006  -0.33714   2.62320  -0.80267
  22   34243.0    292.0    -185.76623  -1.45165  -0.93286   1.80212
  23   34346.1    291.2    -34.41926  -0.06319   0.88373  -0.69653
  24   34830.7    287.1    255.69229  -1.65013  -2.31355   1.73731
  25   35778.9    279.5    -55.61351   1.08299  -0.24316  -1.32811
  26   36233.1    276.0    -58.15074   1.26884  -1.33370   0.33652
  27   36345.3    275.1     59.95585  -1.11492   0.19035   0.28870
  28   36453.0    274.3    -38.57800   2.97966   1.91681  -3.19010
  29   36787.8    271.8     -9.05733  -0.26237   0.11678   0.18905
  30   37136.9    269.3    284.83075  -3.71330  -0.09553   2.00871
  31   37513.5    266.6    -1143.93565  -2.57994  -4.00504   4.67173
  32   38012.3    263.1    1168.06562  -6.68480  -1.79788   4.12501
  33   38755.5    258.0     -9.05187   0.32385   0.37071  -0.80006
  34   39108.3    255.7    -153.18854   1.05607   1.54084  -1.82161
  35   39407.3    253.8    -117.74616   1.30588   2.26228  -2.19596
  36   39714.0    251.8     -2.48796  -0.70450   0.36780   0.16817
  37   39876.4    250.8    -49.48761   0.71903   0.94963  -0.90833
  38   40000.4    250.0    -30.71524  -0.37730  -0.28777   0.49975
  39   40265.1    248.4     55.09956   0.30940   0.53613  -0.06182

sTD-DFT done

Total run time:        5.400 sec

           *** ORCA-CIS/TD-DFT FINISHED WITHOUT ERROR ***

-------------------------   --------------------
FINAL SINGLE POINT ENERGY     -5401.462832606189
-------------------------   --------------------


                            ***************************************
                            *     ORCA property calculations      *
                            ***************************************

                                    ---------------------
                                    Active property flags
                                    ---------------------
   (+) Dipole Moment


------------------------------------------------------------------------------
                       ORCA ELECTRIC PROPERTIES CALCULATION
------------------------------------------------------------------------------

Dipole Moment Calculation                       ... on
Quadrupole Moment Calculation                   ... off
Polarizability Calculation                      ... off
GBWName                                         ... BCDT-4F.gbw
Electron density file                           ... BCDT-4F.scfp
The origin for moment calculation is the CENTER OF MASS  = (18.219527,  3.592190 12.871019)

-------------
DIPOLE MOMENT
-------------
                                X             Y             Z
Electronic contribution:    -68.55499       8.07417      29.91623
Nuclear contribution   :     70.30561      -8.16145     -31.30123
                        -----------------------------------------
Total Dipole Moment    :      1.75063      -0.08728      -1.38501
                        -----------------------------------------
Magnitude (a.u.)       :      2.23395
Magnitude (Debye)      :      5.67826



--------------------
Rotational spectrum 
--------------------
 
Rotational constants in cm-1:     0.003057     0.000149     0.000147 
Rotational constants in MHz :    91.660637     4.460095     4.404462 

 Dipole components along the rotational axes: 
x,y,z [a.u.] :    -0.476664     2.180129     0.101875 
x,y,z [Debye]:    -1.211584     5.541447     0.258946 

 

Timings for individual modules:

Sum of individual times         ...     4565.261 sec (=  76.088 min)
GTO integral calculation        ...        4.181 sec (=   0.070 min)   0.1 %
SCF iterations                  ...     4555.611 sec (=  75.927 min)  99.8 %
CIS module                      ...        5.469 sec (=   0.091 min)   0.1 %
                             ****ORCA TERMINATED NORMALLY****
TOTAL RUN TIME: 0 days 1 hours 16 minutes 5 seconds 851 msec
