
                                 *****************
                                 * O   R   C   A *
                                 *****************

           --- An Ab Initio, DFT and Semiempirical electronic structure package ---

                  #######################################################
                  #                        -***-                        #
                  #          Department of theory and spectroscopy      #
                  #               Directorship: Frank Neese             #
                  #        Max Planck Institute fuer Kohlenforschung    #
                  #                Kaiser Wilhelm Platz 1               #
                  #                 D-45470 Muelheim/Ruhr               #
                  #                      Germany                        #
                  #                                                     #
                  #                  All rights reserved                #
                  #                        -***-                        #
                  #######################################################


                         Program Version 4.2.0 -  RELEASE  -


 With contributions from (in alphabetic order):
   Daniel Aravena         : Magnetic Suceptibility
   Michael Atanasov       : Ab Initio Ligand Field Theory (pilot matlab implementation)
   Alexander A. Auer      : GIAO ZORA, VPT2
   Ute Becker             : Parallelization
   Giovanni Bistoni       : ED, misc. LED, open-shell LED, HFLED
   Martin Brehm           : Molecular dynamics
   Dmytro Bykov           : SCF Hessian
   Vijay G. Chilkuri      : MRCI spin determinant printing, contributions to CSF-ICE
   Dipayan Datta          : RHF DLPNO-CCSD density
   Achintya Kumar Dutta   : EOM-CC, STEOM-CC
   Dmitry Ganyushin       : Spin-Orbit,Spin-Spin,Magnetic field MRCI
   Miquel Garcia          : C-PCM Hessian, Gaussian charge scheme
   Yang Guo               : DLPNO-NEVPT2, CIM, IAO-localization
   Andreas Hansen         : Spin unrestricted coupled pair/coupled cluster methods
   Benjamin Helmich-Paris : CASSCF linear response (MC-RPA)
   Lee Huntington         : MR-EOM, pCC
   Robert Izsak           : Overlap fitted RIJCOSX, COSX-SCS-MP3, EOM
   Christian Kollmar      : KDIIS, OOCD, Brueckner-CCSD(T), CCSD density
   Simone Kossmann        : Meta GGA functionals, TD-DFT gradient, OOMP2, MP2 Hessian
   Martin Krupicka        : AUTO-CI
   Lucas Lang             : DCDCAS
   Dagmar Lenk            : GEPOL surface, SMD
   Dimitrios Liakos       : Extrapolation schemes; Compound Job, initial MDCI parallelization
   Dimitrios Manganas     : Further ROCIS development; embedding schemes
   Dimitrios Pantazis     : SARC Basis sets
   Taras Petrenko         : DFT Hessian,TD-DFT gradient, ASA, ECA, R-Raman, ABS, FL, XAS/XES, NRVS
   Peter Pinski           : DLPNO-MP2, DLPNO-MP2 Gradient
   Christoph Reimann      : Effective Core Potentials
   Marius Retegan         : Local ZFS, SOC
   Christoph Riplinger    : Optimizer, TS searches, QM/MM, DLPNO-CCSD(T), (RO)-DLPNO pert. Triples
   Tobias Risthaus        : Range-separated hybrids, TD-DFT gradient, RPA, STAB
   Michael Roemelt        : Original ROCIS implementation
   Masaaki Saitow         : Open-shell DLPNO-CCSD energy and density
   Barbara Sandhoefer     : DKH picture change effects
   Avijit Sen             : IP-ROCIS
   Kantharuban Sivalingam : CASSCF convergence, NEVPT2, FIC-MRCI
   Bernardo de Souza      : ESD, SOC TD-DFT
   Georgi Stoychev        : AutoAux, RI-MP2 NMR
   Willem Van den Heuvel  : Paramagnetic NMR
   Boris Wezisla          : Elementary symmetry handling
   Frank Wennmohs         : Technical directorship


 We gratefully acknowledge several colleagues who have allowed us to
 interface, adapt or use parts of their codes:
   Stefan Grimme, W. Hujo, H. Kruse,             : VdW corrections, initial TS optimization,
                  C. Bannwarth                     DFT functionals, gCP, sTDA/sTD-DF
   Ed Valeev, F. Pavosevic, A. Kumar             : LibInt (2-el integral package), F12 methods
   Garnet Chan, S. Sharma, J. Yang, R. Olivares  : DMRG
   Ulf Ekstrom                                   : XCFun DFT Library
   Mihaly Kallay                                 : mrcc  (arbitrary order and MRCC methods)
   Andreas Klamt, Michael Diedenhofen            : otool_cosmo (COSMO solvation model)
   Jiri Pittner, Ondrej Demel                    : Mk-CCSD
   Frank Weinhold                                : gennbo (NPA and NBO analysis)
   Christopher J. Cramer and Donald G. Truhlar   : smd solvation model
   Lars Goerigk                                  : TD-DFT with DH, B97 family of functionals
   V. Asgeirsson, H. Jonsson                     : NEB implementation
   FAccTs GmbH                                   : IRC, NEB, NEB-TS, Multilevel, MM, QM/MM, CI optimization
   S Lehtola, MJT Oliveira, MAL Marques          : LibXC Library


 Your calculation uses the libint2 library for the computation of 2-el integrals
 For citations please refer to: http://libint.valeyev.net

 Your ORCA version has been built with support for libXC version: 4.2.3
 For citations please refer to: https://tddft.org/programs/libxc/

 This ORCA versions uses:
   CBLAS   interface :  Fast vector & matrix operations
   LAPACKE interface :  Fast linear algebra routines
   SCALAPACK package :  Parallel linear algebra routines


XCFun DFT library Copyright 2009-2010 Ulf Ekstrom and contributors.
See http://admol.org/xcfun for more information. This is free soft-
ware; see the source code for copying conditions. There is ABSOLUTELY
NO WARRANTY; not even for MERCHANTABILITY or FITNESS FOR A PARTICULAR
PURPOSE. For details see the documentation. Scientific users of this 
library should cite U. Ekstrom, L. Visscher, R. Bast, A. J. Thorvald-
sen and K. Ruud; J.Chem.Theor.Comp. 2010, DOI: 10.1021/ct100117s
XCFun Version 0.99 
----- Orbital basis set information -----
Your calculation utilizes the basis: def2-SVP
   F. Weigend and R. Ahlrichs, Phys. Chem. Chem. Phys. 7, 3297 (2005).

----- AuxJ basis set information -----
Your calculation utilizes the auxiliary basis: def2/J
   F. Weigend, Phys. Chem. Chem. Phys. 8, 1057 (2006).

================================================================================
                                        WARNINGS
                       Please study these warnings very carefully!
================================================================================

INFO   : Checking CIS options ...

WARNING: CIS/ROCIS methods need fully converged wavefunctions
  ===> : Setting SCFConvForced true
         You can overwrite this default with %scf ConvForced false 


INFO   : the flag for use of LIBINT has been found!

================================================================================
                                       INPUT FILE
================================================================================
NAME = BTCIC.inp
|  1> # ORCA input file
|  2> # BTCIC.out
|  3> ! CAM-B3LYP def2-SVP def2/J RIJCOSX Grid4 TightSCF
|  4> %maxcore 5000
|  5> %tddft
|  6>     Mode sTDDFT
|  7>     Ethresh 5.0
|  8>     maxcore 5000
|  9> end
| 10> * xyz 0 1
| 11>    S        1.83815        -1.01111        -1.67392
| 12>    N        0.54069        -1.82731        -1.18541
| 13>    C       -0.37869        -0.96977        -0.74373
| 14>    C        0.07802         0.38945        -0.84380
| 15>    N        1.30478         0.46902        -1.35049
| 16>    C       -1.67168        -1.25782        -0.22652
| 17>    C       -2.43481        -0.15687         0.14772
| 18>    C       -1.98644         1.15439         0.05592
| 19>    C       -0.72419         1.48346        -0.42740
| 20>    C       -0.22484         2.81985        -0.50553
| 21>    C       -2.14692        -2.59823        -0.09028
| 22>    C       -1.45769        -3.76886        -0.35875
| 23>    C       -2.20564        -4.90332        -0.07542
| 24>    C       -3.48289        -4.60470         0.39466
| 25>    S       -3.76797        -2.91550         0.50583
| 26>    C       -1.98819        -6.39860        -0.17098
| 27>    C       -3.31051        -6.89334         0.38611
| 28>    C       -4.16257        -5.80837         0.66280
| 29>    C       -3.91321        -8.10447         0.67183
| 30>    C       -5.22552        -7.97345         1.12752
| 31>    S       -5.69861        -6.28234         1.23167
| 32>    C       -0.83465         3.98182        -0.04997
| 33>    C       -0.06378         5.11307        -0.27322
| 34>    C        1.15146         4.80557        -0.89522
| 35>    S        1.34010         3.13022        -1.21621
| 36>    C       -0.16301         6.59440         0.01174
| 37>    C        1.18384         7.05726        -0.49217
| 38>    C        1.90668         5.98704        -1.03676
| 39>    C        1.82611         8.26920        -0.64971
| 40>    C        3.05869         8.14522        -1.29040
| 41>    S        3.41204         6.46701        -1.68407
| 42>    C       -6.21017        -8.94940         1.35638
| 43>    C       -6.11641       -10.31439         1.39232
| 44>    C       -5.00838       -11.22392         1.53387
| 45>    C       -5.44275       -12.52693         1.03229
| 46>    C       -6.83333       -12.48440         0.82350
| 47>    C       -7.33271       -11.12268         1.11425
| 48>    C       -4.74200       -13.69703         0.79499
| 49>    C       -5.44748       -14.81113         0.35801
| 50>    C       -6.82090       -14.76855         0.16794
| 51>    C       -7.53071       -13.59745         0.39821
| 52>    C       -3.86281       -10.99330         2.25432
| 53>    O       -8.47705       -10.72897         1.08761
| 54>    C       -2.81596       -11.92163         2.40223
| 55>    C       -3.67645        -9.81470         3.00162
| 56>    N       -1.91559       -12.62466         2.52143
| 57>    N       -3.52736        -8.88301         3.65542
| 58>    C       -0.75160        -6.83228         0.63557
| 59>    C       -1.85945        -6.67787        -1.70002
| 60>    C       -0.52649        -6.10390         1.97222
| 61>    C       -1.33473        -8.00658        -2.28332
| 62>    C       -1.55121        -6.49783         3.04834
| 63>    C       -2.18075        -5.30027         3.75002
| 64>    C        0.91105        -6.38619         2.43457
| 65>    C        1.32768        -5.55478         3.64147
| 66>    C        0.17836        -8.23706        -2.15715
| 67>    C        1.03275        -7.09284        -2.69310
| 68>    C       -2.11739        -9.22644        -1.78818
| 69>    C       -1.98063       -10.44842        -2.69112
| 70>    C       -0.41563         6.87776         1.50052
| 71>    C        0.51830         6.13183         2.46873
| 72>    C        1.90406         6.79533         2.57665
| 73>    C        3.05159         5.80915         2.38977
| 74>    C       -0.16422         6.03135         3.84086
| 75>    C        0.58865         5.14547         4.82601
| 76>    C       -1.21431         7.27852        -0.89759
| 77>    C       -2.67684         6.84502        -0.69247
| 78>    C       -3.43680         7.81113         0.23746
| 79>    C       -3.34875         6.72964        -2.06925
| 80>    C       -4.77740         6.20126        -2.02583
| 81>    C        4.01994         9.12230        -1.59479
| 82>    C        3.90154        10.48480        -1.62735
| 83>    C        2.77246        11.38046        -1.66428
| 84>    C        3.25771        12.70725        -1.27809
| 85>    C        4.66337        12.67891        -1.23483
| 86>    C        5.13467        11.30948        -1.52854
| 87>    C        2.58352        13.88418        -0.99908
| 88>    C        3.32821        15.01562        -0.69039
| 89>    C        4.71469        14.98501        -0.66463
| 90>    C        5.39942        13.80804        -0.93583
| 91>    O        6.27672        10.92046        -1.62824
| 92>    C        1.53505        11.12789        -2.20324
| 93>    C        0.49529        12.07596        -2.27248
| 94>    C        1.17433         9.91571        -2.82251
| 95>    N        0.83272         8.96184        -3.36331
| 96>    N       -0.40091        12.79180        -2.33062
| 97>    C       -4.34059         7.10310         1.24270
| 98>    H       -3.42672        -0.33385         0.53806
| 99>    H       -2.65030         1.94171         0.37526
|100>    H       -0.44923        -3.75500        -0.72849
|101>    H       -3.45648        -9.06530         0.53670
|102>    H       -1.78837         3.97424         0.44450
|103>    H        1.46065         9.20967        -0.27670
|104>    H       -7.23003        -8.57731         1.39758
|105>    H       -3.67375       -13.75105         0.93328
|106>    H       -4.91217       -15.72889         0.16559
|107>    H       -7.34126       -15.65460        -0.16331
|108>    H       -8.59897       -13.54566         0.25475
|109>    H        0.11844        -6.62980         0.01244
|110>    H       -0.80358        -7.90599         0.82136
|111>    H       -1.22549        -5.88794        -2.10471
|112>    H       -2.85908        -6.52095        -2.11759
|113>    H       -0.60487        -5.02713         1.79098
|114>    H       -1.53889        -7.91174        -3.35913
|115>    H       -1.07608        -7.13730         3.79355
|116>    H       -2.34967        -7.08933         2.60341
|117>    H       -2.71609        -4.67376         3.03897
|118>    H       -2.88853        -5.64323         4.50062
|119>    H       -1.42663        -4.68900         4.23972
|120>    H        1.59815        -6.16746         1.61255
|121>    H        1.00960        -7.44797         2.67240
|122>    H        1.21885        -4.49341         3.42698
|123>    H        2.36931        -5.74856         3.88850
|124>    H        0.72376        -5.79579         4.51154
|125>    H        0.41767        -9.12803        -2.74056
|126>    H        0.45008        -8.45072        -1.12422
|127>    H        0.72647        -6.82901        -3.70337
|128>    H        2.07727        -7.39515        -2.72268
|129>    H        0.96235        -6.20422        -2.07037
|130>    H       -3.17489        -8.95800        -1.73904
|131>    H       -1.77774        -9.49048        -0.78509
|132>    H       -2.25414       -10.20027        -3.71442
|133>    H       -2.63992       -11.24220        -2.34551
|134>    H       -0.96477       -10.83378        -2.68861
|135>    H       -1.44024         6.57500         1.71411
|136>    H       -0.34181         7.95277         1.67658
|137>    H        0.64969         5.11193         2.09267
|138>    H        2.00247         7.28002         3.54998
|139>    H        1.99829         7.57807         1.82362
|140>    H        3.01182         5.01868         3.13465
|141>    H        4.00823         6.31925         2.48188
|142>    H        3.00443         5.35035         1.40430
|143>    H       -1.16698         5.61762         3.70646
|144>    H       -0.27639         7.03368         4.26126
|145>    H        0.71691         4.14605         4.41528
|146>    H        0.03165         5.06336         5.75678
|147>    H        1.56928         5.55311         5.05505
|148>    H       -0.91704         7.07257        -1.92822
|149>    H       -1.12937         8.35800        -0.76011
|150>    H       -2.68789         5.85048        -0.24109
|151>    H       -4.03540         8.49531        -0.36659
|152>    H       -2.72601         8.42248         0.79562
|153>    H       -2.75187         6.05278        -2.68563
|154>    H       -3.33868         7.70956        -2.55163
|155>    H       -4.81503         5.24008        -1.51669
|156>    H       -5.15125         6.06333        -3.03798
|157>    H       -5.44108         6.89380        -1.51580
|158>    H        5.02875         8.75770        -1.76555
|159>    H        1.50643        13.93249        -1.00668
|160>    H        2.81240        15.93753        -0.46710
|161>    H        5.26440        15.88381        -0.42904
|162>    H        6.47741        13.76268        -0.91782
|163>    H       -5.07839         6.48129         0.74426
|164>    H       -4.86689         7.83343         1.85361
|165>    H       -3.75589         6.46902         1.90755
|166> *
|167> 
|168>                          ****END OF INPUT****
================================================================================

                       ****************************
                       * Single Point Calculation *
                       ****************************

---------------------------------
CARTESIAN COORDINATES (ANGSTROEM)
---------------------------------
  S      1.838150   -1.011110   -1.673920
  N      0.540690   -1.827310   -1.185410
  C     -0.378690   -0.969770   -0.743730
  C      0.078020    0.389450   -0.843800
  N      1.304780    0.469020   -1.350490
  C     -1.671680   -1.257820   -0.226520
  C     -2.434810   -0.156870    0.147720
  C     -1.986440    1.154390    0.055920
  C     -0.724190    1.483460   -0.427400
  C     -0.224840    2.819850   -0.505530
  C     -2.146920   -2.598230   -0.090280
  C     -1.457690   -3.768860   -0.358750
  C     -2.205640   -4.903320   -0.075420
  C     -3.482890   -4.604700    0.394660
  S     -3.767970   -2.915500    0.505830
  C     -1.988190   -6.398600   -0.170980
  C     -3.310510   -6.893340    0.386110
  C     -4.162570   -5.808370    0.662800
  C     -3.913210   -8.104470    0.671830
  C     -5.225520   -7.973450    1.127520
  S     -5.698610   -6.282340    1.231670
  C     -0.834650    3.981820   -0.049970
  C     -0.063780    5.113070   -0.273220
  C      1.151460    4.805570   -0.895220
  S      1.340100    3.130220   -1.216210
  C     -0.163010    6.594400    0.011740
  C      1.183840    7.057260   -0.492170
  C      1.906680    5.987040   -1.036760
  C      1.826110    8.269200   -0.649710
  C      3.058690    8.145220   -1.290400
  S      3.412040    6.467010   -1.684070
  C     -6.210170   -8.949400    1.356380
  C     -6.116410  -10.314390    1.392320
  C     -5.008380  -11.223920    1.533870
  C     -5.442750  -12.526930    1.032290
  C     -6.833330  -12.484400    0.823500
  C     -7.332710  -11.122680    1.114250
  C     -4.742000  -13.697030    0.794990
  C     -5.447480  -14.811130    0.358010
  C     -6.820900  -14.768550    0.167940
  C     -7.530710  -13.597450    0.398210
  C     -3.862810  -10.993300    2.254320
  O     -8.477050  -10.728970    1.087610
  C     -2.815960  -11.921630    2.402230
  C     -3.676450   -9.814700    3.001620
  N     -1.915590  -12.624660    2.521430
  N     -3.527360   -8.883010    3.655420
  C     -0.751600   -6.832280    0.635570
  C     -1.859450   -6.677870   -1.700020
  C     -0.526490   -6.103900    1.972220
  C     -1.334730   -8.006580   -2.283320
  C     -1.551210   -6.497830    3.048340
  C     -2.180750   -5.300270    3.750020
  C      0.911050   -6.386190    2.434570
  C      1.327680   -5.554780    3.641470
  C      0.178360   -8.237060   -2.157150
  C      1.032750   -7.092840   -2.693100
  C     -2.117390   -9.226440   -1.788180
  C     -1.980630  -10.448420   -2.691120
  C     -0.415630    6.877760    1.500520
  C      0.518300    6.131830    2.468730
  C      1.904060    6.795330    2.576650
  C      3.051590    5.809150    2.389770
  C     -0.164220    6.031350    3.840860
  C      0.588650    5.145470    4.826010
  C     -1.214310    7.278520   -0.897590
  C     -2.676840    6.845020   -0.692470
  C     -3.436800    7.811130    0.237460
  C     -3.348750    6.729640   -2.069250
  C     -4.777400    6.201260   -2.025830
  C      4.019940    9.122300   -1.594790
  C      3.901540   10.484800   -1.627350
  C      2.772460   11.380460   -1.664280
  C      3.257710   12.707250   -1.278090
  C      4.663370   12.678910   -1.234830
  C      5.134670   11.309480   -1.528540
  C      2.583520   13.884180   -0.999080
  C      3.328210   15.015620   -0.690390
  C      4.714690   14.985010   -0.664630
  C      5.399420   13.808040   -0.935830
  O      6.276720   10.920460   -1.628240
  C      1.535050   11.127890   -2.203240
  C      0.495290   12.075960   -2.272480
  C      1.174330    9.915710   -2.822510
  N      0.832720    8.961840   -3.363310
  N     -0.400910   12.791800   -2.330620
  C     -4.340590    7.103100    1.242700
  H     -3.426720   -0.333850    0.538060
  H     -2.650300    1.941710    0.375260
  H     -0.449230   -3.755000   -0.728490
  H     -3.456480   -9.065300    0.536700
  H     -1.788370    3.974240    0.444500
  H      1.460650    9.209670   -0.276700
  H     -7.230030   -8.577310    1.397580
  H     -3.673750  -13.751050    0.933280
  H     -4.912170  -15.728890    0.165590
  H     -7.341260  -15.654600   -0.163310
  H     -8.598970  -13.545660    0.254750
  H      0.118440   -6.629800    0.012440
  H     -0.803580   -7.905990    0.821360
  H     -1.225490   -5.887940   -2.104710
  H     -2.859080   -6.520950   -2.117590
  H     -0.604870   -5.027130    1.790980
  H     -1.538890   -7.911740   -3.359130
  H     -1.076080   -7.137300    3.793550
  H     -2.349670   -7.089330    2.603410
  H     -2.716090   -4.673760    3.038970
  H     -2.888530   -5.643230    4.500620
  H     -1.426630   -4.689000    4.239720
  H      1.598150   -6.167460    1.612550
  H      1.009600   -7.447970    2.672400
  H      1.218850   -4.493410    3.426980
  H      2.369310   -5.748560    3.888500
  H      0.723760   -5.795790    4.511540
  H      0.417670   -9.128030   -2.740560
  H      0.450080   -8.450720   -1.124220
  H      0.726470   -6.829010   -3.703370
  H      2.077270   -7.395150   -2.722680
  H      0.962350   -6.204220   -2.070370
  H     -3.174890   -8.958000   -1.739040
  H     -1.777740   -9.490480   -0.785090
  H     -2.254140  -10.200270   -3.714420
  H     -2.639920  -11.242200   -2.345510
  H     -0.964770  -10.833780   -2.688610
  H     -1.440240    6.575000    1.714110
  H     -0.341810    7.952770    1.676580
  H      0.649690    5.111930    2.092670
  H      2.002470    7.280020    3.549980
  H      1.998290    7.578070    1.823620
  H      3.011820    5.018680    3.134650
  H      4.008230    6.319250    2.481880
  H      3.004430    5.350350    1.404300
  H     -1.166980    5.617620    3.706460
  H     -0.276390    7.033680    4.261260
  H      0.716910    4.146050    4.415280
  H      0.031650    5.063360    5.756780
  H      1.569280    5.553110    5.055050
  H     -0.917040    7.072570   -1.928220
  H     -1.129370    8.358000   -0.760110
  H     -2.687890    5.850480   -0.241090
  H     -4.035400    8.495310   -0.366590
  H     -2.726010    8.422480    0.795620
  H     -2.751870    6.052780   -2.685630
  H     -3.338680    7.709560   -2.551630
  H     -4.815030    5.240080   -1.516690
  H     -5.151250    6.063330   -3.037980
  H     -5.441080    6.893800   -1.515800
  H      5.028750    8.757700   -1.765550
  H      1.506430   13.932490   -1.006680
  H      2.812400   15.937530   -0.467100
  H      5.264400   15.883810   -0.429040
  H      6.477410   13.762680   -0.917820
  H     -5.078390    6.481290    0.744260
  H     -4.866890    7.833430    1.853610
  H     -3.755890    6.469020    1.907550

----------------------------
CARTESIAN COORDINATES (A.U.)
----------------------------
  NO LB      ZA    FRAG     MASS         X           Y           Z
   0 S    16.0000    0    32.060    3.473600   -1.910721   -3.163250
   1 N     7.0000    0    14.007    1.021756   -3.453115   -2.240100
   2 C     6.0000    0    12.011   -0.715620   -1.832600   -1.405446
   3 C     6.0000    0    12.011    0.147436    0.735954   -1.594551
   4 N     7.0000    0    14.007    2.465677    0.886319   -2.552056
   5 C     6.0000    0    12.011   -3.159017   -2.376935   -0.428061
   6 C     6.0000    0    12.011   -4.601124   -0.296441    0.279150
   7 C     6.0000    0    12.011   -3.753828    2.181481    0.105673
   8 C     6.0000    0    12.011   -1.368521    2.803333   -0.807669
   9 C     6.0000    0    12.011   -0.424886    5.328744   -0.955313
  10 C     6.0000    0    12.011   -4.057091   -4.909943   -0.170604
  11 C     6.0000    0    12.011   -2.754635   -7.122113   -0.677939
  12 C     6.0000    0    12.011   -4.168056   -9.265932   -0.142523
  13 C     6.0000    0    12.011   -6.581708   -8.701622    0.745799
  14 S    16.0000    0    32.060   -7.120431   -5.509497    0.955880
  15 C     6.0000    0    12.011   -3.757135  -12.091602   -0.323105
  16 C     6.0000    0    12.011   -6.255957  -13.026525    0.729642
  17 C     6.0000    0    12.011   -7.866117  -10.976229    1.252510
  18 C     6.0000    0    12.011   -7.394895  -15.315229    1.269575
  19 C     6.0000    0    12.011   -9.874802  -15.067637    2.130704
  20 S    16.0000    0    32.060  -10.768812  -11.871902    2.327519
  21 C     6.0000    0    12.011   -1.577260    7.524549   -0.094430
  22 C     6.0000    0    12.011   -0.120527    9.662302   -0.516311
  23 C     6.0000    0    12.011    2.175944    9.081211   -1.691721
  24 S    16.0000    0    32.060    2.532422    5.915259   -2.298304
  25 C     6.0000    0    12.011   -0.308044   12.461610    0.022185
  26 C     6.0000    0    12.011    2.237133   13.336289   -0.930067
  27 C     6.0000    0    12.011    3.603103   11.313866   -1.959192
  28 C     6.0000    0    12.011    3.450848   15.626523   -1.227774
  29 C     6.0000    0    12.011    5.780086   15.392235   -2.438503
  30 S    16.0000    0    32.060    6.447821   12.220878   -3.182431
  31 C     6.0000    0    12.011  -11.735521  -16.911915    2.563187
  32 C     6.0000    0    12.011  -11.558340  -19.491372    2.631103
  33 C     6.0000    0    12.011   -9.464467  -21.210135    2.898594
  34 C     6.0000    0    12.011  -10.285307  -23.672467    1.950745
  35 C     6.0000    0    12.011  -12.913122  -23.592097    1.556189
  36 C     6.0000    0    12.011  -13.856814  -21.018819    2.105627
  37 C     6.0000    0    12.011   -8.961081  -25.883636    1.502313
  38 C     6.0000    0    12.011  -10.294245  -27.988979    0.676541
  39 C     6.0000    0    12.011  -12.889633  -27.908515    0.317361
  40 C     6.0000    0    12.011  -14.230979  -25.695457    0.752508
  41 C     6.0000    0    12.011   -7.299653  -20.774326    4.260047
  42 O     8.0000    0    15.999  -16.019303  -20.274815    2.055285
  43 C     6.0000    0    12.011   -5.321393  -22.528616    4.539557
  44 C     6.0000    0    12.011   -6.947484  -18.547095    5.672240
  45 N     7.0000    0    14.007   -3.619940  -23.857150    4.764812
  46 N     7.0000    0    14.007   -6.665744  -16.786456    6.907743
  47 C     6.0000    0    12.011   -1.420318  -12.911138    1.201053
  48 C     6.0000    0    12.011   -3.513851  -12.619345   -3.212572
  49 C     6.0000    0    12.011   -0.994922  -11.534699    3.726956
  50 C     6.0000    0    12.011   -2.522274  -15.130243   -4.314849
  51 C     6.0000    0    12.011   -2.931362  -12.279119    5.760528
  52 C     6.0000    0    12.011   -4.121020  -10.016059    7.086511
  53 C     6.0000    0    12.011    1.721635  -12.068150    4.600671
  54 C     6.0000    0    12.011    2.508952  -10.497013    6.881381
  55 C     6.0000    0    12.011    0.337052  -15.565788   -4.076423
  56 C     6.0000    0    12.011    1.951615  -13.403525   -5.089221
  57 C     6.0000    0    12.011   -4.001287  -17.435445   -3.379170
  58 C     6.0000    0    12.011   -3.742848  -19.744652   -5.085480
  59 C     6.0000    0    12.011   -0.785427   12.997083    2.835572
  60 C     6.0000    0    12.011    0.979445   11.587479    4.665224
  61 C     6.0000    0    12.011    3.598152   12.841313    4.869163
  62 C     6.0000    0    12.011    5.766669   10.977703    4.516011
  63 C     6.0000    0    12.011   -0.310331   11.397600    7.258174
  64 C     6.0000    0    12.011    1.112387    9.723529    9.119837
  65 C     6.0000    0    12.011   -2.294713   13.754409   -1.696199
  66 C     6.0000    0    12.011   -5.058495   12.935213   -1.308579
  67 C     6.0000    0    12.011   -6.494611   14.760896    0.448734
  68 C     6.0000    0    12.011   -6.328220   12.717177   -3.910316
  69 C     6.0000    0    12.011   -9.027978   11.718683   -3.828264
  70 C     6.0000    0    12.011    7.596586   17.238649   -3.013716
  71 C     6.0000    0    12.011    7.372842   19.813401   -3.075246
  72 C     6.0000    0    12.011    5.239190   21.505953   -3.145033
  73 C     6.0000    0    12.011    6.156180   24.013222   -2.415240
  74 C     6.0000    0    12.011    8.812492   23.959668   -2.333491
  75 C     6.0000    0    12.011    9.703120   21.371820   -2.888522
  76 C     6.0000    0    12.011    4.882145   26.237298   -1.887988
  77 C     6.0000    0    12.011    6.289405   28.375410   -1.304648
  78 C     6.0000    0    12.011    8.909473   28.317565   -1.255969
  79 C     6.0000    0    12.011   10.203425   26.093414   -1.768462
  80 O     8.0000    0    15.999   11.861282   20.636679   -3.076928
  81 C     6.0000    0    12.011    2.900824   21.028665   -4.163520
  82 C     6.0000    0    12.011    0.935962   22.820257   -4.294365
  83 C     6.0000    0    12.011    2.219162   18.737976   -5.333771
  84 N     7.0000    0    14.007    1.573613   16.935423   -6.355735
  85 N     7.0000    0    14.007   -0.757610   24.172999   -4.404234
  86 C     6.0000    0    12.011   -8.202526   13.422914    2.348363
  87 H     1.0000    0     1.008   -6.475562   -0.630885    1.016786
  88 H     1.0000    0     1.008   -5.008341    3.669300    0.709139
  89 H     1.0000    0     1.008   -0.848922   -7.095922   -1.376647
  90 H     1.0000    0     1.008   -6.531801  -17.130934    1.014216
  91 H     1.0000    0     1.008   -3.379530    7.510225    0.839983
  92 H     1.0000    0     1.008    2.760228   17.403754   -0.522887
  93 H     1.0000    0     1.008  -13.662777  -16.208767    2.641043
  94 H     1.0000    0     1.008   -6.942381  -25.985719    1.763644
  95 H     1.0000    0     1.008   -9.282656  -29.723294    0.312920
  96 H     1.0000    0     1.008  -13.872971  -29.582907   -0.308611
  97 H     1.0000    0     1.008  -16.249698  -25.597588    0.481408
  98 H     1.0000    0     1.008    0.223819  -12.528506    0.023508
  99 H     1.0000    0     1.008   -1.518546  -14.940156    1.552145
 100 H     1.0000    0     1.008   -2.315840  -11.126594   -3.977325
 101 H     1.0000    0     1.008   -5.402878  -12.322810   -4.001665
 102 H     1.0000    0     1.008   -1.143039   -9.499899    3.384462
 103 H     1.0000    0     1.008   -2.908081  -14.951022   -6.347836
 104 H     1.0000    0     1.008   -2.033496  -13.487542    7.168771
 105 H     1.0000    0     1.008   -4.440233  -13.396892    4.919732
 106 H     1.0000    0     1.008   -5.132666   -8.832126    5.742821
 107 H     1.0000    0     1.008   -5.458531  -10.664159    8.504939
 108 H     1.0000    0     1.008   -2.695940   -8.860926    8.011910
 109 H     1.0000    0     1.008    3.020066  -11.654810    3.047278
 110 H     1.0000    0     1.008    1.907868  -14.074624    5.050104
 111 H     1.0000    0     1.008    2.303293   -8.491314    6.476054
 112 H     1.0000    0     1.008    4.477347  -10.863204    7.348200
 113 H     1.0000    0     1.008    1.367708  -10.952456    8.525575
 114 H     1.0000    0     1.008    0.789282  -17.249477   -5.178908
 115 H     1.0000    0     1.008    0.850528  -15.969546   -2.124468
 116 H     1.0000    0     1.008    1.372829  -12.904959   -6.998355
 117 H     1.0000    0     1.008    3.925471  -13.974808   -5.145120
 118 H     1.0000    0     1.008    1.818578  -11.724277   -3.912432
 119 H     1.0000    0     1.008   -5.999673  -16.928167   -3.286309
 120 H     1.0000    0     1.008   -3.359442  -17.934408   -1.483605
 121 H     1.0000    0     1.008   -4.259707  -19.275717   -7.019237
 122 H     1.0000    0     1.008   -4.988726  -21.244679   -4.432372
 123 H     1.0000    0     1.008   -1.823151  -20.472877   -5.080737
 124 H     1.0000    0     1.008   -2.721659   12.424949    3.239198
 125 H     1.0000    0     1.008   -0.645927   15.028557    3.168277
 126 H     1.0000    0     1.008    1.227736    9.660148    3.954573
 127 H     1.0000    0     1.008    3.784120   13.757244    6.708490
 128 H     1.0000    0     1.008    3.776221   14.320477    3.446142
 129 H     1.0000    0     1.008    5.691515    9.483931    5.923630
 130 H     1.0000    0     1.008    7.574457   11.941652    4.690073
 131 H     1.0000    0     1.008    5.677550   10.110696    2.653742
 132 H     1.0000    0     1.008   -2.205273   10.615763    7.004194
 133 H     1.0000    0     1.008   -0.522301   13.291729    8.052614
 134 H     1.0000    0     1.008    1.354764    7.834899    8.343670
 135 H     1.0000    0     1.008    0.059810    9.568364   10.878738
 136 H     1.0000    0     1.008    2.965509   10.493857    9.552660
 137 H     1.0000    0     1.008   -1.732954   13.365220   -3.643808
 138 H     1.0000    0     1.008   -2.134200   15.794331   -1.436400
 139 H     1.0000    0     1.008   -5.079376   11.055805   -0.455594
 140 H     1.0000    0     1.008   -7.625801   16.053809   -0.692755
 141 H     1.0000    0     1.008   -5.151412   15.916181    1.503504
 142 H     1.0000    0     1.008   -5.200281   11.438097   -5.075105
 143 H     1.0000    0     1.008   -6.309191   14.568957   -4.821882
 144 H     1.0000    0     1.008   -9.099088    9.902316   -2.866129
 145 H     1.0000    0     1.008   -9.734452   11.458033   -5.740950
 146 H     1.0000    0     1.008  -10.282151   13.027394   -2.864447
 147 H     1.0000    0     1.008    9.502960   16.549655   -3.336406
 148 H     1.0000    0     1.008    2.846740   26.328590   -1.902350
 149 H     1.0000    0     1.008    5.314666   30.117567   -0.882691
 150 H     1.0000    0     1.008    9.948274   30.016051   -0.810768
 151 H     1.0000    0     1.008   12.240531   26.007696   -1.734428
 152 H     1.0000    0     1.008   -9.596766   12.247863    1.406448
 153 H     1.0000    0     1.008   -9.197089   14.803037    3.502815
 154 H     1.0000    0     1.008   -7.097603   12.224676    3.604747

--------------------------------
INTERNAL COORDINATES (ANGSTROEM)
--------------------------------
 S      0   0   0     0.000000000000     0.00000000     0.00000000
 N      1   0   0     1.608796727899     0.00000000     0.00000000
 C      2   1   0     1.332559814192   109.30388131     0.00000000
 C      3   2   1     1.437385486708   111.48390416     0.00000000
 N      4   3   2     1.329663957021   112.10247280   359.96365429
 C      3   2   1     1.422076695084   128.13426794   179.78470701
 C      6   3   2     1.390868030045   115.87398504   180.82077785
 C      7   6   3     1.388836089861   123.53351207   359.00334394
 C      8   7   6     1.391100409676   122.63201662     0.22463985
 C      9   8   7     1.428773233057   123.87487229   181.45011886
 C      6   3   2     1.428675387658   121.81465631     1.39350818
 C     11   6   3     1.384734173298   127.52423302     3.13702403
 C     12  11   6     1.388057845697   112.52921251   178.03007396
 C     13  12  11     1.393383175333   112.80777493     0.88304269
 S     14  13  12     1.716690425004   112.64070940   359.44947428
 C     13  12  11     1.514027243645   135.79960182   179.63984870
 C     16  13  12     1.517777031747    99.99911362   178.38314739
 C     17  16  13     1.407026474733   110.39041839     3.43579750
 C     17  16  13     1.382649299461   137.82888708   181.94925931
 C     19  17  16     1.395341231599   113.27845411   183.19042279
 S     18  17  16     1.705191930370   113.37654432   177.54318335
 C     10   9   8     1.389092304564   127.66524143     4.72793925
 C     22  10   9     1.387013944378   112.67321838   179.30533578
 C     23  22  10     1.399374327191   112.02231610   359.46789824
 S     24  23  22     1.716221795748   113.14714927     0.46228313
 C     23  22  10     1.511749768778   137.08533712   181.76626325
 C     26  23  22     1.510685139332   100.30157420   175.77949676
 C     27  26  23     1.401587236707   110.82116597     2.32459951
 C     27  26  23     1.380626005876   136.20067196   175.67437588
 C     29  27  26     1.394671349423   112.67605360   185.51842335
 S     28  27  26     1.707480648968   112.78918983   177.50620354
 C     20  19  17     1.405130216243   130.31789167   171.01993622
 C     32  20  19     1.368678311840   130.46344052    11.02460098
 C     33  32  20     1.440490091705   133.23368391    17.38294823
 C     34  33  32     1.462222573140   107.48434979   199.86409365
 C     35  34  33     1.406810151158   108.51810393   349.55372894
 C     36  35  34     1.479255659208   109.41162363     3.10869405
 C     35  34  33     1.384375621896   131.42345599   171.53667824
 C     38  35  34     1.389198459832   118.34011256   177.49133209
 C     39  38  35     1.387163349321   121.41845149   359.60855379
 C     36  35  34     1.380612455036   121.37529199   182.53118115
 C     34  33  32     1.372794380743   125.97158398    32.20125104
 O     37  36  35     1.210467384649   127.89612042   182.73287182
 C     42  34  33     1.406971527608   124.41748540   178.07806888
 C     42  34  33     1.407936539621   121.98104158     2.74877080
 N     44  42  34     1.148532088276   176.43621491   144.38329570
 N     45  42  34     1.147923570714   177.33761522   111.69509241
 C     16  13  12     1.538751465637   111.14236418    56.98660829
 C     16  13  12     1.559656706490   104.51148898   294.31320833
 C     48  16  13     1.538780412859   116.06960276    38.04238768
 C     49  16  13     1.543061966513   123.56262867   166.55613835
 C     50  48  16     1.537291832314   112.90779379    71.13007563
 C     52  50  48     1.524081817882   113.34507437   228.78982622
 C     50  48  16     1.536221474332   108.14029447   194.94800693
 C     54  50  48     1.523624217122   113.20436229   171.44231298
 C     51  49  16     1.535734758153   115.67150924   286.38382906
 C     56  51  49     1.525275084370   114.23264688   307.51210006
 C     51  49  16     1.531593521402   112.94511673    55.73527556
 C     58  51  49     1.525529108736   113.62982826   159.01552193
 C     26  23  22     1.536416493793   111.97259061    54.02280540
 C     60  26  23     1.538202656967   114.87630046    48.83527185
 C     61  60  26     1.540197959355   112.42510690    78.92725433
 C     62  61  60     1.524565586552   112.95266726   230.20785409
 C     61  60  26     1.535796378984   108.92111519   202.93935103
 C     64  61  60     1.523849445910   113.33237046   172.10853129
 C     26  23  22     1.549236235472   111.50626710   287.54787879
 C     66  26  23     1.539152515282   116.24538716    65.15540425
 C     67  66  26     1.541323307616   111.86231691    96.38518159
 C     67  66  26     1.536326384887   108.49972327   220.23687669
 C     69  67  66     1.523847611574   114.23829211   175.49098926
 C     30  29  27     1.404044216184   130.00018253   182.21602392
 C     71  30  29     1.368022281836   129.71738497   343.45115808
 C     72  71  30     1.441663035144   133.40518278   344.07198875
 C     73  72  71     1.464575700570   107.25225819   163.00244787
 C     74  73  72     1.406611040338   108.72087141     9.85195841
 C     75  74  73     1.477744152078   109.34616271   357.24772581
 C     74  73  72     1.384753754680   131.43571202   188.60943321
 C     77  74  73     1.389247704983   118.42373895   181.79392404
 C     78  77  74     1.387057078890   121.46441484     0.31690984
 C     75  74  73     1.380617673145   121.53056516   178.05820288
 O     76  75  74     1.210601029613   127.95424265   176.96234351
 C     73  72  71     1.373117982768   126.98133064   331.33264964
 C     82  73  72     1.408805082366   124.09791592   183.68199948
 C     82  73  72     1.408188412003   124.17962475   359.90083843
 N     84  82  73     1.148490317330   176.56722298   205.10031275
 N     83  82  73     1.148469244342   176.26075903   204.79377158
 C     68  67  66     1.525991580121   113.49298514   221.97216167
 H      7   6   3     1.080542772916   118.11343354   179.51022443
 H      8   7   6     1.078221182133   118.10362477   180.27556879
 H     12  11   6     1.074193343305   121.54057443   359.04230139
 H     19  17  16     1.072406965056   124.96848348     1.25290154
 H     22  10   9     1.074309022442   122.32813499     0.96506313
 H     29  27  26     1.075723613481   124.73882567     8.86278062
 H     32  20  19     1.086399018639   115.22187062   199.12069029
 H     38  35  34     1.078517661886   121.44780612   356.89965714
 H     39  38  35     1.079752596709   119.07425862   179.76413251
 H     40  39  38     1.079622940938   119.60754915   180.59482199
 H     41  36  35     1.079093324648   120.15312878   179.32636060
 H     48  16  13     1.089155061917   106.83878982   278.84399881
 H     48  16  13     1.090904674387   109.17006656   161.61839973
 H     49  16  13     1.090719341811   106.38226813    43.02166794
 H     49  16  13     1.094645480601   105.83870402   289.90241131
 H     50  48  16     1.094725990785   108.13762622   310.84965971
 H     51  49  16     1.099110134290   103.44636643   170.90321136
 H     52  50  48     1.090875034960   109.76025624   106.62594044
 H     52  50  48     1.088748513891   109.99861804   350.04346193
 H     53  52  50     1.088437319371   110.77400206    60.89953829
 H     53  52  50     1.087186483544   109.80977904   180.35780436
 H     53  52  50     1.087269091486   111.26131965   300.54184948
 H     54  50  48     1.093465181567   108.96524931    50.83528172
 H     54  50  48     1.092543811387   109.17809192   293.64714534
 H     55  54  50     1.088281308256   110.40904832   303.02774200
 H     55  54  50     1.087918915269   110.15009904   183.44711977
 H     55  54  50     1.086198412538   111.18606137    63.61675131
 H     56  51  49     1.091542049167   107.13340644   188.50031218
 H     56  51  49     1.089232178601   110.67888254    72.20373090
 H     57  56  51     1.088144834202   110.51492469   308.68556351
 H     57  56  51     1.087790578604   109.81264662   189.38720627
 H     57  56  51     1.087379564504   112.05853443    69.67694090
 H     58  51  49     1.092145147496   108.27520514    38.93650967
 H     58  51  49     1.091452606484   109.31536525   280.75880853
 H     59  58  51     1.087901205349   110.57837998   305.50868967
 H     59  58  51     1.088207822339   109.99884468   186.02298618
 H     59  58  51     1.086499042475   111.50350081    66.38357976
 H     60  26  23     1.089545757552   107.05750106   288.63960487
 H     60  26  23     1.091830122363   109.07004219   172.26385603
 H     61  60  26     1.094934000614   107.96145183   319.27715431
 H     62  61  60     1.091778463380   109.56115862   108.25681331
 H     62  61  60     1.090236387854   109.79489625   351.24810820
 H     63  62  61     1.086862773399   111.03303693   300.65154831
 H     63  62  61     1.088047035610   110.37413876   180.45573054
 H     63  62  61     1.088059109837   110.55814060    60.76763844
 H     64  61  60     1.093052373173   108.82061565    51.65822849
 H     64  61  60     1.092695610772   109.22883168   294.59758831
 H     65  64  61     1.088113090124   110.37508623   302.89057925
 H     65  64  61     1.087806896926   110.12467072   183.36332536
 H     65  64  61     1.086399966909   111.35348227    63.50265749
 H     66  26  23     1.092237635453   106.61219997   302.97945128
 H     66  26  23     1.091509333171   108.05815942   188.82723447
 H     67  66  26     1.092234323989   108.73216105   336.64493520
 H     68  67  66     1.091467193689   109.23344771    99.73434856
 H     68  67  66     1.091106700648   109.79410605   342.92312795
 H     69  67  66     1.092853832129   108.24533955    54.80917611
 H     69  67  66     1.092261450249   108.92691432   298.15028636
 H     70  69  67     1.088350379657   110.60785642   304.40625186
 H     70  69  67     1.087766578775   109.85673089   185.09568979
 H     70  69  67     1.086376267644   111.41280261    65.55478388
 H     71  30  29     1.086181271105   115.87117864   158.75017741
 H     77  74  73     1.078199649508   121.53549666     2.48471593
 H     78  77  74     1.079739055652   119.02918319   180.25751444
 H     79  78  77     1.079594911159   119.64667267   179.49066487
 H     80  75  74     1.079094217295   120.12059252   180.56403965
 H     87  68  67     1.086019774083   111.44939321   301.54708286
 H     87  68  67     1.087926756266   110.17895190   181.33712406
 H     87  68  67     1.089016555843   110.75235794    62.00210646

---------------------------
INTERNAL COORDINATES (A.U.)
---------------------------
 S      0   0   0     0.000000000000     0.00000000     0.00000000
 N      1   0   0     3.040185220879     0.00000000     0.00000000
 C      2   1   0     2.518173105892   109.30388131     0.00000000
 C      3   2   1     2.716264918752   111.48390416     0.00000000
 N      4   3   2     2.512700728915   112.10247280   359.96365429
 C      3   2   1     2.687335495140   128.13426794   179.78470701
 C      6   3   2     2.628359665211   115.87398504   180.82077785
 C      7   6   3     2.624519854743   123.53351207   359.00334394
 C      8   7   6     2.628798799073   122.63201662     0.22463985
 C      9   8   7     2.699990117955   123.87487229   181.45011886
 C      6   3   2     2.699805216948   121.81465631     1.39350818
 C     11   6   3     2.616768355816   127.52423302     3.13702403
 C     12  11   6     2.623049186407   112.52921251   178.03007396
 C     13  12  11     2.633112600992   112.80777493     0.88304269
 S     14  13  12     3.244074759982   112.64070940   359.44947428
 C     13  12  11     2.861096849785   135.79960182   179.63984870
 C     16  13  12     2.868182922359    99.99911362   178.38314739
 C     17  16  13     2.658894700422   110.39041839     3.43579750
 C     17  16  13     2.612828515239   137.82888708   181.94925931
 C     19  17  16     2.636812791090   113.27845411   183.19042279
 S     18  17  16     3.222345754172   113.37654432   177.54318335
 C     10   9   8     2.625004030364   127.66524143     4.72793925
 C     22  10   9     2.621076498805   112.67321838   179.30533578
 C     23  22  10     2.644434237230   112.02231610   359.46789824
 S     24  23  22     3.243189179030   113.14714927     0.46228313
 C     23  22  10     2.856793046009   137.08533712   181.76626325
 C     26  23  22     2.854781187923   100.30157420   175.77949676
 C     27  26  23     2.648616030176   110.82116597     2.32459951
 C     27  26  23     2.609005044474   136.20067196   175.67437588
 C     29  27  26     2.635546897235   112.67605360   185.51842335
 S     28  27  26     3.226670805520   112.78918983   177.50620354
 C     20  19  17     2.655311291197   130.31789167   171.01993622
 C     32  20  19     2.586427174814   130.46344052    11.02460098
 C     33  32  20     2.722131771949   133.23368391    17.38294823
 C     34  33  32     2.763200210072   107.48434979   199.86409365
 C     35  34  33     2.658485908108   108.51810393   349.55372894
 C     36  35  34     2.795388077957   109.41162363     3.10869405
 C     35  34  33     2.616090791860   131.42345599   171.53667824
 C     38  35  34     2.625204634748   118.34011256   177.49133209
 C     39  38  35     2.621358833230   121.41845149   359.60855379
 C     36  35  34     2.608979437098   121.37529199   182.53118115
 C     34  33  32     2.594205417791   125.97158398    32.20125104
 O     37  36  35     2.287451851031   127.89612042   182.73287182
 C     42  34  33     2.658790865404   124.41748540   178.07806888
 C     42  34  33     2.660614473824   121.98104158     2.74877080
 N     44  42  34     2.170411102863   176.43621491   144.38329570
 N     45  42  34     2.169261171322   177.33761522   111.69509241
 C     16  13  12     2.907818858224   111.14236418    56.98660829
 C     16  13  12     2.947324038200   104.51148898   294.31320833
 C     48  16  13     2.907873560547   116.06960276    38.04238768
 C     49  16  13     2.915964524380   123.56262867   166.55613835
 C     50  48  16     2.905060550988   112.90779379    71.13007563
 C     52  50  48     2.880097241487   113.34507437   228.78982622
 C     50  48  16     2.903037867537   108.14029447   194.94800693
 C     54  50  48     2.879232501370   113.20436229   171.44231298
 C     51  49  16     2.902118107253   115.67150924   286.38382906
 C     56  51  49     2.882352188353   114.23264688   307.51210006
 C     51  49  16     2.894292303937   112.94511673    55.73527556
 C     58  51  49     2.882832224835   113.62982826   159.01552193
 C     26  23  22     2.903406400909   111.97259061    54.02280540
 C     60  26  23     2.906781760137   114.87630046    48.83527185
 C     61  60  26     2.910552335205   112.42510690    78.92725433
 C     62  61  60     2.881011431785   112.95266726   230.20785409
 C     61  60  26     2.902234553747   108.92111519   202.93935103
 C     64  61  60     2.879658122097   113.33237046   172.10853129
 C     26  23  22     2.927632201790   111.50626710   287.54787879
 C     66  26  23     2.908576732220   116.24538716    65.15540425
 C     67  66  26     2.912678935224   111.86231691    96.38518159
 C     67  66  26     2.903236119754   108.49972327   220.23687669
 C     69  67  66     2.879654655705   114.23829211   175.49098926
 C     30  29  27     2.653259048504   130.00018253   182.21602392
 C     71  30  29     2.585187457772   129.71738497   343.45115808
 C     72  71  30     2.724348313819   133.40518278   344.07198875
 C     73  72  71     2.767646976473   107.25225819   163.00244787
 C     74  73  72     2.658109643188   108.72087141     9.85195841
 C     75  74  73     2.792531743431   109.34616271   357.24772581
 C     74  73  72     2.616805359264   131.43571202   188.60943321
 C     77  74  73     2.625297694596   118.42373895   181.79392404
 C     78  77  74     2.621158011220   121.46441484     0.31690984
 C     75  74  73     2.608989297895   121.53056516   178.05820288
 O     76  75  74     2.287704403412   127.95424265   176.96234351
 C     73  72  71     2.594816936993   126.98133064   331.33264964
 C     82  73  72     2.662255781748   124.09791592   183.68199948
 C     82  73  72     2.661090443647   124.17962475   359.90083843
 N     84  82  73     2.170332167213   176.56722298   205.10031275
 N     83  82  73     2.170292345038   176.26075903   204.79377158
 C     68  67  66     2.883706169098   113.49298514   221.97216167
 H      7   6   3     2.041929916798   118.11343354   179.51022443
 H      8   7   6     2.037542746024   118.10362477   180.27556879
 H     12  11   6     2.029931233727   121.54057443   359.04230139
 H     19  17  16     2.026555468065   124.96848348     1.25290154
 H     22  10   9     2.030149835616   122.32813499     0.96506313
 H     29  27  26     2.032823025271   124.73882567     8.86278062
 H     32  20  19     2.052996617389   115.22187062   199.12069029
 H     38  35  34     2.038103011562   121.44780612   356.89965714
 H     39  38  35     2.040436700170   119.07425862   179.76413251
 H     40  39  38     2.040191686272   119.60754915   180.59482199
 H     41  36  35     2.039190856527   120.15312878   179.32636060
 H     48  16  13     2.058204784398   106.83878982   278.84399881
 H     48  16  13     2.061511072806   109.17006656   161.61839973
 H     49  16  13     2.061160844993   106.38226813    43.02166794
 H     49  16  13     2.068580172070   105.83870402   289.90241131
 H     50  48  16     2.068732314269   108.13762622   310.84965971
 H     51  49  16     2.077017144826   103.44636643   170.90321136
 H     52  50  48     2.061455062407   109.76025624   106.62594044
 H     52  50  48     2.057436519968   109.99861804   350.04346193
 H     53  52  50     2.056848447551   110.77400206    60.89953829
 H     53  52  50     2.054484710398   109.80977904   180.35780436
 H     53  52  50     2.054640816785   111.26131965   300.54184948
 H     54  50  48     2.066349730141   108.96524931    50.83528172
 H     54  50  48     2.064608592832   109.17809192   293.64714534
 H     55  54  50     2.056553629270   110.40904832   303.02774200
 H     55  54  50     2.055868805771   110.15009904   183.44711977
 H     55  54  50     2.052617526797   111.18606137    63.61675131
 H     56  51  49     2.062715536585   107.13340644   188.50031218
 H     56  51  49     2.058350513810   110.67888254    72.20373090
 H     57  56  51     2.056295730682   110.51492469   308.68556351
 H     57  56  51     2.055626284622   109.81264662   189.38720627
 H     57  56  51     2.054849580534   112.05853443    69.67694090
 H     58  51  49     2.063855227259   108.27520514    38.93650967
 H     58  51  49     2.062546514409   109.31536525   280.75880853
 H     59  58  51     2.055835338873   110.57837998   305.50868967
 H     59  58  51     2.056414761012   109.99884468   186.02298618
 H     59  58  51     2.053185635046   111.50350081    66.38357976
 H     60  26  23     2.058943092149   107.05750106   288.63960487
 H     60  26  23     2.063259916032   109.07004219   172.26385603
 H     61  60  26     2.069125395879   107.96145183   319.27715431
 H     62  61  60     2.063162294701   109.56115862   108.25681331
 H     62  61  60     2.060248194279   109.79489625   351.24810820
 H     63  62  61     2.053872986878   111.03303693   300.65154831
 H     63  62  61     2.056110918128   110.37413876   180.45573054
 H     63  62  61     2.056133735111   110.55814060    60.76763844
 H     64  61  60     2.065569635330   108.82061565    51.65822849
 H     64  61  60     2.064895452097   109.22883168   294.59758831
 H     65  64  61     2.056235743070   110.37508623   302.89057925
 H     65  64  61     2.055657121781   110.12467072   183.36332536
 H     65  64  61     2.052998409359   111.35348227    63.50265749
 H     66  26  23     2.064030004168   106.61219997   302.97945128
 H     66  26  23     2.062653712313   108.05815942   188.82723447
 H     67  66  26     2.064023746408   108.73216105   336.64493520
 H     68  67  66     2.062574080232   109.23344771    99.73434856
 H     68  67  66     2.061892847112   109.79410605   342.92312795
 H     69  67  66     2.065194447131   108.24533955    54.80917611
 H     69  67  66     2.064075007610   108.92691432   298.15028636
 H     70  69  67     2.056684155301   110.60785642   304.40625186
 H     70  69  67     2.055580931517   109.85673089   185.09568979
 H     70  69  67     2.052953624239   111.41280261    65.55478388
 H     71  30  29     2.052585134184   115.87117864   158.75017741
 H     77  74  73     2.037502055261   121.53549666     2.48471593
 H     78  77  74     2.040411111281   119.02918319   180.25751444
 H     79  78  77     2.040138717665   119.64667267   179.49066487
 H     80  75  74     2.039192543386   120.12059252   180.56403965
 H     87  68  67     2.052279949041   111.44939321   301.54708286
 H     87  68  67     2.055883623109   110.17895190   181.33712406
 H     87  68  67     2.057943045849   110.75235794    62.00210646

---------------------
BASIS SET INFORMATION
---------------------
There are 5 groups of distinct atoms

 Group   1 Type S   : 10s7p1d contracted to 4s3p1d pattern {5311/511/1}
 Group   2 Type N   : 7s4p1d contracted to 3s2p1d pattern {511/31/1}
 Group   3 Type C   : 7s4p1d contracted to 3s2p1d pattern {511/31/1}
 Group   4 Type O   : 7s4p1d contracted to 3s2p1d pattern {511/31/1}
 Group   5 Type H   : 4s1p contracted to 2s1p pattern {31/1}

Atom   0S    basis set group =>   1
Atom   1N    basis set group =>   2
Atom   2C    basis set group =>   3
Atom   3C    basis set group =>   3
Atom   4N    basis set group =>   2
Atom   5C    basis set group =>   3
Atom   6C    basis set group =>   3
Atom   7C    basis set group =>   3
Atom   8C    basis set group =>   3
Atom   9C    basis set group =>   3
Atom  10C    basis set group =>   3
Atom  11C    basis set group =>   3
Atom  12C    basis set group =>   3
Atom  13C    basis set group =>   3
Atom  14S    basis set group =>   1
Atom  15C    basis set group =>   3
Atom  16C    basis set group =>   3
Atom  17C    basis set group =>   3
Atom  18C    basis set group =>   3
Atom  19C    basis set group =>   3
Atom  20S    basis set group =>   1
Atom  21C    basis set group =>   3
Atom  22C    basis set group =>   3
Atom  23C    basis set group =>   3
Atom  24S    basis set group =>   1
Atom  25C    basis set group =>   3
Atom  26C    basis set group =>   3
Atom  27C    basis set group =>   3
Atom  28C    basis set group =>   3
Atom  29C    basis set group =>   3
Atom  30S    basis set group =>   1
Atom  31C    basis set group =>   3
Atom  32C    basis set group =>   3
Atom  33C    basis set group =>   3
Atom  34C    basis set group =>   3
Atom  35C    basis set group =>   3
Atom  36C    basis set group =>   3
Atom  37C    basis set group =>   3
Atom  38C    basis set group =>   3
Atom  39C    basis set group =>   3
Atom  40C    basis set group =>   3
Atom  41C    basis set group =>   3
Atom  42O    basis set group =>   4
Atom  43C    basis set group =>   3
Atom  44C    basis set group =>   3
Atom  45N    basis set group =>   2
Atom  46N    basis set group =>   2
Atom  47C    basis set group =>   3
Atom  48C    basis set group =>   3
Atom  49C    basis set group =>   3
Atom  50C    basis set group =>   3
Atom  51C    basis set group =>   3
Atom  52C    basis set group =>   3
Atom  53C    basis set group =>   3
Atom  54C    basis set group =>   3
Atom  55C    basis set group =>   3
Atom  56C    basis set group =>   3
Atom  57C    basis set group =>   3
Atom  58C    basis set group =>   3
Atom  59C    basis set group =>   3
Atom  60C    basis set group =>   3
Atom  61C    basis set group =>   3
Atom  62C    basis set group =>   3
Atom  63C    basis set group =>   3
Atom  64C    basis set group =>   3
Atom  65C    basis set group =>   3
Atom  66C    basis set group =>   3
Atom  67C    basis set group =>   3
Atom  68C    basis set group =>   3
Atom  69C    basis set group =>   3
Atom  70C    basis set group =>   3
Atom  71C    basis set group =>   3
Atom  72C    basis set group =>   3
Atom  73C    basis set group =>   3
Atom  74C    basis set group =>   3
Atom  75C    basis set group =>   3
Atom  76C    basis set group =>   3
Atom  77C    basis set group =>   3
Atom  78C    basis set group =>   3
Atom  79C    basis set group =>   3
Atom  80O    basis set group =>   4
Atom  81C    basis set group =>   3
Atom  82C    basis set group =>   3
Atom  83C    basis set group =>   3
Atom  84N    basis set group =>   2
Atom  85N    basis set group =>   2
Atom  86C    basis set group =>   3
Atom  87H    basis set group =>   5
Atom  88H    basis set group =>   5
Atom  89H    basis set group =>   5
Atom  90H    basis set group =>   5
Atom  91H    basis set group =>   5
Atom  92H    basis set group =>   5
Atom  93H    basis set group =>   5
Atom  94H    basis set group =>   5
Atom  95H    basis set group =>   5
Atom  96H    basis set group =>   5
Atom  97H    basis set group =>   5
Atom  98H    basis set group =>   5
Atom  99H    basis set group =>   5
Atom 100H    basis set group =>   5
Atom 101H    basis set group =>   5
Atom 102H    basis set group =>   5
Atom 103H    basis set group =>   5
Atom 104H    basis set group =>   5
Atom 105H    basis set group =>   5
Atom 106H    basis set group =>   5
Atom 107H    basis set group =>   5
Atom 108H    basis set group =>   5
Atom 109H    basis set group =>   5
Atom 110H    basis set group =>   5
Atom 111H    basis set group =>   5
Atom 112H    basis set group =>   5
Atom 113H    basis set group =>   5
Atom 114H    basis set group =>   5
Atom 115H    basis set group =>   5
Atom 116H    basis set group =>   5
Atom 117H    basis set group =>   5
Atom 118H    basis set group =>   5
Atom 119H    basis set group =>   5
Atom 120H    basis set group =>   5
Atom 121H    basis set group =>   5
Atom 122H    basis set group =>   5
Atom 123H    basis set group =>   5
Atom 124H    basis set group =>   5
Atom 125H    basis set group =>   5
Atom 126H    basis set group =>   5
Atom 127H    basis set group =>   5
Atom 128H    basis set group =>   5
Atom 129H    basis set group =>   5
Atom 130H    basis set group =>   5
Atom 131H    basis set group =>   5
Atom 132H    basis set group =>   5
Atom 133H    basis set group =>   5
Atom 134H    basis set group =>   5
Atom 135H    basis set group =>   5
Atom 136H    basis set group =>   5
Atom 137H    basis set group =>   5
Atom 138H    basis set group =>   5
Atom 139H    basis set group =>   5
Atom 140H    basis set group =>   5
Atom 141H    basis set group =>   5
Atom 142H    basis set group =>   5
Atom 143H    basis set group =>   5
Atom 144H    basis set group =>   5
Atom 145H    basis set group =>   5
Atom 146H    basis set group =>   5
Atom 147H    basis set group =>   5
Atom 148H    basis set group =>   5
Atom 149H    basis set group =>   5
Atom 150H    basis set group =>   5
Atom 151H    basis set group =>   5
Atom 152H    basis set group =>   5
Atom 153H    basis set group =>   5
Atom 154H    basis set group =>   5
---------------------------------
AUXILIARY/J BASIS SET INFORMATION
---------------------------------
There are 5 groups of distinct atoms

 Group   1 Type S   : 14s5p5d2f1g contracted to 8s4p3d1f1g pattern {71111111/2111/311/2/1}
 Group   2 Type N   : 12s5p4d2f1g contracted to 6s4p3d1f1g pattern {711111/2111/211/2/1}
 Group   3 Type C   : 12s5p4d2f1g contracted to 6s4p3d1f1g pattern {711111/2111/211/2/1}
 Group   4 Type O   : 12s5p4d2f1g contracted to 6s4p3d1f1g pattern {711111/2111/211/2/1}
 Group   5 Type H   : 5s2p1d contracted to 3s1p1d pattern {311/2/1}

Atom   0S    basis set group =>   1
Atom   1N    basis set group =>   2
Atom   2C    basis set group =>   3
Atom   3C    basis set group =>   3
Atom   4N    basis set group =>   2
Atom   5C    basis set group =>   3
Atom   6C    basis set group =>   3
Atom   7C    basis set group =>   3
Atom   8C    basis set group =>   3
Atom   9C    basis set group =>   3
Atom  10C    basis set group =>   3
Atom  11C    basis set group =>   3
Atom  12C    basis set group =>   3
Atom  13C    basis set group =>   3
Atom  14S    basis set group =>   1
Atom  15C    basis set group =>   3
Atom  16C    basis set group =>   3
Atom  17C    basis set group =>   3
Atom  18C    basis set group =>   3
Atom  19C    basis set group =>   3
Atom  20S    basis set group =>   1
Atom  21C    basis set group =>   3
Atom  22C    basis set group =>   3
Atom  23C    basis set group =>   3
Atom  24S    basis set group =>   1
Atom  25C    basis set group =>   3
Atom  26C    basis set group =>   3
Atom  27C    basis set group =>   3
Atom  28C    basis set group =>   3
Atom  29C    basis set group =>   3
Atom  30S    basis set group =>   1
Atom  31C    basis set group =>   3
Atom  32C    basis set group =>   3
Atom  33C    basis set group =>   3
Atom  34C    basis set group =>   3
Atom  35C    basis set group =>   3
Atom  36C    basis set group =>   3
Atom  37C    basis set group =>   3
Atom  38C    basis set group =>   3
Atom  39C    basis set group =>   3
Atom  40C    basis set group =>   3
Atom  41C    basis set group =>   3
Atom  42O    basis set group =>   4
Atom  43C    basis set group =>   3
Atom  44C    basis set group =>   3
Atom  45N    basis set group =>   2
Atom  46N    basis set group =>   2
Atom  47C    basis set group =>   3
Atom  48C    basis set group =>   3
Atom  49C    basis set group =>   3
Atom  50C    basis set group =>   3
Atom  51C    basis set group =>   3
Atom  52C    basis set group =>   3
Atom  53C    basis set group =>   3
Atom  54C    basis set group =>   3
Atom  55C    basis set group =>   3
Atom  56C    basis set group =>   3
Atom  57C    basis set group =>   3
Atom  58C    basis set group =>   3
Atom  59C    basis set group =>   3
Atom  60C    basis set group =>   3
Atom  61C    basis set group =>   3
Atom  62C    basis set group =>   3
Atom  63C    basis set group =>   3
Atom  64C    basis set group =>   3
Atom  65C    basis set group =>   3
Atom  66C    basis set group =>   3
Atom  67C    basis set group =>   3
Atom  68C    basis set group =>   3
Atom  69C    basis set group =>   3
Atom  70C    basis set group =>   3
Atom  71C    basis set group =>   3
Atom  72C    basis set group =>   3
Atom  73C    basis set group =>   3
Atom  74C    basis set group =>   3
Atom  75C    basis set group =>   3
Atom  76C    basis set group =>   3
Atom  77C    basis set group =>   3
Atom  78C    basis set group =>   3
Atom  79C    basis set group =>   3
Atom  80O    basis set group =>   4
Atom  81C    basis set group =>   3
Atom  82C    basis set group =>   3
Atom  83C    basis set group =>   3
Atom  84N    basis set group =>   2
Atom  85N    basis set group =>   2
Atom  86C    basis set group =>   3
Atom  87H    basis set group =>   5
Atom  88H    basis set group =>   5
Atom  89H    basis set group =>   5
Atom  90H    basis set group =>   5
Atom  91H    basis set group =>   5
Atom  92H    basis set group =>   5
Atom  93H    basis set group =>   5
Atom  94H    basis set group =>   5
Atom  95H    basis set group =>   5
Atom  96H    basis set group =>   5
Atom  97H    basis set group =>   5
Atom  98H    basis set group =>   5
Atom  99H    basis set group =>   5
Atom 100H    basis set group =>   5
Atom 101H    basis set group =>   5
Atom 102H    basis set group =>   5
Atom 103H    basis set group =>   5
Atom 104H    basis set group =>   5
Atom 105H    basis set group =>   5
Atom 106H    basis set group =>   5
Atom 107H    basis set group =>   5
Atom 108H    basis set group =>   5
Atom 109H    basis set group =>   5
Atom 110H    basis set group =>   5
Atom 111H    basis set group =>   5
Atom 112H    basis set group =>   5
Atom 113H    basis set group =>   5
Atom 114H    basis set group =>   5
Atom 115H    basis set group =>   5
Atom 116H    basis set group =>   5
Atom 117H    basis set group =>   5
Atom 118H    basis set group =>   5
Atom 119H    basis set group =>   5
Atom 120H    basis set group =>   5
Atom 121H    basis set group =>   5
Atom 122H    basis set group =>   5
Atom 123H    basis set group =>   5
Atom 124H    basis set group =>   5
Atom 125H    basis set group =>   5
Atom 126H    basis set group =>   5
Atom 127H    basis set group =>   5
Atom 128H    basis set group =>   5
Atom 129H    basis set group =>   5
Atom 130H    basis set group =>   5
Atom 131H    basis set group =>   5
Atom 132H    basis set group =>   5
Atom 133H    basis set group =>   5
Atom 134H    basis set group =>   5
Atom 135H    basis set group =>   5
Atom 136H    basis set group =>   5
Atom 137H    basis set group =>   5
Atom 138H    basis set group =>   5
Atom 139H    basis set group =>   5
Atom 140H    basis set group =>   5
Atom 141H    basis set group =>   5
Atom 142H    basis set group =>   5
Atom 143H    basis set group =>   5
Atom 144H    basis set group =>   5
Atom 145H    basis set group =>   5
Atom 146H    basis set group =>   5
Atom 147H    basis set group =>   5
Atom 148H    basis set group =>   5
Atom 149H    basis set group =>   5
Atom 150H    basis set group =>   5
Atom 151H    basis set group =>   5
Atom 152H    basis set group =>   5
Atom 153H    basis set group =>   5
Atom 154H    basis set group =>   5
------------------------------------------------------------------------------
                           ORCA GTO INTEGRAL CALCULATION
                           -- RI-GTO INTEGRALS CHOSEN --
------------------------------------------------------------------------------

                         BASIS SET STATISTICS AND STARTUP INFO

Gaussian basis set:
 # of primitive gaussian shells          ... 1414
 # of primitive gaussian functions       ... 2624
 # of contracted shells                  ...  736
 # of contracted basis functions         ... 1578
 Highest angular momentum                ...    2
 Maximum contraction depth               ...    5
Auxiliary gaussian basis set:
 # of primitive gaussian shells          ... 2647
 # of primitive gaussian functions       ... 7213
 # of contracted shells                  ... 1655
 # of contracted aux-basis functions     ... 5021
 Highest angular momentum                ...    4
 Maximum contraction depth               ...    7
Ratio of auxiliary to basis functions    ...  3.18
Integral package used                  ... LIBINT
 One Electron integrals                  ... done
 Ordering auxiliary basis shells         ... done
 Integral threshhold             Thresh  ...  2.500e-11
 Primitive cut-off               TCut    ...  2.500e-12
 Pre-screening matrix                    ... done
 Shell pair data                         ... 
 Ordering of the shell pairs             ... done (   0.021 sec) 85036 of 271216 pairs
 Determination of significant pairs      ... done (   0.000 sec)
 Creation of shell pair data             ... done (   0.013 sec)
 Storage of shell pair data              ... done (   0.018 sec)
 Shell pair data done in (   0.052 sec)
 Computing two index integrals           ... done
 Cholesky decomposition of the V-matrix  ... done


Timings:
 Total evaluation time                   ...   4.625 sec (  0.077 min)
 One electron matrix time                ...   1.487 sec (  0.025 min) = 32.2%
 Schwartz matrix evaluation time         ...   1.231 sec (  0.021 min) = 26.6%
 Two index repulsion integral time       ...   0.722 sec (  0.012 min) = 15.6%
 Cholesky decomposition of V             ...   1.112 sec (  0.019 min) = 24.1%
 Three index repulsion integral time     ...   0.000 sec (  0.000 min) =  0.0%

-------------------------------------------------------------------------------
                                 ORCA SCF
-------------------------------------------------------------------------------

------------
SCF SETTINGS
------------
Hamiltonian:
 Density Functional     Method          .... DFT(GTOs)
 Exchange Functional    Exchange        .... WB88
 Correlation Functional Correlation     .... LYP
 LDA part of GGA corr.  LDAOpt          .... VWN-5
 Gradients option       PostSCFGGA      .... off
 Hybrid DFT is turned on
   Fraction HF Exchange ScalHFX         ....  0.190000
   Scaling of DF-GGA-X  ScalDFX         ....  0.350000
   Scaling of DF-GGA-C  ScalDFC         ....  0.810000
   Scaling of DF-LDA-C  ScalLDAC        ....  1.000000
   Perturbative correction              ....  0.000000
   Density functional embedding theory  .... OFF
 Long-range corrected/Screened/Range-Separated Hybrid DFT is turned on
   Amount of maximum screened exact exchange              ....  0.460000
   Range separation parameter mu (erf(mu*r12)/r12)        ....  0.330000
 RI-approximation to the Coulomb term is turned on
   Number of auxiliary basis functions  .... 5021
   RIJ-COSX (HFX calculated with COS-X)).... on


General Settings:
 Integral files         IntName         .... BTCIC
 Hartree-Fock type      HFTyp           .... RHF
 Total Charge           Charge          ....    0
 Multiplicity           Mult            ....    1
 Number of Electrons    NEL             ....  650
 Basis Dimension        Dim             .... 1578
 Nuclear Repulsion      ENuc            ....  15344.4219991284 Eh

Convergence Acceleration:
 DIIS                   CNVDIIS         .... on
   Start iteration      DIISMaxIt       ....    12
   Startup error        DIISStart       ....  0.200000
   # of expansion vecs  DIISMaxEq       ....     5
   Bias factor          DIISBfac        ....   1.050
   Max. coefficient     DIISMaxC        ....  10.000
 Newton-Raphson         CNVNR           .... off
 SOSCF                  CNVSOSCF        .... on
   Start iteration      SOSCFMaxIt      ....   150
   Startup grad/error   SOSCFStart      ....  0.003300
 Level Shifting         CNVShift        .... on
   Level shift para.    LevelShift      ....    0.2500
   Turn off err/grad.   ShiftErr        ....    0.0010
 Zerner damping         CNVZerner       .... off
 Static damping         CNVDamp         .... on
   Fraction old density DampFac         ....    0.7000
   Max. Damping (<1)    DampMax         ....    0.9800
   Min. Damping (>=0)   DampMin         ....    0.0000
   Turn off err/grad.   DampErr         ....    0.1000
 Fernandez-Rico         CNVRico         .... off

SCF Procedure:
 Maximum # iterations   MaxIter         ....   125
 SCF integral mode      SCFMode         .... Direct
   Integral package                     .... LIBINT
 Reset frequency        DirectResetFreq ....    20
 Integral Threshold     Thresh          ....  2.500e-11 Eh
 Primitive CutOff       TCut            ....  2.500e-12 Eh

Convergence Tolerance:
 Convergence Check Mode ConvCheckMode   .... Total+1el-Energy
 Convergence forced     ConvForced      .... 1
 Energy Change          TolE            ....  1.000e-08 Eh
 1-El. energy change                    ....  1.000e-05 Eh
 Orbital Gradient       TolG            ....  1.000e-05
 Orbital Rotation angle TolX            ....  1.000e-05
 DIIS Error             TolErr          ....  5.000e-07


Diagonalization of the overlap matrix:
Smallest eigenvalue                        ... 1.549e-04
Time for diagonalization                   ...    0.890 sec
Threshold for overlap eigenvalues          ... 1.000e-08
Number of eigenvalues below threshold      ... 0
Time for construction of square roots      ...    0.344 sec
Total time needed                          ...    1.241 sec

-------------------
DFT GRID GENERATION
-------------------

General Integration Accuracy     IntAcc      ...  4.670
Radial Grid Type                 RadialGrid  ... Gauss-Chebyshev
Angular Grid (max. acc.)         AngularGrid ... Lebedev-302
Angular grid pruning method      GridPruning ... 3 (G Style)
Weight generation scheme         WeightScheme... Becke
Basis function cutoff            BFCut       ...    1.0000e-11
Integration weight cutoff        WCut        ...    1.0000e-14
Grids for H and He will be reduced by one unit

# of grid points (after initial pruning)     ... 774406 (   2.8 sec)
# of grid points (after weights+screening)   ... 643348 (  47.2 sec)
nearest neighbour list constructed           ...    0.0 sec
Grid point re-assignment to atoms done       ...    0.1 sec
Grid point division into batches done        ...    2.2 sec
Reduced shell lists constructed in   14.9 sec

Total number of grid points                  ...   643348
Total number of batches                      ...    10131
Average number of points per batch           ...       63
Average number of grid points per atom       ...     4151
Average number of shells per batch           ...   122.88 (16.70%)
Average number of basis functions per batch  ...   238.16 (15.09%)
Average number of large shells per batch     ...    69.27 (56.37%)
Average number of large basis fcns per batch ...   136.36 (57.26%)
Maximum spatial batch extension              ...  25.21, 24.37, 21.67 au
Average spatial batch extension              ...   1.99,  1.95,  2.08 au

Time for grid setup =   64.984 sec

------------------------------
INITIAL GUESS: MODEL POTENTIAL
------------------------------
Loading Hartree-Fock densities                     ... done
Calculating cut-offs                               ... done
Setting up the integral package                    ... done
Initializing the effective Hamiltonian             ... done
Starting the Coulomb interaction                   ... done (  21.7 sec)
Reading the grid                                   ... done
Mapping shells                                     ... done
Starting the XC term evaluation                    ... done (  15.7 sec)
  promolecular density results
     # of electrons  =    649.964313432
     EX              =   -578.984577171
     EC              =    -22.378784245
     EX+EC           =   -601.363361416
Transforming the Hamiltonian                       ... done (   0.3 sec)
Diagonalizing the Hamiltonian                      ... done (   0.9 sec)
Back transforming the eigenvectors                 ... done (   0.1 sec)
Now organizing SCF variables                       ... done
                      ------------------
                      INITIAL GUESS DONE ( 104.3 sec)
                      ------------------
--------------------
COSX GRID GENERATION
--------------------

General Integration Accuracy     IntAcc      ...  3.340
Radial Grid Type                 RadialGrid  ... Gauss-Chebyshev
Angular Grid (max. acc.)         AngularGrid ... Lebedev-50
Angular grid pruning method      GridPruning ... 3 (G Style)
Weight generation scheme         WeightScheme... Becke
Basis function cutoff            BFCut       ...    1.0000e-11
Integration weight cutoff        WCut        ...    1.0000e-14
Grids for H and He will be reduced by one unit

# of grid points (after initial pruning)     ...  72766 (   0.2 sec)
# of grid points (after weights+screening)   ...  63389 (   4.4 sec)
nearest neighbour list constructed           ...    0.0 sec
Grid point re-assignment to atoms done       ...    0.0 sec
Grid point division into batches done        ...    0.0 sec
Reduced shell lists constructed in    1.7 sec

Total number of grid points                  ...    63389
Total number of batches                      ...     1066
Average number of points per batch           ...       59
Average number of grid points per atom       ...      409
Average number of shells per batch           ...   149.39 (20.30%)
Average number of basis functions per batch  ...   293.29 (18.59%)
Average number of large shells per batch     ...    84.85 (56.80%)
Average number of large basis fcns per batch ...   169.61 (57.83%)
Maximum spatial batch extension              ...  18.75, 20.29, 23.75 au
Average spatial batch extension              ...   3.97,  3.88,  4.48 au

Overlap Fitting                  UseSFitting ... on
Constructing numerical overlap ... done (      1.2 sec)
Inverting numerical overlap    ... done (      0.1 sec)
Obtaining analytic overlap     ... done (      0.0 sec)
Final contraction and storage  ... done (      0.2 sec)


General Integration Accuracy     IntAcc      ...  3.670
Radial Grid Type                 RadialGrid  ... Gauss-Chebyshev
Angular Grid (max. acc.)         AngularGrid ... Lebedev-50
Angular grid pruning method      GridPruning ... 3 (G Style)
Weight generation scheme         WeightScheme... Becke
Basis function cutoff            BFCut       ...    1.0000e-11
Integration weight cutoff        WCut        ...    1.0000e-14
Grids for H and He will be reduced by one unit

# of grid points (after initial pruning)     ...  91938 (   0.2 sec)
# of grid points (after weights+screening)   ...  79695 (   5.6 sec)
nearest neighbour list constructed           ...    0.0 sec
Grid point re-assignment to atoms done       ...    0.0 sec
Grid point division into batches done        ...    0.0 sec
Reduced shell lists constructed in    1.9 sec

Total number of grid points                  ...    79695
Total number of batches                      ...     1324
Average number of points per batch           ...       60
Average number of grid points per atom       ...      514
Average number of shells per batch           ...   145.64 (19.79%)
Average number of basis functions per batch  ...   285.24 (18.08%)
Average number of large shells per batch     ...    82.36 (56.55%)
Average number of large basis fcns per batch ...   164.11 (57.53%)
Maximum spatial batch extension              ...  18.15, 22.49, 25.37 au
Average spatial batch extension              ...   3.71,  3.61,  4.16 au

Overlap Fitting                  UseSFitting ... on
Constructing numerical overlap ... done (      1.5 sec)
Inverting numerical overlap    ... done (      0.1 sec)
Obtaining analytic overlap     ... done (      0.0 sec)
Final contraction and storage  ... done (      0.2 sec)


General Integration Accuracy     IntAcc      ...  4.010
Radial Grid Type                 RadialGrid  ... Gauss-Chebyshev
Angular Grid (max. acc.)         AngularGrid ... Lebedev-110
Angular grid pruning method      GridPruning ... 3 (G Style)
Weight generation scheme         WeightScheme... Becke
Basis function cutoff            BFCut       ...    1.0000e-11
[...]
   1      2.72     456.4   130 -> 132      gap,J,K:    4.058     1.672     0.166
   2      2.84     436.2   129 -> 131      gap,J,K:    4.265     1.832     0.204
   3      2.91     425.8   130 -> 133      gap,J,K:    4.390     1.806     0.164
   4      3.36     368.7   129 -> 132      gap,J,K:    4.741     1.744     0.183
   5      3.56     348.3   130 -> 135      gap,J,K:    4.923     1.544     0.090
   6      3.57     347.1   129 -> 133      gap,J,K:    5.073     1.727     0.113
   7      3.59     345.3   130 -> 134      gap,J,K:    4.871     1.456     0.088
   8      3.87     320.3   128 -> 131      gap,J,K:    5.245     1.817     0.222
   9      4.22     294.0   129 -> 134      gap,J,K:    5.554     1.570     0.117
  10      4.23     293.1   129 -> 135      gap,J,K:    5.606     1.593     0.109
  11      4.25     292.1   130 -> 136      gap,J,K:    5.836     1.882     0.145
  12      4.31     287.7   127 -> 131      gap,J,K:    5.608     1.511     0.106
  13      4.37     284.0   125 -> 131      gap,J,K:    5.951     1.829     0.122
  14      4.37     284.0   128 -> 132      gap,J,K:    5.721     1.710     0.178
  15      4.40     281.8   124 -> 131      gap,J,K:    6.006     1.865     0.130
  16      4.46     278.0   126 -> 131      gap,J,K:    5.745     1.513     0.114
  17      4.56     272.1   123 -> 131      gap,J,K:    6.107     1.797     0.124
  18      4.58     270.8   122 -> 131      gap,J,K:    6.163     1.834     0.125
  19      4.62     268.6   130 -> 137      gap,J,K:    6.011     1.798     0.201
  20      4.65     266.6   128 -> 133      gap,J,K:    6.053     1.749     0.173
  21      4.73     262.3   121 -> 131      gap,J,K:    6.237     1.685     0.087
  22      4.80     258.1   127 -> 132      gap,J,K:    6.083     1.705     0.212
  23      4.83     256.7   119 -> 131      gap,J,K:    6.306     1.642     0.083
  24      4.87     254.8   120 -> 131      gap,J,K:    6.258     1.418     0.013

average / max PT2 energy lowering (eV):       0.056       0.087

CSF included by PT:                   163 
total number of CSF included:         190 
 
sTD-DFT procedure...
setting up A+B and A-B matrices...  done
estimated time (min):    0.000
calculating (A-B)^0.5 ... done
calculating (A+B)*(A-B)^0.5 ... done
calculating (A-B)^0.5 *(A+B)*(A-B)^0.5 ... done
diagonalizing ...using LAPACKE_ssyevr ...done

   38 roots found, lowest/highest eigenvalue :     1.752     4.997

excitation energies, transition moments and amplitudes

molecular weight: 1233.698
state   eV        nm        fL         fV        Rl        RV
   0   1.752     707.8   2.467096   3.249661  -0.321139   2.600503     0.90 ( 130-> 131)    0.08 ( 129-> 132)    0.01 ( 128-> 133)
   1   2.275     545.0   0.008464   0.009557  100.860644  105.340622     0.60 ( 130-> 132)    0.28 ( 129-> 131)    0.07 ( 129-> 133)
   2   2.520     492.0   0.119770   0.128114  -27.114899  -27.897070     0.75 ( 130-> 133)    0.16 ( 129-> 132)    0.02 ( 129-> 134)
   3   2.712     457.2   0.001974   0.002089   2.029873   2.103722     0.62 ( 129-> 131)    0.20 ( 130-> 132)    0.12 ( 129-> 133)
   4   3.110     398.6   0.480104   0.450579  13.239996  13.546972     0.64 ( 130-> 135)    0.18 ( 129-> 134)    0.03 ( 129-> 132)
   5   3.135     395.5   0.008755   0.007606  -12.784305  -11.007403     0.61 ( 130-> 134)    0.19 ( 129-> 135)    0.07 ( 129-> 133)
   6   3.347     370.4   0.091101   0.098513  -14.470215  -14.087658     0.43 ( 129-> 132)    0.24 ( 128-> 131)    0.11 ( 130-> 133)
   7   3.549     349.4   0.001480   0.001458  -72.008063  -71.162942     0.51 ( 129-> 133)    0.14 ( 128-> 132)    0.12 ( 130-> 132)
   8   3.625     342.1   0.097791   0.108134  -19.535126  -16.582892     0.46 ( 128-> 131)    0.17 ( 129-> 132)    0.09 ( 127-> 132)
   9   3.720     333.3   0.003380   0.002241  62.822251  51.128957     0.30 ( 127-> 131)    0.14 ( 126-> 132)    0.08 ( 129-> 133)
  10   3.781     327.9   0.183273   0.166542  -19.100932  -16.426360     0.24 ( 126-> 131)    0.11 ( 128-> 131)    0.10 ( 120-> 131)
  11   3.936     315.0   0.043941   0.030851   3.189679   0.412401     0.53 ( 125-> 131)    0.10 ( 125-> 132)    0.04 ( 120-> 131)
  12   3.967     312.6   0.150654   0.131801  26.655250  26.332950     0.43 ( 130-> 136)    0.05 ( 125-> 131)    0.05 ( 129-> 134)
  13   3.981     311.5   0.002440   0.002937  12.517174  11.655566     0.18 ( 120-> 132)    0.07 ( 121-> 131)    0.06 ( 121-> 133)
  14   3.997     310.2   0.027073   0.023556  -68.326290  -65.450301     0.13 ( 120-> 133)    0.08 ( 120-> 135)    0.08 ( 120-> 132)
  15   4.036     307.2   0.094655   0.078430  218.717970  169.529192     0.30 ( 124-> 131)    0.09 ( 120-> 134)    0.07 ( 124-> 132)
  16   4.055     305.7   0.030947   0.019340  -166.480962  -105.635707     0.39 ( 124-> 131)    0.09 ( 120-> 134)    0.06 ( 121-> 131)
  17   4.074     304.3   0.016902   0.014189  61.972210  57.044669     0.36 ( 123-> 131)    0.06 ( 123-> 132)    0.05 ( 125-> 133)
  18   4.097     302.6   0.139664   0.121387  -108.769605  -98.041533     0.12 ( 126-> 131)    0.09 ( 120-> 135)    0.08 ( 123-> 131)
  19   4.131     300.2   0.023794   0.018139  -60.444742  -50.615460     0.30 ( 122-> 131)    0.18 ( 130-> 137)    0.08 ( 129-> 135)
  20   4.210     294.5   0.001638   0.001065   0.627226  -0.626445     0.24 ( 121-> 131)    0.13 ( 122-> 131)    0.08 ( 119-> 131)
  21   4.270     290.3   0.045375   0.038479  -61.673362  -51.412865     0.30 ( 128-> 132)    0.22 ( 130-> 137)    0.07 ( 129-> 136)
  22   4.283     289.5   0.204670   0.192102  -144.121258  -138.624236     0.25 ( 129-> 134)    0.15 ( 130-> 135)    0.13 ( 128-> 133)
  23   4.336     285.9   0.043537   0.041120  108.466980  112.543151     0.28 ( 129-> 135)    0.10 ( 130-> 134)    0.07 ( 121-> 131)
  24   4.464     277.7   0.016871   0.014165  -52.366868  -39.899973     0.20 ( 118-> 132)    0.17 ( 117-> 131)    0.11 ( 117-> 133)
  25   4.474     277.1   0.070043   0.057186  89.144724  81.946299     0.32 ( 128-> 133)    0.12 ( 129-> 134)    0.06 ( 125-> 133)
  26   4.548     272.6   0.005562   0.004860  15.469094   5.503910     0.11 ( 130-> 137)    0.10 ( 127-> 131)    0.09 ( 117-> 131)
  27   4.612     268.8   0.025488   0.021023  25.282191  23.191554     0.24 ( 125-> 133)    0.21 ( 125-> 132)    0.10 ( 123-> 131)
  28   4.660     266.1   0.118747   0.088659  302.390095  263.059727     0.44 ( 116-> 131)    0.10 ( 130-> 140)    0.06 ( 130-> 139)
  29   4.688     264.4   0.215736   0.175171  -49.598046  -46.392212     0.24 ( 124-> 133)    0.24 ( 124-> 132)    0.04 ( 116-> 131)
  30   4.716     262.9   0.187300   0.161035  -25.503768  -22.467826     0.14 ( 123-> 133)    0.13 ( 123-> 132)    0.09 ( 126-> 133)
  31   4.758     260.6   0.554778   0.467965  -203.742004  -197.383058     0.11 ( 123-> 133)    0.09 ( 127-> 134)    0.07 ( 126-> 133)
  32   4.813     257.6   0.030074   0.024360  -85.659971  -62.498665     0.09 ( 127-> 133)    0.09 ( 121-> 133)    0.08 ( 127-> 135)
  33   4.824     257.0   0.139019   0.111151  -8.387277  -11.086299     0.12 ( 126-> 131)    0.12 ( 127-> 134)    0.09 ( 126-> 135)
  34   4.851     255.6   0.068857   0.055152  36.417846  34.960499     0.11 ( 122-> 133)    0.09 ( 122-> 132)    0.06 ( 126-> 131)
  35   4.936     251.2   0.021680   0.017921  140.790696  127.629125     0.29 ( 129-> 136)    0.10 ( 128-> 134)    0.05 ( 130-> 137)
  36   4.959     250.0   0.064150   0.050941  -65.670573  -59.519971     0.22 ( 130-> 138)    0.12 ( 129-> 137)    0.08 ( 127-> 132)
  37   4.997     248.1   0.014431   0.010834  -17.804826  -14.188204     0.25 ( 129-> 136)    0.07 ( 130-> 138)    0.07 ( 126-> 132)

-----------------------------------------------------------------------------
         ABSORPTION SPECTRUM VIA TRANSITION ELECTRIC DIPOLE MOMENTS
-----------------------------------------------------------------------------
State   Energy  Wavelength   fosc         T2         TX        TY        TZ  
        (cm-1)    (nm)                  (au**2)     (au)      (au)      (au) 
-----------------------------------------------------------------------------
   0   14128.2    707.8   2.467096040  57.48777   2.49744   7.07847  -1.07046
   1   18347.7    545.0   0.008463993   0.15187   0.25572   0.23037  -0.18277
   2   20323.5    492.0   0.119769635   1.94010   0.28610  -1.22234   0.60342
   3   21872.0    457.2   0.001974018   0.02971  -0.11040   0.11519   0.06522
   4   25086.6    398.6   0.480103507   6.30040   1.69883   1.84430  -0.11375
   5   25281.7    395.5   0.008754781   0.11400  -0.31062  -0.12705   0.03706
   6   26998.2    370.4   0.091100921   1.11087   0.36294  -0.86254   0.48495
   7   28621.8    349.4   0.001480225   0.01703  -0.04076  -0.07089  -0.10168
   8   29234.3    342.1   0.097790642   1.10124   0.80585   0.60527   0.29240
   9   30005.0    333.3   0.003379600   0.03708  -0.02800   0.17062   0.08476
  10   30494.4    327.9   0.183273306   1.97859   0.77682   1.16055   0.16811
  11   31747.5    315.0   0.043940923   0.45565  -0.61123   0.01588   0.28600
  12   31993.2    312.6   0.150654409   1.55024   0.62347   1.06498   0.16535
  13   32105.4    311.5   0.002439552   0.02502  -0.13879   0.07309  -0.02025
  14   32236.2    310.2   0.027072807   0.27648   0.41449  -0.32208  -0.03070
  15   32554.1    307.2   0.094655319   0.95723  -0.14598  -0.83188  -0.49385
  16   32707.7    305.7   0.030946905   0.31149   0.46614  -0.29828   0.07231
  17   32859.5    304.3   0.016901864   0.16934  -0.36930  -0.17824  -0.03444
  18   33041.7    302.6   0.139664229   1.39155   0.77466   0.61187   0.64580
  19   33316.6    300.2   0.023793954   0.23512  -0.16233   0.38602   0.24445
  20   33952.6    294.5   0.001638046   0.01588   0.08987  -0.08572   0.02142
  21   34443.1    290.3   0.045374659   0.43370  -0.64967  -0.08921   0.06062
  22   34541.3    289.5   0.204670156   1.95070   1.10109   0.82178   0.25097
  23   34973.6    285.9   0.043536946   0.40982   0.53987   0.34240   0.03353
  24   36006.1    277.7   0.016870971   0.15426  -0.00472  -0.38082  -0.09598
  25   36085.9    277.1   0.070043408   0.63901  -0.42767   0.66658  -0.10850
  26   36685.8    272.6   0.005562484   0.04992   0.04585   0.04837  -0.21325
  27   37202.0    268.8   0.025487749   0.22555  -0.45262   0.14300   0.01522
  28   37586.9    266.1   0.118747240   1.04007  -0.64783   0.61286   0.49476
  29   37814.6    264.4   0.215736249   1.87819   1.05401   0.80252   0.35100
  30   38037.7    262.9   0.187300195   1.62106   0.80316   0.77790   0.60899
  31   38375.5    260.6   0.554777586   4.75927   1.73266   1.11261   0.72060
  32   38816.6    257.6   0.030074041   0.25506  -0.28147  -0.40669  -0.10219
  33   38904.4    257.0   0.139019181   1.17639  -0.85014  -0.47275  -0.47975
  34   39128.2    255.6   0.068856823   0.57934  -0.63177  -0.37874  -0.19173
  35   39808.2    251.2   0.021680437   0.17930   0.30249  -0.17780  -0.23703
  36   39993.6    250.0   0.064149616   0.52806   0.54454   0.39402   0.27618
  37   40301.7    248.1   0.014430976   0.11788  -0.33457  -0.07539   0.01625

-----------------------------------------------------------------------------
         ABSORPTION SPECTRUM VIA TRANSITION VELOCITY DIPOLE MOMENTS
-----------------------------------------------------------------------------
State   Energy  Wavelength   fosc         P2         PX        PY        PZ  
        (cm-1)    (nm)                  (au**2)     (au)      (au)      (au) 
-----------------------------------------------------------------------------
   0   14128.2    707.8   3.249660694   0.31378   0.18411   0.52298  -0.07986
   1   18347.7    545.0   0.009557403   0.00120   0.02162   0.02138  -0.01654
   2   20323.5    492.0   0.128114496   0.01780   0.03264  -0.11514   0.05893
   3   21872.0    457.2   0.002088698   0.00031  -0.01161   0.01134   0.00699
   4   25086.6    398.6   0.450578518   0.07725   0.19248   0.20017  -0.01173
   5   25281.7    395.5   0.007605562   0.00131  -0.03352  -0.01334   0.00353
   6   26998.2    370.4   0.098512991   0.01818   0.03996  -0.11265   0.06238
   7   28621.8    349.4   0.001457882   0.00029  -0.00550  -0.00894  -0.01323
   8   29234.3    342.1   0.108134344   0.02161   0.11026   0.09023   0.03615
   9   30005.0    333.3   0.002240656   0.00046  -0.00226   0.01849   0.01060
  10   30494.4    327.9   0.166542040   0.03471   0.10667   0.15113   0.02218
  11   31747.5    315.0   0.030851475   0.00669  -0.07481  -0.00413   0.03287
  12   31993.2    312.6   0.131800967   0.02882   0.08728   0.14371   0.02342
  13   32105.4    311.5   0.002936648   0.00064  -0.02287   0.01091  -0.00152
  14   32236.2    310.2   0.023556096   0.00519   0.05894  -0.04126  -0.00375
  15   32554.1    307.2   0.078430153   0.01745  -0.02831  -0.11081  -0.06610
  16   32707.7    305.7   0.019339788   0.00432   0.05407  -0.03446   0.01458
  17   32859.5    304.3   0.014188934   0.00319  -0.05108  -0.02329  -0.00589
  18   33041.7    302.6   0.121387493   0.02741   0.11055   0.08292   0.09119
  19   33316.6    300.2   0.018138761   0.00413  -0.01905   0.05190   0.03277
  20   33952.6    294.5   0.001065401   0.00025   0.01093  -0.01058   0.00398
  21   34443.1    290.3   0.038479423   0.00906  -0.09357  -0.01560   0.00774
  22   34541.3    289.5   0.192102332   0.04535   0.17060   0.12227   0.03601
  23   34973.6    285.9   0.041120377   0.00983   0.08520   0.05055   0.00373
  24   36006.1    277.7   0.014164796   0.00349  -0.00453  -0.05733  -0.01334
  25   36085.9    277.1   0.057186218   0.01410  -0.06274   0.09888  -0.01976
  26   36685.8    272.6   0.004859810   0.00122   0.00517   0.00966  -0.03314
  27   37202.0    268.8   0.021023134   0.00535  -0.06882   0.02464   0.00138
  28   37586.9    266.1   0.088659147   0.02278  -0.09423   0.09142   0.07441
  29   37814.6    264.4   0.175171436   0.04527   0.16472   0.12235   0.05630
  30   38037.7    262.9   0.161034894   0.04186   0.12807   0.12664   0.09708
  31   38375.5    260.6   0.467965293   0.12274   0.28015   0.17699   0.11370
  32   38816.6    257.6   0.024360043   0.00646  -0.04713  -0.06307  -0.01623
  33   38904.4    257.0   0.111150817   0.02955  -0.13615  -0.07236  -0.07604
  34   39128.2    255.6   0.055151883   0.01475  -0.10051  -0.06131  -0.02978
  35   39808.2    251.2   0.017920766   0.00488   0.04938  -0.03172  -0.03783
  36   39993.6    250.0   0.050941249   0.01392   0.08443   0.06886   0.04532
  37   40301.7    248.1   0.010834250   0.00298  -0.05264  -0.01446   0.00201

-------------------------------------------------------------------
                             CD SPECTRUM
-------------------------------------------------------------------
State   Energy Wavelength       R         MX        MY        MZ   
        (cm-1)   (nm)       (1e40*cgs)   (au)      (au)      (au)  
-------------------------------------------------------------------
   0   14128.2    707.8     -0.32114  -0.26766   0.27475   1.19104
   1   18347.7    545.0    100.86064  -0.61820   0.81828   2.50750
   2   20323.5    492.0    -27.11490   0.10449  -0.18092  -0.22540
   3   21872.0    457.2      2.02987   0.00380  -0.03207  -0.06895
   4   25086.6    398.6     13.24000  -0.10236   0.09961   0.58010
   5   25281.7    395.5    -12.78431  -0.17522   0.38097   1.30098
   6   26998.2    370.4    -14.47022   0.12371  -0.17018  -0.26868
   7   28621.8    349.4    -72.00806   0.78069  -0.75290  -2.79229
   8   29234.3    342.1    -19.53513   0.29487  -0.26025   0.00950
   9   30005.0    333.3     62.82225   1.14712  -0.79104  -1.17300
  10   30494.4    327.9    -19.10093  -0.19414   0.10074   0.68367
  11   31747.5    315.0      3.18968  -0.33924   0.04046  -0.77457
  12   31993.2    312.6     26.65525  -0.27747   0.07762  -0.13758
  13   32105.4    311.5     12.51717   0.27794   0.03978   0.86099
  14   32236.2    310.2    -68.32629   0.61175  -0.15329   0.42581
  15   32554.1    307.2    218.71797  -1.92901   1.11249   0.57506
  16   32707.7    305.7    -166.48096   1.34727  -0.85002  -2.42447
  17   32859.5    304.3     61.97221   0.90971  -0.31360  -0.49803
  18   33041.7    302.6    -108.76960  -0.94547   0.41301   1.45733
  19   33316.6    300.2    -60.44474  -0.66472   0.14662   0.37603
  20   33952.6    294.5      0.62723  -0.06635   0.09759   0.54466
  21   34443.1    290.3    -61.67336  -0.21381   0.34341   2.53002
  22   34541.3    289.5    -144.12126   0.43150  -0.14165   1.00683
  23   34973.6    285.9    108.46698  -1.30712   0.64039   0.78294
  24   36006.1    277.7    -52.36687   1.43773  -0.55741  -0.17370
  25   36085.9    277.1     89.14472   0.49331  -0.18838   0.38372
  26   36685.8    272.6     15.46909  -2.17135   0.95405   0.05724
  27   37202.0    268.8     25.28219   0.18703  -0.15046  -0.07135
  28   37586.9    266.1    302.39010   0.44198  -0.53921  -1.34618
  29   37814.6    264.4    -49.59805   0.31455  -0.23929   0.20199
  30   38037.7    262.9    -25.50377   0.16867  -0.27937   0.31207
  31   38375.5    260.6    -203.74200   1.67330  -0.88828  -1.45243
  32   38816.6    257.6    -85.65997   3.39763  -1.67844  -6.23465
  33   38904.4    257.0     -8.38728  -0.97358   0.52071   1.13796
  34   39128.2    255.6     36.41785   1.86931  -0.81069  -3.75232
  35   39808.2    251.2    140.79070  -0.94221   0.55114   0.90399
  36   39993.6    250.0    -65.67057  -0.07643  -0.01914   1.18676
  37   40301.7    248.1    -17.80483  -0.17751   0.05570   1.25231

sTD-DFT done

Total run time:        8.484 sec

           *** ORCA-CIS/TD-DFT FINISHED WITHOUT ERROR ***

-------------------------   --------------------
FINAL SINGLE POINT ENERGY     -5325.708645659984
-------------------------   --------------------


                            ***************************************
                            *     ORCA property calculations      *
                            ***************************************

                                    ---------------------
                                    Active property flags
                                    ---------------------
   (+) Dipole Moment


------------------------------------------------------------------------------
                       ORCA ELECTRIC PROPERTIES CALCULATION
------------------------------------------------------------------------------

Dipole Moment Calculation                       ... on
Quadrupole Moment Calculation                   ... off
Polarizability Calculation                      ... off
GBWName                                         ... BTCIC.gbw
Electron density file                           ... BTCIC.scfp
The origin for moment calculation is the CENTER OF MASS  = (-1.829014, -0.127005  0.006889)

-------------
DIPOLE MOMENT
-------------
                                X             Y             Z
Electronic contribution:      4.63022       9.77916     -34.26721
Nuclear contribution   :     -4.47228      -9.74897      33.94139
                        -----------------------------------------
Total Dipole Moment    :      0.15794       0.03019      -0.32582
                        -----------------------------------------
Magnitude (a.u.)       :      0.36334
Magnitude (Debye)      :      0.92355



--------------------
Rotational spectrum 
--------------------
 
Rotational constants in cm-1:     0.001860     0.000170     0.000166 
Rotational constants in MHz :    55.753794     5.100701     4.972653 

 Dipole components along the rotational axes: 
x,y,z [a.u.] :    -0.102761     0.193495     0.289859 
x,y,z [Debye]:    -0.261197     0.491826     0.736763 

 

Timings for individual modules:

Sum of individual times         ...     7262.572 sec (= 121.043 min)
GTO integral calculation        ...        6.241 sec (=   0.104 min)   0.1 %
SCF iterations                  ...     7247.769 sec (= 120.796 min)  99.8 %
CIS module                      ...        8.562 sec (=   0.143 min)   0.1 %
                             ****ORCA TERMINATED NORMALLY****
TOTAL RUN TIME: 0 days 2 hours 1 minutes 3 seconds 385 msec
