
                                 *****************
                                 * O   R   C   A *
                                 *****************

           --- An Ab Initio, DFT and Semiempirical electronic structure package ---

                  #######################################################
                  #                        -***-                        #
                  #          Department of theory and spectroscopy      #
                  #               Directorship: Frank Neese             #
                  #        Max Planck Institute fuer Kohlenforschung    #
                  #                Kaiser Wilhelm Platz 1               #
                  #                 D-45470 Muelheim/Ruhr               #
                  #                      Germany                        #
                  #                                                     #
                  #                  All rights reserved                #
                  #                        -***-                        #
                  #######################################################


                         Program Version 4.2.0 -  RELEASE  -


 With contributions from (in alphabetic order):
   Daniel Aravena         : Magnetic Suceptibility
   Michael Atanasov       : Ab Initio Ligand Field Theory (pilot matlab implementation)
   Alexander A. Auer      : GIAO ZORA, VPT2
   Ute Becker             : Parallelization
   Giovanni Bistoni       : ED, misc. LED, open-shell LED, HFLED
   Martin Brehm           : Molecular dynamics
   Dmytro Bykov           : SCF Hessian
   Vijay G. Chilkuri      : MRCI spin determinant printing, contributions to CSF-ICE
   Dipayan Datta          : RHF DLPNO-CCSD density
   Achintya Kumar Dutta   : EOM-CC, STEOM-CC
   Dmitry Ganyushin       : Spin-Orbit,Spin-Spin,Magnetic field MRCI
   Miquel Garcia          : C-PCM Hessian, Gaussian charge scheme
   Yang Guo               : DLPNO-NEVPT2, CIM, IAO-localization
   Andreas Hansen         : Spin unrestricted coupled pair/coupled cluster methods
   Benjamin Helmich-Paris : CASSCF linear response (MC-RPA)
   Lee Huntington         : MR-EOM, pCC
   Robert Izsak           : Overlap fitted RIJCOSX, COSX-SCS-MP3, EOM
   Christian Kollmar      : KDIIS, OOCD, Brueckner-CCSD(T), CCSD density
   Simone Kossmann        : Meta GGA functionals, TD-DFT gradient, OOMP2, MP2 Hessian
   Martin Krupicka        : AUTO-CI
   Lucas Lang             : DCDCAS
   Dagmar Lenk            : GEPOL surface, SMD
   Dimitrios Liakos       : Extrapolation schemes; Compound Job, initial MDCI parallelization
   Dimitrios Manganas     : Further ROCIS development; embedding schemes
   Dimitrios Pantazis     : SARC Basis sets
   Taras Petrenko         : DFT Hessian,TD-DFT gradient, ASA, ECA, R-Raman, ABS, FL, XAS/XES, NRVS
   Peter Pinski           : DLPNO-MP2, DLPNO-MP2 Gradient
   Christoph Reimann      : Effective Core Potentials
   Marius Retegan         : Local ZFS, SOC
   Christoph Riplinger    : Optimizer, TS searches, QM/MM, DLPNO-CCSD(T), (RO)-DLPNO pert. Triples
   Tobias Risthaus        : Range-separated hybrids, TD-DFT gradient, RPA, STAB
   Michael Roemelt        : Original ROCIS implementation
   Masaaki Saitow         : Open-shell DLPNO-CCSD energy and density
   Barbara Sandhoefer     : DKH picture change effects
   Avijit Sen             : IP-ROCIS
   Kantharuban Sivalingam : CASSCF convergence, NEVPT2, FIC-MRCI
   Bernardo de Souza      : ESD, SOC TD-DFT
   Georgi Stoychev        : AutoAux, RI-MP2 NMR
   Willem Van den Heuvel  : Paramagnetic NMR
   Boris Wezisla          : Elementary symmetry handling
   Frank Wennmohs         : Technical directorship


 We gratefully acknowledge several colleagues who have allowed us to
 interface, adapt or use parts of their codes:
   Stefan Grimme, W. Hujo, H. Kruse,             : VdW corrections, initial TS optimization,
                  C. Bannwarth                     DFT functionals, gCP, sTDA/sTD-DF
   Ed Valeev, F. Pavosevic, A. Kumar             : LibInt (2-el integral package), F12 methods
   Garnet Chan, S. Sharma, J. Yang, R. Olivares  : DMRG
   Ulf Ekstrom                                   : XCFun DFT Library
   Mihaly Kallay                                 : mrcc  (arbitrary order and MRCC methods)
   Andreas Klamt, Michael Diedenhofen            : otool_cosmo (COSMO solvation model)
   Jiri Pittner, Ondrej Demel                    : Mk-CCSD
   Frank Weinhold                                : gennbo (NPA and NBO analysis)
   Christopher J. Cramer and Donald G. Truhlar   : smd solvation model
   Lars Goerigk                                  : TD-DFT with DH, B97 family of functionals
   V. Asgeirsson, H. Jonsson                     : NEB implementation
   FAccTs GmbH                                   : IRC, NEB, NEB-TS, Multilevel, MM, QM/MM, CI optimization
   S Lehtola, MJT Oliveira, MAL Marques          : LibXC Library


 Your calculation uses the libint2 library for the computation of 2-el integrals
 For citations please refer to: http://libint.valeyev.net

 Your ORCA version has been built with support for libXC version: 4.2.3
 For citations please refer to: https://tddft.org/programs/libxc/

 This ORCA versions uses:
   CBLAS   interface :  Fast vector & matrix operations
   LAPACKE interface :  Fast linear algebra routines
   SCALAPACK package :  Parallel linear algebra routines


XCFun DFT library Copyright 2009-2010 Ulf Ekstrom and contributors.
See http://admol.org/xcfun for more information. This is free soft-
ware; see the source code for copying conditions. There is ABSOLUTELY
NO WARRANTY; not even for MERCHANTABILITY or FITNESS FOR A PARTICULAR
PURPOSE. For details see the documentation. Scientific users of this 
library should cite U. Ekstrom, L. Visscher, R. Bast, A. J. Thorvald-
sen and K. Ruud; J.Chem.Theor.Comp. 2010, DOI: 10.1021/ct100117s
XCFun Version 0.99 
----- Orbital basis set information -----
Your calculation utilizes the basis: def2-SVP
   F. Weigend and R. Ahlrichs, Phys. Chem. Chem. Phys. 7, 3297 (2005).

----- AuxJ basis set information -----
Your calculation utilizes the auxiliary basis: def2/J
   F. Weigend, Phys. Chem. Chem. Phys. 8, 1057 (2006).

================================================================================
                                        WARNINGS
                       Please study these warnings very carefully!
================================================================================

INFO   : Checking CIS options ...

WARNING: CIS/ROCIS methods need fully converged wavefunctions
  ===> : Setting SCFConvForced true
         You can overwrite this default with %scf ConvForced false 


INFO   : the flag for use of LIBINT has been found!

================================================================================
                                       INPUT FILE
================================================================================
NAME = BTCIC.inp
|  1> # ORCA input file
|  2> # BTCIC.out: Geometry 95
|  3> ! CAM-B3LYP def2-SVP def2/J RIJCOSX Grid4 TightSCF
|  4> %maxcore 5000
|  5> %tddft
|  6>     Mode sTDDFT
|  7>     Ethresh 5.0
|  8>     maxcore 5000
|  9> end
| 10> * xyz 0 1
| 11>    S        2.55450        -1.09224        -0.60312
| 12>    N        1.25207        -1.92702        -0.05566
| 13>    C        0.35207        -1.03804         0.36677
| 14>    C        0.80390         0.33870         0.21006
| 15>    N        2.02195         0.43368        -0.32311
| 16>    C       -0.96073        -1.32323         0.89025
| 17>    C       -1.69265        -0.21310         1.30498
| 18>    C       -1.25016         1.11859         1.15865
| 19>    C       -0.02493         1.45101         0.59054
| 20>    C        0.35937         2.82554         0.34426
| 21>    C       -1.52244        -2.65762         0.87624
| 22>    C       -0.88724        -3.89057         0.71822
| 23>    C       -1.80022        -4.95876         0.64497
| 24>    C       -3.12887        -4.53838         0.72517
| 25>    S       -3.28190        -2.83703         0.92841
| 26>    C       -1.70342        -6.47825         0.50587
| 27>    C       -3.19710        -6.82116         0.36442
| 28>    C       -3.98397        -5.65993         0.53011
| 29>    C       -3.97986        -7.93581         0.06546
| 30>    C       -5.35731        -7.64994        -0.00531
| 31>    S       -5.66108        -5.93727         0.34073
| 32>    C       -0.15867         3.96752         0.95874
| 33>    C        0.29102         5.15796         0.36162
| 34>    C        1.17745         4.91263        -0.69315
| 35>    S        1.47855         3.23754        -0.95485
| 36>    C        0.18699         6.65422         0.65486
| 37>    C        1.06928         7.20576        -0.46547
| 38>    C        1.64735         6.15930        -1.20551
| 39>    C        1.33951         8.46045        -1.01172
| 40>    C        2.15040         8.39459        -2.15940
| 41>    S        2.58655         6.71244        -2.52660
| 42>    C       -6.44545        -8.42308        -0.46776
| 43>    C       -6.54039        -9.73561        -0.88583
| 44>    C       -5.69357       -10.90533        -0.77453
| 45>    C       -6.06597       -11.82922        -1.87738
| 46>    C       -7.24315       -11.34694        -2.48969
| 47>    C       -7.63354       -10.05478        -1.86152
| 48>    C       -5.48726       -13.01658        -2.33767
| 49>    C       -6.10360       -13.68888        -3.40192
| 50>    C       -7.27901       -13.20625        -3.99295
| 51>    C       -7.86417       -12.02079        -3.53325
| 52>    C       -4.84117       -11.21611         0.27599
| 53>    O       -8.59731        -9.36662        -2.12882
| 54>    C       -4.00683       -12.37529         0.28439
| 55>    C       -4.82659       -10.45586         1.48210
| 56>    N       -3.29657       -13.29620         0.29400
| 57>    N       -4.82770        -9.85925         2.47971
| 58>    C       -1.05337        -7.04858         1.80277
| 59>    C       -0.87126        -6.82268        -0.77753
| 60>    C       -1.62042        -6.60715         3.16360
| 61>    C       -0.15457        -8.18630        -0.95362
| 62>    C       -2.94242        -7.31869         3.52557
| 63>    C       -3.98479        -6.41169         4.17461
| 64>    C       -0.52348        -6.83210         4.22523
| 65>    C       -0.90005        -6.50523         5.66917
| 66>    C        1.14549        -8.37355        -0.13933
| 67>    C        2.10111        -7.18209        -0.11809
| 68>    C       -1.09299        -9.39827        -0.81346
| 69>    C       -0.45361       -10.76566        -1.06110
| 70>    C        0.77404         6.91294         2.07590
| 71>    C        2.23564         6.45700         2.28466
| 72>    C        3.25785         7.56485         1.91858
| 73>    C        4.48429         7.07325         1.14747
| 74>    C        2.43299         5.92151         3.71549
| 75>    C        3.81480         5.33147         3.99951
| 76>    C       -1.23055         7.28239         0.52483
| 77>    C       -2.41135         6.56076         1.21154
| 78>    C       -3.40985         7.63274         1.69846
| 79>    C       -3.03851         5.52072         0.25409
| 80>    C       -3.74686         4.33456         0.91430
| 81>    C        2.65592         9.39256        -3.02387
| 82>    C        2.33876        10.71898        -3.22622
| 83>    C        1.25382        11.60226        -2.83321
| 84>    C        1.70924        12.99752        -3.08319
| 85>    C        2.90822        12.95508        -3.82571
| 86>    C        3.34405        11.54433        -3.97729
| 87>    C        1.14373        14.23882        -2.77025
| 88>    C        1.78288        15.39879        -3.22724
| 89>    C        2.95311        15.33921        -3.99670
| 90>    C        3.53031        14.10191        -4.30214
| 91>    O        4.33441        11.13901        -4.55143
| 92>    C       -0.05189        11.25497        -2.51271
| 93>    C       -1.03828        12.21644        -2.12823
| 94>    C       -0.56606         9.93412        -2.66750
| 95>    N       -1.02239         8.87359        -2.80578
| 96>    N       -1.85112        12.97613        -1.79077
| 97>    C       -4.69095         7.14964         2.37781
| 98>    H       -2.68504        -0.36938         1.73286
| 99>    H       -1.93330         1.91528         1.45331
|100>    H        0.19510        -3.96820         0.63083
|101>    H       -3.58864        -8.92273        -0.15167
|102>    H       -0.84160         3.91323         1.80470
|103>    H        0.98327         9.40355        -0.60098
|104>    H       -7.36342        -7.86106        -0.68625
|105>    H       -4.57658       -13.41901        -1.89913
|106>    H       -5.65170       -14.60844        -3.77982
|107>    H       -7.73818       -13.76054        -4.81447
|108>    H       -8.77761       -11.61661        -3.97317
|109>    H        0.00433        -6.75235         1.76104
|110>    H       -1.07094        -8.14701         1.75726
|111>    H       -0.10504        -6.04085        -0.88384
|112>    H       -1.54511        -6.67744        -1.63743
|113>    H       -1.81633        -5.52159         3.11631
|114>    H        0.17198        -8.16512        -2.01135
|115>    H       -2.72864        -8.17823         4.18368
|116>    H       -3.39608        -7.76556         2.63407
|117>    H       -4.31121        -5.62662         3.47214
|118>    H       -4.87606        -6.98645         4.46975
|119>    H       -3.59486        -5.90464         5.07114
|120>    H        0.36276        -6.23727         3.94169
|121>    H       -0.20303        -7.88924         4.17142
|122>    H       -1.19497        -5.44869         5.78379
|123>    H       -0.04875        -6.69041         6.34360
|124>    H       -1.73627        -7.12476         6.02681
|125>    H        1.68148        -9.22762        -0.58158
|126>    H        0.91230        -8.67791         0.89313
|127>    H        2.34113        -6.83437        -1.13677
|128>    H        3.04862        -7.45922         0.37009
|129>    H        1.69251        -6.32174         0.43477
|130>    H       -1.93642        -9.25961        -1.50953
|131>    H       -1.52814        -9.40288         0.19911
|132>    H        0.03842       -10.81353        -2.04735
|133>    H       -1.21054       -11.56364        -1.01429
|134>    H        0.30495       -11.00422        -0.30103
|135>    H        0.11589         6.38724         2.78642
|136>    H        0.67543         7.98684         2.30769
|137>    H        2.41368         5.60330         1.60888
|138>    H        3.57997         8.08065         2.84174
|139>    H        2.76105         8.33754         1.31278
|140>    H        5.04676         6.31112         1.70576
|141>    H        5.17570         7.90243         0.92849
|142>    H        4.18826         6.62377         0.18604
|143>    H        1.67218         5.14327         3.89942
|144>    H        2.21515         6.73219         4.43560
|145>    H        4.06738         4.55078         3.26326
|146>    H        3.85155         4.86993         4.99904
|147>    H        4.60678         6.09447         3.95964
|148>    H       -1.46852         7.41250        -0.54305
|149>    H       -1.13955         8.30190         0.93487
|150>    H       -2.03497         6.02827         2.10515
|151>    H       -3.67815         8.26444         0.83205
|152>    H       -2.86844         8.29787         2.39341
|153>    H       -2.24865         5.12071        -0.40009
|154>    H       -3.73582         6.04881        -0.42179
|155>    H       -3.07410         3.81143         1.61335
|156>    H       -4.06830         3.60132         0.15787
|157>    H       -4.63431         4.62946         1.48900
|158>    H        3.51089         9.08778        -3.64396
|159>    H        0.22801        14.32222        -2.18972
|160>    H        1.34896        16.36975        -2.97731
|161>    H        3.41645        16.26064        -4.35629
|162>    H        4.44516        14.01582        -4.89171
|163>    H       -5.35731         6.62274         1.67855
|164>    H       -5.25668         8.00380         2.78261
|165>    H       -4.47691         6.46808         3.21746
|166> *
|167> 
|168>                          ****END OF INPUT****
================================================================================

                       ****************************
                       * Single Point Calculation *
                       ****************************

---------------------------------
CARTESIAN COORDINATES (ANGSTROEM)
---------------------------------
  S      2.554500   -1.092240   -0.603120
  N      1.252070   -1.927020   -0.055660
  C      0.352070   -1.038040    0.366770
  C      0.803900    0.338700    0.210060
  N      2.021950    0.433680   -0.323110
  C     -0.960730   -1.323230    0.890250
  C     -1.692650   -0.213100    1.304980
  C     -1.250160    1.118590    1.158650
  C     -0.024930    1.451010    0.590540
  C      0.359370    2.825540    0.344260
  C     -1.522440   -2.657620    0.876240
  C     -0.887240   -3.890570    0.718220
  C     -1.800220   -4.958760    0.644970
  C     -3.128870   -4.538380    0.725170
  S     -3.281900   -2.837030    0.928410
  C     -1.703420   -6.478250    0.505870
  C     -3.197100   -6.821160    0.364420
  C     -3.983970   -5.659930    0.530110
  C     -3.979860   -7.935810    0.065460
  C     -5.357310   -7.649940   -0.005310
  S     -5.661080   -5.937270    0.340730
  C     -0.158670    3.967520    0.958740
  C      0.291020    5.157960    0.361620
  C      1.177450    4.912630   -0.693150
  S      1.478550    3.237540   -0.954850
  C      0.186990    6.654220    0.654860
  C      1.069280    7.205760   -0.465470
  C      1.647350    6.159300   -1.205510
  C      1.339510    8.460450   -1.011720
  C      2.150400    8.394590   -2.159400
  S      2.586550    6.712440   -2.526600
  C     -6.445450   -8.423080   -0.467760
  C     -6.540390   -9.735610   -0.885830
  C     -5.693570  -10.905330   -0.774530
  C     -6.065970  -11.829220   -1.877380
  C     -7.243150  -11.346940   -2.489690
  C     -7.633540  -10.054780   -1.861520
  C     -5.487260  -13.016580   -2.337670
  C     -6.103600  -13.688880   -3.401920
  C     -7.279010  -13.206250   -3.992950
  C     -7.864170  -12.020790   -3.533250
  C     -4.841170  -11.216110    0.275990
  O     -8.597310   -9.366620   -2.128820
  C     -4.006830  -12.375290    0.284390
  C     -4.826590  -10.455860    1.482100
  N     -3.296570  -13.296200    0.294000
  N     -4.827700   -9.859250    2.479710
  C     -1.053370   -7.048580    1.802770
  C     -0.871260   -6.822680   -0.777530
  C     -1.620420   -6.607150    3.163600
  C     -0.154570   -8.186300   -0.953620
  C     -2.942420   -7.318690    3.525570
  C     -3.984790   -6.411690    4.174610
  C     -0.523480   -6.832100    4.225230
  C     -0.900050   -6.505230    5.669170
  C      1.145490   -8.373550   -0.139330
  C      2.101110   -7.182090   -0.118090
  C     -1.092990   -9.398270   -0.813460
  C     -0.453610  -10.765660   -1.061100
  C      0.774040    6.912940    2.075900
  C      2.235640    6.457000    2.284660
  C      3.257850    7.564850    1.918580
  C      4.484290    7.073250    1.147470
  C      2.432990    5.921510    3.715490
  C      3.814800    5.331470    3.999510
  C     -1.230550    7.282390    0.524830
  C     -2.411350    6.560760    1.211540
  C     -3.409850    7.632740    1.698460
  C     -3.038510    5.520720    0.254090
  C     -3.746860    4.334560    0.914300
  C      2.655920    9.392560   -3.023870
  C      2.338760   10.718980   -3.226220
  C      1.253820   11.602260   -2.833210
  C      1.709240   12.997520   -3.083190
  C      2.908220   12.955080   -3.825710
  C      3.344050   11.544330   -3.977290
  C      1.143730   14.238820   -2.770250
  C      1.782880   15.398790   -3.227240
  C      2.953110   15.339210   -3.996700
  C      3.530310   14.101910   -4.302140
  O      4.334410   11.139010   -4.551430
  C     -0.051890   11.254970   -2.512710
  C     -1.038280   12.216440   -2.128230
  C     -0.566060    9.934120   -2.667500
  N     -1.022390    8.873590   -2.805780
  N     -1.851120   12.976130   -1.790770
  C     -4.690950    7.149640    2.377810
  H     -2.685040   -0.369380    1.732860
  H     -1.933300    1.915280    1.453310
  H      0.195100   -3.968200    0.630830
  H     -3.588640   -8.922730   -0.151670
  H     -0.841600    3.913230    1.804700
  H      0.983270    9.403550   -0.600980
  H     -7.363420   -7.861060   -0.686250
  H     -4.576580  -13.419010   -1.899130
  H     -5.651700  -14.608440   -3.779820
  H     -7.738180  -13.760540   -4.814470
  H     -8.777610  -11.616610   -3.973170
  H      0.004330   -6.752350    1.761040
  H     -1.070940   -8.147010    1.757260
  H     -0.105040   -6.040850   -0.883840
  H     -1.545110   -6.677440   -1.637430
  H     -1.816330   -5.521590    3.116310
  H      0.171980   -8.165120   -2.011350
  H     -2.728640   -8.178230    4.183680
  H     -3.396080   -7.765560    2.634070
  H     -4.311210   -5.626620    3.472140
  H     -4.876060   -6.986450    4.469750
  H     -3.594860   -5.904640    5.071140
  H      0.362760   -6.237270    3.941690
  H     -0.203030   -7.889240    4.171420
  H     -1.194970   -5.448690    5.783790
  H     -0.048750   -6.690410    6.343600
  H     -1.736270   -7.124760    6.026810
  H      1.681480   -9.227620   -0.581580
  H      0.912300   -8.677910    0.893130
  H      2.341130   -6.834370   -1.136770
  H      3.048620   -7.459220    0.370090
  H      1.692510   -6.321740    0.434770
  H     -1.936420   -9.259610   -1.509530
  H     -1.528140   -9.402880    0.199110
  H      0.038420  -10.813530   -2.047350
  H     -1.210540  -11.563640   -1.014290
  H      0.304950  -11.004220   -0.301030
  H      0.115890    6.387240    2.786420
  H      0.675430    7.986840    2.307690
  H      2.413680    5.603300    1.608880
  H      3.579970    8.080650    2.841740
  H      2.761050    8.337540    1.312780
  H      5.046760    6.311120    1.705760
  H      5.175700    7.902430    0.928490
  H      4.188260    6.623770    0.186040
  H      1.672180    5.143270    3.899420
  H      2.215150    6.732190    4.435600
  H      4.067380    4.550780    3.263260
  H      3.851550    4.869930    4.999040
  H      4.606780    6.094470    3.959640
  H     -1.468520    7.412500   -0.543050
  H     -1.139550    8.301900    0.934870
  H     -2.034970    6.028270    2.105150
  H     -3.678150    8.264440    0.832050
  H     -2.868440    8.297870    2.393410
  H     -2.248650    5.120710   -0.400090
  H     -3.735820    6.048810   -0.421790
  H     -3.074100    3.811430    1.613350
  H     -4.068300    3.601320    0.157870
  H     -4.634310    4.629460    1.489000
  H      3.510890    9.087780   -3.643960
  H      0.228010   14.322220   -2.189720
  H      1.348960   16.369750   -2.977310
  H      3.416450   16.260640   -4.356290
  H      4.445160   14.015820   -4.891710
  H     -5.357310    6.622740    1.678550
  H     -5.256680    8.003800    2.782610
  H     -4.476910    6.468080    3.217460

----------------------------
CARTESIAN COORDINATES (A.U.)
----------------------------
  NO LB      ZA    FRAG     MASS         X           Y           Z
   0 S    16.0000    0    32.060    4.827305   -2.064034   -1.139732
   1 N     7.0000    0    14.007    2.366069   -3.641540   -0.105182
   2 C     6.0000    0    12.011    0.665316   -1.961611    0.693095
   3 C     6.0000    0    12.011    1.519151    0.640050    0.396956
   4 N     7.0000    0    14.007    3.820932    0.819536   -0.610589
   5 C     6.0000    0    12.011   -1.815517   -2.500542    1.682329
   6 C     6.0000    0    12.011   -3.198645   -0.402701    2.466055
   7 C     6.0000    0    12.011   -2.362460    2.113829    2.189531
   8 C     6.0000    0    12.011   -0.047111    2.742012    1.115959
   9 C     6.0000    0    12.011    0.679111    5.339497    0.650557
  10 C     6.0000    0    12.011   -2.876995   -5.022174    1.655854
  11 C     6.0000    0    12.011   -1.676641   -7.352112    1.357239
  12 C     6.0000    0    12.011   -3.401923   -9.370698    1.218817
  13 C     6.0000    0    12.011   -5.912707   -8.576295    1.370373
  14 S    16.0000    0    32.060   -6.201892   -5.361210    1.754441
  15 C     6.0000    0    12.011   -3.218997  -12.242118    0.955956
  16 C     6.0000    0    12.011   -6.041643  -12.890124    0.688654
  17 C     6.0000    0    12.011   -7.528612  -10.695718    1.001763
  18 C     6.0000    0    12.011   -7.520845  -14.996508    0.123701
  19 C     6.0000    0    12.011  -10.123849  -14.456292   -0.010034
  20 S    16.0000    0    32.060  -10.697891  -11.219814    0.643886
  21 C     6.0000    0    12.011   -0.299843    7.497526    1.811756
  22 C     6.0000    0    12.011    0.549948    9.747132    0.683363
  23 C     6.0000    0    12.011    2.225058    9.283525   -1.309864
  24 S    16.0000    0    32.060    2.794055    6.118064   -1.804405
  25 C     6.0000    0    12.011    0.353360   12.574653    1.237506
  26 C     6.0000    0    12.011    2.020646   13.616913   -0.879611
  27 C     6.0000    0    12.011    3.113040   11.639390   -2.278084
  28 C     6.0000    0    12.011    2.531307   15.987933   -1.911874
  29 C     6.0000    0    12.011    4.063667   15.863476   -4.080675
  30 S    16.0000    0    32.060    4.887871   12.684673   -4.774582
  31 C     6.0000    0    12.011  -12.180135  -15.917314   -0.883938
  32 C     6.0000    0    12.011  -12.359546  -18.397637   -1.673976
  33 C     6.0000    0    12.011  -10.759288  -20.608087   -1.463650
  34 C     6.0000    0    12.011  -11.463022  -22.353986   -3.547734
  35 C     6.0000    0    12.011  -13.687570  -21.442609   -4.704832
  36 C     6.0000    0    12.011  -14.425300  -19.000781   -3.517763
  37 C     6.0000    0    12.011  -10.369419  -24.597771   -4.417556
  38 C     6.0000    0    12.011  -11.534132  -25.868234   -6.428697
  39 C     6.0000    0    12.011  -13.755335  -24.956196   -7.545582
  40 C     6.0000    0    12.011  -14.861128  -22.716001   -6.676875
  41 C     6.0000    0    12.011   -9.148485  -21.195376    0.521546
  42 O     8.0000    0    15.999  -16.246561  -17.700347   -4.022887
  43 C     6.0000    0    12.011   -7.571811  -23.385909    0.537419
  44 C     6.0000    0    12.011   -9.120933  -19.758712    2.800763
  45 N     7.0000    0    14.007   -6.229614  -25.126177    0.555579
  46 N     7.0000    0    14.007   -9.123031  -18.631282    4.685973
  47 C     6.0000    0    12.011   -1.990581  -13.319886    3.406742
  48 C     6.0000    0    12.011   -1.646443  -12.892997   -1.469319
  49 C     6.0000    0    12.011   -3.062150  -12.485704    5.978338
  50 C     6.0000    0    12.011   -0.292095  -15.469865   -1.802081
  51 C     6.0000    0    12.011   -5.560368  -13.830320    6.662362
  52 C     6.0000    0    12.011   -7.530162  -12.116338    7.888870
  53 C     6.0000    0    12.011   -0.989234  -12.910798    7.984528
  54 C     6.0000    0    12.011   -1.700848  -12.293103   10.713179
  55 C     6.0000    0    12.011    2.164662  -15.823716   -0.263296
  56 C     6.0000    0    12.011    3.970522  -13.572183   -0.223158
  57 C     6.0000    0    12.011   -2.065452  -17.760156   -1.537217
  58 C     6.0000    0    12.011   -0.857199  -20.344149   -2.005188
  59 C     6.0000    0    12.011    1.462724   13.063563    3.922882
  60 C     6.0000    0    12.011    4.224747   12.201962    4.317382
  61 C     6.0000    0    12.011    6.156444   14.295495    3.625591
  62 C     6.0000    0    12.011    8.474080   13.366505    2.168404
  63 C     6.0000    0    12.011    4.597685   11.190032    7.021259
  64 C     6.0000    0    12.011    7.208927   10.075018    7.557979
  65 C     6.0000    0    12.011   -2.325402   13.761723    0.991785
  66 C     6.0000    0    12.011   -4.556791   12.398040    2.289479
  67 C     6.0000    0    12.011   -6.443683   14.423788    3.209624
  68 C     6.0000    0    12.011   -5.741952   10.432649    0.480161
  69 C     6.0000    0    12.011   -7.080539    8.191131    1.727777
  70 C     6.0000    0    12.011    5.018961   17.749366   -5.714286
  71 C     6.0000    0    12.011    4.419616   20.255937   -6.096672
  72 C     6.0000    0    12.011    2.369376   21.925094   -5.353991
  73 C     6.0000    0    12.011    3.229995   24.561753   -5.826385
  74 C     6.0000    0    12.011    5.495739   24.481553   -7.229544
  75 C     6.0000    0    12.011    6.319339   21.815622   -7.515989
  76 C     6.0000    0    12.011    2.161336   26.907470   -5.235014
  77 C     6.0000    0    12.011    3.369155   29.099496   -6.098600
  78 C     6.0000    0    12.011    5.580569   28.986906   -7.552668
  79 C     6.0000    0    12.011    6.671319   26.648748   -8.129866
  80 O     8.0000    0    15.999    8.190848   21.049678   -8.600956
  81 C     6.0000    0    12.011   -0.098058   21.268811   -4.748334
  82 C     6.0000    0    12.011   -1.962065   23.085726   -4.021772
  83 C     6.0000    0    12.011   -1.069698   18.772766   -5.040844
  84 N     7.0000    0    14.007   -1.932037   16.768655   -5.302156
  85 N     7.0000    0    14.007   -3.498110   24.521332   -3.384065
  86 C     6.0000    0    12.011   -8.864611   13.510862    4.493410
  87 H     1.0000    0     1.008   -5.073990   -0.698027    3.274631
  88 H     1.0000    0     1.008   -3.653408    3.619355    2.746358
  89 H     1.0000    0     1.008    0.368686   -7.498811    1.192096
  90 H     1.0000    0     1.008   -6.781547  -16.861516   -0.286615
  91 H     1.0000    0     1.008   -1.590394    7.394933    3.410389
  92 H     1.0000    0     1.008    1.858111   17.770134   -1.135688
  93 H     1.0000    0     1.008  -13.914847  -14.855251   -1.296825
  94 H     1.0000    0     1.008   -8.648483  -25.358254   -3.588836
  95 H     1.0000    0     1.008  -10.680165  -27.605951   -7.142825
  96 H     1.0000    0     1.008  -14.623041  -26.003652   -9.098030
  97 H     1.0000    0     1.008  -16.587279  -21.952212   -7.508203
  98 H     1.0000    0     1.008    0.008183  -12.760092    3.327883
  99 H     1.0000    0     1.008   -2.023783  -15.395618    3.320740
 100 H     1.0000    0     1.008   -0.198497  -11.415552   -1.670216
 101 H     1.0000    0     1.008   -2.919835  -12.618533   -3.094294
 102 H     1.0000    0     1.008   -3.432366  -10.434293    5.888972
 103 H     1.0000    0     1.008    0.324995  -15.429841   -3.800901
 104 H     1.0000    0     1.008   -5.156382  -15.454615    7.906009
 105 H     1.0000    0     1.008   -6.417661  -14.674782    4.977671
 106 H     1.0000    0     1.008   -8.147006  -10.632771    6.561394
 107 H     1.0000    0     1.008   -9.214418  -13.202477    8.446603
 108 H     1.0000    0     1.008   -6.793301  -11.158153    9.583066
 109 H     1.0000    0     1.008    0.685517  -11.786732    7.448715
 110 H     1.0000    0     1.008   -0.383671  -14.908503    7.882841
 111 H     1.0000    0     1.008   -2.258166  -10.296532   10.929779
 112 H     1.0000    0     1.008   -0.092124  -12.643043   11.987667
 113 H     1.0000    0     1.008   -3.281075  -13.463845   11.389020
 114 H     1.0000    0     1.008    3.177537  -17.437675   -1.099027
 115 H     1.0000    0     1.008    1.723997  -16.398873    1.687771
 116 H     1.0000    0     1.008    4.424095  -12.915088   -2.148184
 117 H     1.0000    0     1.008    5.761057  -14.095883    0.699369
 118 H     1.0000    0     1.008    3.198380  -11.946357    0.821596
 119 H     1.0000    0     1.008   -3.659303  -17.498127   -2.852598
 120 H     1.0000    0     1.008   -2.887766  -17.768868    0.376263
 121 H     1.0000    0     1.008    0.072603  -20.434610   -3.868931
 122 H     1.0000    0     1.008   -2.287589  -21.852113   -1.916730
 123 H     1.0000    0     1.008    0.576272  -20.794962   -0.568864
 124 H     1.0000    0     1.008    0.219000   12.070134    5.265571
 125 H     1.0000    0     1.008    1.276378   15.092940    4.360902
 126 H     1.0000    0     1.008    4.561194   10.588702    3.040343
 127 H     1.0000    0     1.008    6.765163   15.270215    5.370110
 128 H     1.0000    0     1.008    5.217628   15.755667    2.480795
 129 H     1.0000    0     1.008    9.536994   11.926288    3.223419
 130 H     1.0000    0     1.008    9.780656   14.933428    1.754592
 131 H     1.0000    0     1.008    7.914664   12.517111    0.351565
 132 H     1.0000    0     1.008    3.159962    9.719372    7.368836
 133 H     1.0000    0     1.008    4.186027   12.721995    8.382069
 134 H     1.0000    0     1.008    7.686234    8.599728    6.166668
 135 H     1.0000    0     1.008    7.278375    9.202834    9.446817
 136 H     1.0000    0     1.008    8.705553   11.516879    7.482635
 137 H     1.0000    0     1.008   -2.775101   14.007595   -1.026216
 138 H     1.0000    0     1.008   -2.153437   15.688317    1.766648
 139 H     1.0000    0     1.008   -3.845536   11.391779    3.978157
 140 H     1.0000    0     1.008   -6.950696   15.617528    1.572347
 141 H     1.0000    0     1.008   -5.420566   15.680702    4.522889
 142 H     1.0000    0     1.008   -4.249333    9.676740   -0.756061
 143 H     1.0000    0     1.008   -7.059677   11.430594   -0.797068
 144 H     1.0000    0     1.008   -5.809207    7.202559    3.048790
 145 H     1.0000    0     1.008   -7.687973    6.805509    0.298331
 146 H     1.0000    0     1.008   -8.757577    8.748412    2.813802
 147 H     1.0000    0     1.008    6.634621   17.173415   -6.886086
 148 H     1.0000    0     1.008    0.430876   27.065073   -4.137971
 149 H     1.0000    0     1.008    2.549165   30.934344   -5.626301
 150 H     1.0000    0     1.008    6.456155   30.728156   -8.232195
 151 H     1.0000    0     1.008    8.400135   26.486061   -9.243992
 152 H     1.0000    0     1.008  -10.123849   12.515165    3.172000
 153 H     1.0000    0     1.008   -9.933686   15.124990    5.258371
 154 H     1.0000    0     1.008   -8.460134   12.222900    6.080118

--------------------------------
INTERNAL COORDINATES (ANGSTROEM)
--------------------------------
 S      0   0   0     0.000000000000     0.00000000     0.00000000
 N      1   0   0     1.641003962488     0.00000000     0.00000000
 C      2   1   0     1.333691323095   107.58855448     0.00000000
 C      3   2   1     1.457436585447   112.72989494     0.00000000
 N      4   3   2     1.333018098827   113.17822242     0.03767581
 C      3   2   1     1.441807368028   126.69764136   177.95485615
 C      6   3   2     1.392873460225   115.39868116   177.96012269
 C      7   6   3     1.410889125729   123.81992049     4.02174237
 C      8   7   6     1.390841680926   122.97236242   359.47314316
 C      9   8   7     1.448334577817   122.00737040   174.53207438
 C      6   3   2     1.447864315570   122.14268246   352.77609479
 C     11   6   3     1.395928029269   129.68633170    17.78424898
 C     12  11   6     1.407099114846   112.40545931   185.25285995
 C     13  12  11     1.395873277522   112.70442970     0.97493595
 S     14  13  12     1.720266404078   112.91148762   358.64489482
 C     13  12  11     1.528911020988   135.89963478   181.38057168
 C     16  13  12     1.539050133361    99.69180782   185.57271227
 C     17  16  13     1.412470419478   110.28615328   355.22180259
 C     17  16  13     1.394465819481   137.95226929   171.75395769
 C     19  17  16     1.408580332214   113.42035839   183.66831915
 S     18  17  16     1.710403523178   113.57496705   178.20928494
 C     10   9   8     1.396448864943   127.07391702    21.24087888
 C     22  10   9     1.405674494362   112.76543696   188.52838543
 C     23  22  10     1.399458719184   111.98342868   358.71566858
 S     24  23  22     1.721939199885   113.31834136   359.50246018
 C     23  22  10     1.528268931209   136.54040827   187.05753221
 C     26  23  22     1.528977215200    99.97946859   175.74115473
 C     27  26  23     1.406023704672   110.75862717   356.36399268
 C     27  26  23     1.394869281151   136.32039126   168.70644108
 C     29  27  26     1.406786946947   112.89497490   186.48815364
 S     28  27  26     1.712699415455   113.02134791   177.11608223
 C     20  19  17     1.412676226777   131.19477476   169.19643599
 C     32  20  19     1.380771932435   132.24627803     6.65922053
 C     33  32  20     1.448356544778   134.76776988    15.27917509
 C     34  33  32     1.486113257662   107.37008983   203.23436469
 C     35  34  33     1.411832244603   108.56750591   350.29545920
 C     36  35  34     1.488851693957   109.39716279     3.25122192
 C     35  34  33     1.398783728029   131.93154457   171.74308961
 C     38  35  34     1.401602778286   118.36557840   178.50666716
 C     39  38  35     1.401369632146   121.59279778   359.30644966
 C     36  35  34     1.388797010545   122.20738558   181.97173230
 C     34  33  32     1.388078614056   126.72818040    32.54110218
 O     37  36  35     1.214028866420   127.38850503   180.74538093
 C     42  34  33     1.428247901451   123.01749923   182.04885471
 C     42  34  33     1.425795907905   121.80998458     7.75819675
 N     44  42  34     1.163029168938   178.09873050   120.12494602
 N     45  42  34     1.162398570328   178.51162853   108.75890674
 C     16  13  12     1.558778663377   108.32074801    66.64769044
 C     16  13  12     1.567876860758   109.05051878   304.16324532
 C     48  16  13     1.538916643714   118.49635405    49.77095534
 C     49  16  13     1.550519831734   122.10621853   157.58141404
 C     50  48  16     1.544343048840   112.98709112    77.16550807
 C     52  50  48     1.526576935009   114.23096058   220.56754629
 C     50  48  16     1.543028879509   107.73606317   201.85930684
 C     54  50  48     1.527616341036   116.35255702   182.25912791
 C     51  49  16     1.545408285923   115.82110984   284.40535094
 C     56  51  49     1.527493912787   116.04695104   316.81135437
 C     51  49  16     1.539203756135   113.59921819    55.65472909
 C     58  51  49     1.529669168840   115.74000470   176.48524171
 C     26  23  22     1.559140283137   108.16254684    57.36678812
 C     60  26  23     1.545230268018   115.48754354    57.44945942
 C     61  60  26     1.551212259170   112.37694066    89.15672230
 C     62  61  60     1.529848445337   114.69201583   221.83475679
 C     61  60  26     1.540445082273   110.44051281   215.70595523
 C     64  61  60     1.529121786549   114.98808034   175.06536335
 C     26  23  22     1.555932196916   116.18370442   292.31116086
 C     66  26  23     1.544865405464   118.07454903    48.20815130
 C     67  66  26     1.543772799605   108.07194471   146.22692304
 C     67  66  26     1.546519760527   110.42016355   271.00536894
 C     69  67  66     1.531212758633   116.20745050   153.58231839
 C     30  29  27     1.413790285792   132.21335925   179.50834930
 C     71  30  29     1.378740731429   133.36023117   344.62320375
 C     72  71  30     1.453181069963   135.79183318   347.75719265
 C     73  72  71     1.488841107842   107.20766243   165.14654144
 C     74  73  72     1.410918191959   108.66975458    10.52068208
 C     75  74  73     1.484297762513   109.38130615   354.77276754
 C     74  73  72     1.399485153083   132.07238219   187.47005456
 C     77  74  73     1.401029258617   118.49468120   184.30201809
 C     78  77  74     1.401804808417   121.64743938     0.83805571
 C     75  74  73     1.388956645076   122.43112810   175.10168236
 O     76  75  74     1.214386253051   127.22656227   180.39058273
 C     73  72  71     1.388599725695   127.76570209   334.42043257
 C     82  73  72     1.430110017936   122.85166499   179.54070469
 C     82  73  72     1.425824482712   123.07367124   352.94571309
 N     84  82  73     1.162790741363   177.91379590   217.12986687
 N     83  82  73     1.162633653951   178.27783631   222.02672580
 C     68  67  66     1.528436862451   117.57039687   178.18513229
 H      7   6   3     1.091944433064   118.69666374   181.45170665
 H      8   7   6     1.090054921231   117.72700121   175.73356210
 H     12  11   6     1.088633687059   121.63312719     3.28114903
 H     19  17  16     1.083609529166   124.63263151     0.29664486
 H     22  10   9     1.088572051175   122.26989013     8.15303559
 H     29  27  26     1.088600888848   124.61920806     7.36072833
 H     32  20  19     1.098304730664   115.39536284   197.38121819
 H     38  35  34     1.087936256818   121.84779314   357.95347285
 H     39  38  35     1.092068044400   118.99163333   179.04177727
 H     40  39  38     1.092231478854   119.67328651   180.58466218
 H     41  36  35     1.091450279399   119.82945747   179.52343048
 H     48  16  13     1.099191928555   105.72929898   288.41626219
 H     48  16  13     1.099512769321   108.93050337   174.37108282
 H     49  16  13     1.099842285694   107.02082571    34.02146954
 H     49  16  13     1.102087333245   106.57121675   282.22179199
 H     50  48  16     1.104109408437   108.03103006   317.59269222
 H     51  49  16     1.107192958702   103.17921844   170.37674488
 H     52  50  48     1.103458051808   109.44115192    96.78646838
 H     52  50  48     1.095569460372   110.58968683   342.37244117
 H     53  52  50     1.102882143386   110.74567611    64.33980721
 H     53  52  50     1.100826457758   110.89221107   183.75700318
 H     53  52  50     1.101322454279   112.20297109   304.60640431
 H     54  50  48     1.104372671746   108.38014573    59.09227302
 H     54  50  48     1.105951489985   108.17128646   304.99290033
 H     55  54  50     1.102901773686   111.66195226   300.45442731
 H     55  54  50     1.101752761422   110.62049835   180.52342323
 H     55  54  50     1.100448853378   111.96555177    61.18303712
 H     56  51  49     1.101047640886   106.96949698   196.45796075
 H     56  51  49     1.101356544131   110.44550359    82.27050658
 H     57  56  51     1.102827158353   111.66941370   307.12733881
 H     57  56  51     1.101315553963   110.37285192   187.54489193
 H     57  56  51     1.101276651028   112.59594098    67.98102699
 H     58  51  49     1.102322187657   108.05575427    53.62863123
 H     58  51  49     1.102122851365   109.12762253   298.59256032
 H     59  58  51     1.103210823143   111.71172321   304.98372396
 H     59  58  51     1.100866150538   110.71287952   184.25351965
 H     59  58  51     1.100013887231   111.73048790    65.45946671
 H     60  26  23     1.101980300595   106.47644237   295.41871398
 H     60  26  23     1.103046574810   108.62761927   181.65629974
 H     61  60  26     1.103259053894   107.35005977   331.09084048
 H     62  61  60     1.105457063843   109.15800348    98.28261796
 H     62  61  60     1.100387984349   109.50623990   343.49953287
 H     63  62  61     1.099500960391   112.14266449   301.14159046
 H     63  62  61     1.101607689198   111.19133507   180.67792348
 H     63  62  61     1.101822887854   110.82521832    61.05566891
 H     64  61  60     1.103775157629   108.15395705    53.45131129
 H     64  61  60     1.105990388792   108.94939802   298.87902653
 H     65  64  61     1.102423509818   110.87012315   305.78965797
 H     65  64  61     1.101557967154   111.12226407   186.22829674
 H     65  64  61     1.100450333863   112.09119596    66.01912145
 H     66  26  23     1.101783112686   108.99286693   283.58150807
 H     66  26  23     1.102639760620   105.48714474   170.58668798
 H     67  66  26     1.106230688690   108.89697341    29.82171333
 H     68  67  66     1.105303609014   107.85557276    54.53739338
 H     68  67  66     1.103847003665   107.44232578   301.17476214
 H     69  67  66     1.100835270193   108.74159436    31.71555072
 H     69  67  66     1.105411262201   108.24454261   277.87960244
 H     70  69  67     1.102244036954   111.02339817   304.92111002
 H     70  69  67     1.101431303396   110.76847101   185.78556780
 H     70  69  67     1.097640014987   113.05702721    64.92113447
 H     71  30  29     1.099261641922   115.29692603   161.33041031
 H     77  74  73     1.087434485061   121.84862808     4.10058132
 H     78  77  74     1.092481072101   118.68719326   180.53072146
 H     79  78  77     1.092255541803   119.93266576   178.69521395
 H     80  75  74     1.091766822861   119.69806160   181.39240165
 H     87  68  67     1.100283512191   112.11748006   292.59528292
 H     87  68  67     1.101591021432   110.40790903   173.28000764
 H     87  68  67     1.102428808450   111.78971233    53.77248058

---------------------------
INTERNAL COORDINATES (A.U.)
---------------------------
 S      0   0   0     0.000000000000     0.00000000     0.00000000
 N      1   0   0     3.101048073781     0.00000000     0.00000000
 C      2   1   0     2.520311347837   107.58855448     0.00000000
 C      3   2   1     2.754156004053   112.72989494     0.00000000
 N      4   3   2     2.519039138343   113.17822242     0.03767581
 C      3   2   1     2.724621063443   126.69764136   177.95485615
 C      6   3   2     2.632149379033   115.39868116   177.96012269
 C      7   6   3     2.666194052955   123.81992049     4.02174237
 C      8   7   6     2.628309872592   122.97236242   359.47314316
 C      9   8   7     2.736955702362   122.00737040   174.53207438
 C      6   3   2     2.736067035504   122.14268246   352.77609479
 C     11   6   3     2.637921677984   129.68633170    17.78424898
 C     12  11   6     2.659031970342   112.40545931   185.25285995
 C     13  12  11     2.637818212176   112.70442970     0.97493595
 S     14  13  12     3.250832381093   112.91148762   358.64489482
 C     13  12  11     2.889223112802   135.89963478   181.38057168
 C     16  13  12     2.908383258428    99.69180782   185.57271227
 C     17  16  13     2.669182265078   110.28615328   355.22180259
 C     17  16  13     2.635158501933   137.95226929   171.75395769
 C     19  17  16     2.661831065512   113.42035839   183.66831915
 S     18  17  16     3.232194237301   113.57496705   178.20928494
 C     10   9   8     2.638905914767   127.07391702    21.24087888
 C     22  10   9     2.656339827783   112.76543696   188.52838543
 C     23  22  10     2.644593714986   111.98342868   358.71566858
 S     24  23  22     3.253993507046   113.31834136   359.50246018
 C     23  22  10     2.888009738966   136.54040827   187.05753221
 C     26  23  22     2.889348201733    99.97946859   175.74115473
 C     27  26  23     2.656999739632   110.75862717   356.36399268
 C     27  26  23     2.635920933996   136.32039126   168.70644108
 C     29  27  26     2.658442058505   112.89497490   186.48815364
 S     28  27  26     3.236532844937   113.02134791   177.11608223
 C     20  19  17     2.669571184509   131.19477476   169.19643599
 C     32  20  19     2.609280805707   132.24627803     6.65922053
 C     33  32  20     2.736997213902   134.76776988    15.27917509
 C     34  33  32     2.808347060972   107.37008983   203.23436469
 C     35  34  33     2.667976289338   108.56750591   350.29545920
 C     36  35  34     2.813521955604   109.39716279     3.25122192
 C     35  34  33     2.643318166561   131.93154457   171.74308961
 C     38  35  34     2.648645399504   118.36557840   178.50666716
 C     39  38  35     2.648204817149   121.59279778   359.30644966
 C     36  35  34     2.624446005539   122.20738558   181.97173230
 C     34  33  32     2.623088432919   126.72818040    32.54110218
 O     37  36  35     2.294182076208   127.38850503   180.74538093
 C     42  34  33     2.698997385091   123.01749923   182.04885471
 C     42  34  33     2.694363788807   121.80998458     7.75819675
 N     44  42  34     2.197806615054   178.09873050   120.12494602
 N     45  42  34     2.196614956381   178.51162853   108.75890674
 C     16  13  12     2.945664777183   108.32074801    66.64769044
 C     16  13  12     2.962857878545   109.05051878   304.16324532
 C     48  16  13     2.908130999553   118.49635405    49.77095534
 C     49  16  13     2.930057847191   122.10621853   157.58141404
 C     50  48  16     2.918385419132   112.98709112    77.16550807
 C     52  50  48     2.884812329527   114.23096058   220.56754629
 C     50  48  16     2.915901999004   107.73606317   201.85930684
 C     54  50  48     2.886776522261   116.35255702   182.25912791
 C     51  49  16     2.920398425487   115.82110984   284.40535094
 C     56  51  49     2.886545166398   116.04695104   316.81135437
 C     51  49  16     2.908673563398   113.59921819    55.65472909
 C     58  51  49     2.890655804611   115.74000470   176.48524171
 C     26  23  22     2.946348139493   108.16254684    57.36678812
 C     60  26  23     2.920062020400   115.48754354    57.44945942
 C     61  60  26     2.931366345413   112.37694066    89.15672230
 C     62  61  60     2.890994588092   114.69201583   221.83475679
 C     61  60  26     2.911019329842   110.44051281   215.70595523
 C     64  61  60     2.889621401991   114.98808034   175.06536335
 C     26  23  22     2.940285735122   116.18370442   292.31116086
 C     66  26  23     2.919372530097   118.07454903    48.20815130
 C     67  66  26     2.917307804250   108.07194471   146.22692304
 C     67  66  26     2.922498808093   110.42016355   271.00536894
 C     69  67  66     2.893572766582   116.20745050   153.58231839
 C     30  29  27     2.671676450945   132.21335925   179.50834930
 C     71  30  29     2.605442392082   133.36023117   344.62320375
 C     72  71  30     2.746114245230   135.79183318   347.75719265
 C     73  72  71     2.813501950745   107.20766243   165.14654144
 C     74  73  72     2.666248980169   108.66975458    10.52068208
 C     75  74  73     2.804916272341   109.38130615   354.77276754
 C     74  73  72     2.644643667816   132.07238219   187.47005456
 C     77  74  73     2.647561604396   118.49468120   184.30201809
 C     78  77  74     2.649027181121   121.64743938     0.83805571
 C     75  74  73     2.624747671083   122.43112810   175.10168236
 O     76  75  74     2.294857439066   127.22656227   180.39058273
 C     73  72  71     2.624073191202   127.76570209   334.42043257
 C     82  73  72     2.702516275276   122.85166499   179.54070469
 C     82  73  72     2.694417787365   123.07367124   352.94571309
 N     84  82  73     2.197356052236   177.91379590   217.12986687
 N     83  82  73     2.197059200048   178.27783631   222.02672580
 C     68  67  66     2.888327083023   117.57039687   178.18513229
 H      7   6   3     2.063475931951   118.69666374   181.45170665
 H      8   7   6     2.059905272060   117.72700121   175.73356210
 H     12  11   6     2.057219528703   121.63312719     3.28114903
 H     19  17  16     2.047725246232   124.63263151     0.29664486
 H     22  10   9     2.057103053762   122.26989013     8.15303559
 H     29  27  26     2.057157549065   124.61920806     7.36072833
 H     32  20  19     2.075495152546   115.39536284   197.38121819
 H     38  35  34     2.055901576550   121.84779314   357.95347285
 H     39  38  35     2.063709523523   118.99163333   179.04177727
 H     40  39  38     2.064018369882   119.67328651   180.58466218
 H     41  36  35     2.062542116856   119.82945747   179.52343048
 H     48  16  13     2.077171713585   105.72929898   288.41626219
 H     48  16  13     2.077778014766   108.93050337   174.37108282
 H     49  16  13     2.078400710467   107.02082571    34.02146954
 H     49  16  13     2.082643235497   106.57121675   282.22179199
 H     50  48  16     2.086464403833   108.03103006   317.59269222
 H     51  49  16     2.092291469353   103.17921844   170.37674488
 H     52  50  48     2.085233518187   109.44115192    96.78646838
 H     52  50  48     2.070326240791   110.58968683   342.37244117
 H     53  52  50     2.084145208992   110.74567611    64.33980721
 H     53  52  50     2.080260526137   110.89221107   183.75700318
 H     53  52  50     2.081197823726   112.20297109   304.60640431
 H     54  50  48     2.086961899387   108.38014573    59.09227302
 H     54  50  48     2.089945433474   108.17128646   304.99290033
 H     55  54  50     2.084182304883   111.66195226   300.45442731
 H     55  54  50     2.082010986378   110.62049835   180.52342323
 H     55  54  50     2.079546957271   111.96555177    61.18303712
 H     56  51  49     2.080678501674   106.96949698   196.45796075
 H     56  51  49     2.081262244209   110.44550359    82.27050658
 H     57  56  51     2.084041302337   111.66941370   307.12733881
 H     57  56  51     2.081184784017   110.37285192   187.54489193
 H     57  56  51     2.081111268125   112.59594098    67.98102699
 H     58  51  49     2.083087046016   108.05575427    53.62863123
 H     58  51  49     2.082710355015   109.12762253   298.59256032
 H     59  58  51     2.084766323718   111.71172321   304.98372396
 H     59  58  51     2.080335534621   110.71287952   184.25351965
 H     59  58  51     2.078724990376   111.73048790    65.45946671
 H     60  26  23     2.082440973101   106.47644237   295.41871398
 H     60  26  23     2.084455939351   108.62761927   181.65629974
 H     61  60  26     2.084857466630   107.35005977   331.09084048
 H     62  61  60     2.089011103472   109.15800348    98.28261796
 H     62  61  60     2.079431931478   109.50623990   343.49953287
 H     63  62  61     2.077755699122   112.14266449   301.14159046
 H     63  62  61     2.081736839606   111.19133507   180.67792348
 H     63  62  61     2.082143506131   110.82521832    61.05566891
 H     64  61  60     2.085832761345   108.15395705    53.45131129
 H     64  61  60     2.090018941566   108.94939802   298.87902653
 H     65  64  61     2.083278517153   110.87012315   305.78965797
 H     65  64  61     2.081642878560   111.12226407   186.22829674
 H     65  64  61     2.079549754984   112.09119596    66.01912145
 H     66  26  23     2.082068341956   108.99286693   283.58150807
 H     66  26  23     2.083687171944   105.48714474   170.58668798
 H     67  66  26     2.090473042564   108.89697341    29.82171333
 H     68  67  66     2.088721115872   107.85557276    54.53739338
 H     68  67  66     2.085968530676   107.44232578   301.17476214
 H     69  67  66     2.080277179225   108.74159436    31.71555072
 H     69  67  66     2.088924550911   108.24454261   277.87960244
 H     70  69  67     2.082939362590   111.02339817   304.92111002
 H     70  69  67     2.081403518746   110.76847101   185.78556780
 H     70  69  67     2.074239021958   113.05702721    64.92113447
 H     71  30  29     2.077303452756   115.29692603   161.33041031
 H     77  74  73     2.054953365347   121.84862808     4.10058132
 H     78  77  74     2.064490032764   118.68719326   180.53072146
 H     79  78  77     2.064063842266   119.93266576   178.69521395
 H     80  75  74     2.063140297309   119.69806160   181.39240165
 H     87  68  67     2.079234507711   112.11748006   292.59528292
 H     87  68  67     2.081705342093   110.40790903   173.28000764
 H     87  68  67     2.083288530115   111.78971233    53.77248058

---------------------
BASIS SET INFORMATION
---------------------
There are 5 groups of distinct atoms

 Group   1 Type S   : 10s7p1d contracted to 4s3p1d pattern {5311/511/1}
 Group   2 Type N   : 7s4p1d contracted to 3s2p1d pattern {511/31/1}
 Group   3 Type C   : 7s4p1d contracted to 3s2p1d pattern {511/31/1}
 Group   4 Type O   : 7s4p1d contracted to 3s2p1d pattern {511/31/1}
 Group   5 Type H   : 4s1p contracted to 2s1p pattern {31/1}

Atom   0S    basis set group =>   1
Atom   1N    basis set group =>   2
Atom   2C    basis set group =>   3
Atom   3C    basis set group =>   3
Atom   4N    basis set group =>   2
Atom   5C    basis set group =>   3
Atom   6C    basis set group =>   3
Atom   7C    basis set group =>   3
Atom   8C    basis set group =>   3
Atom   9C    basis set group =>   3
Atom  10C    basis set group =>   3
Atom  11C    basis set group =>   3
Atom  12C    basis set group =>   3
Atom  13C    basis set group =>   3
Atom  14S    basis set group =>   1
Atom  15C    basis set group =>   3
Atom  16C    basis set group =>   3
Atom  17C    basis set group =>   3
Atom  18C    basis set group =>   3
Atom  19C    basis set group =>   3
Atom  20S    basis set group =>   1
Atom  21C    basis set group =>   3
Atom  22C    basis set group =>   3
Atom  23C    basis set group =>   3
Atom  24S    basis set group =>   1
Atom  25C    basis set group =>   3
Atom  26C    basis set group =>   3
Atom  27C    basis set group =>   3
Atom  28C    basis set group =>   3
Atom  29C    basis set group =>   3
Atom  30S    basis set group =>   1
Atom  31C    basis set group =>   3
Atom  32C    basis set group =>   3
Atom  33C    basis set group =>   3
Atom  34C    basis set group =>   3
Atom  35C    basis set group =>   3
Atom  36C    basis set group =>   3
Atom  37C    basis set group =>   3
Atom  38C    basis set group =>   3
Atom  39C    basis set group =>   3
Atom  40C    basis set group =>   3
Atom  41C    basis set group =>   3
Atom  42O    basis set group =>   4
Atom  43C    basis set group =>   3
Atom  44C    basis set group =>   3
Atom  45N    basis set group =>   2
Atom  46N    basis set group =>   2
Atom  47C    basis set group =>   3
Atom  48C    basis set group =>   3
Atom  49C    basis set group =>   3
Atom  50C    basis set group =>   3
Atom  51C    basis set group =>   3
Atom  52C    basis set group =>   3
Atom  53C    basis set group =>   3
Atom  54C    basis set group =>   3
Atom  55C    basis set group =>   3
Atom  56C    basis set group =>   3
Atom  57C    basis set group =>   3
Atom  58C    basis set group =>   3
Atom  59C    basis set group =>   3
Atom  60C    basis set group =>   3
Atom  61C    basis set group =>   3
Atom  62C    basis set group =>   3
Atom  63C    basis set group =>   3
Atom  64C    basis set group =>   3
Atom  65C    basis set group =>   3
Atom  66C    basis set group =>   3
Atom  67C    basis set group =>   3
Atom  68C    basis set group =>   3
Atom  69C    basis set group =>   3
Atom  70C    basis set group =>   3
Atom  71C    basis set group =>   3
Atom  72C    basis set group =>   3
Atom  73C    basis set group =>   3
Atom  74C    basis set group =>   3
Atom  75C    basis set group =>   3
Atom  76C    basis set group =>   3
Atom  77C    basis set group =>   3
Atom  78C    basis set group =>   3
Atom  79C    basis set group =>   3
Atom  80O    basis set group =>   4
Atom  81C    basis set group =>   3
Atom  82C    basis set group =>   3
Atom  83C    basis set group =>   3
Atom  84N    basis set group =>   2
Atom  85N    basis set group =>   2
Atom  86C    basis set group =>   3
Atom  87H    basis set group =>   5
Atom  88H    basis set group =>   5
Atom  89H    basis set group =>   5
Atom  90H    basis set group =>   5
Atom  91H    basis set group =>   5
Atom  92H    basis set group =>   5
Atom  93H    basis set group =>   5
Atom  94H    basis set group =>   5
Atom  95H    basis set group =>   5
Atom  96H    basis set group =>   5
Atom  97H    basis set group =>   5
Atom  98H    basis set group =>   5
Atom  99H    basis set group =>   5
Atom 100H    basis set group =>   5
Atom 101H    basis set group =>   5
Atom 102H    basis set group =>   5
Atom 103H    basis set group =>   5
Atom 104H    basis set group =>   5
Atom 105H    basis set group =>   5
Atom 106H    basis set group =>   5
Atom 107H    basis set group =>   5
Atom 108H    basis set group =>   5
Atom 109H    basis set group =>   5
Atom 110H    basis set group =>   5
Atom 111H    basis set group =>   5
Atom 112H    basis set group =>   5
Atom 113H    basis set group =>   5
Atom 114H    basis set group =>   5
Atom 115H    basis set group =>   5
Atom 116H    basis set group =>   5
Atom 117H    basis set group =>   5
Atom 118H    basis set group =>   5
Atom 119H    basis set group =>   5
Atom 120H    basis set group =>   5
Atom 121H    basis set group =>   5
Atom 122H    basis set group =>   5
Atom 123H    basis set group =>   5
Atom 124H    basis set group =>   5
Atom 125H    basis set group =>   5
Atom 126H    basis set group =>   5
Atom 127H    basis set group =>   5
Atom 128H    basis set group =>   5
Atom 129H    basis set group =>   5
Atom 130H    basis set group =>   5
Atom 131H    basis set group =>   5
Atom 132H    basis set group =>   5
Atom 133H    basis set group =>   5
Atom 134H    basis set group =>   5
Atom 135H    basis set group =>   5
Atom 136H    basis set group =>   5
Atom 137H    basis set group =>   5
Atom 138H    basis set group =>   5
Atom 139H    basis set group =>   5
Atom 140H    basis set group =>   5
Atom 141H    basis set group =>   5
Atom 142H    basis set group =>   5
Atom 143H    basis set group =>   5
Atom 144H    basis set group =>   5
Atom 145H    basis set group =>   5
Atom 146H    basis set group =>   5
Atom 147H    basis set group =>   5
Atom 148H    basis set group =>   5
Atom 149H    basis set group =>   5
Atom 150H    basis set group =>   5
Atom 151H    basis set group =>   5
Atom 152H    basis set group =>   5
Atom 153H    basis set group =>   5
Atom 154H    basis set group =>   5
---------------------------------
AUXILIARY/J BASIS SET INFORMATION
---------------------------------
There are 5 groups of distinct atoms

 Group   1 Type S   : 14s5p5d2f1g contracted to 8s4p3d1f1g pattern {71111111/2111/311/2/1}
 Group   2 Type N   : 12s5p4d2f1g contracted to 6s4p3d1f1g pattern {711111/2111/211/2/1}
 Group   3 Type C   : 12s5p4d2f1g contracted to 6s4p3d1f1g pattern {711111/2111/211/2/1}
 Group   4 Type O   : 12s5p4d2f1g contracted to 6s4p3d1f1g pattern {711111/2111/211/2/1}
 Group   5 Type H   : 5s2p1d contracted to 3s1p1d pattern {311/2/1}

Atom   0S    basis set group =>   1
Atom   1N    basis set group =>   2
Atom   2C    basis set group =>   3
Atom   3C    basis set group =>   3
Atom   4N    basis set group =>   2
Atom   5C    basis set group =>   3
Atom   6C    basis set group =>   3
Atom   7C    basis set group =>   3
Atom   8C    basis set group =>   3
Atom   9C    basis set group =>   3
Atom  10C    basis set group =>   3
Atom  11C    basis set group =>   3
Atom  12C    basis set group =>   3
Atom  13C    basis set group =>   3
Atom  14S    basis set group =>   1
Atom  15C    basis set group =>   3
Atom  16C    basis set group =>   3
Atom  17C    basis set group =>   3
Atom  18C    basis set group =>   3
Atom  19C    basis set group =>   3
Atom  20S    basis set group =>   1
Atom  21C    basis set group =>   3
Atom  22C    basis set group =>   3
Atom  23C    basis set group =>   3
Atom  24S    basis set group =>   1
Atom  25C    basis set group =>   3
Atom  26C    basis set group =>   3
Atom  27C    basis set group =>   3
Atom  28C    basis set group =>   3
Atom  29C    basis set group =>   3
Atom  30S    basis set group =>   1
Atom  31C    basis set group =>   3
Atom  32C    basis set group =>   3
Atom  33C    basis set group =>   3
Atom  34C    basis set group =>   3
Atom  35C    basis set group =>   3
Atom  36C    basis set group =>   3
Atom  37C    basis set group =>   3
Atom  38C    basis set group =>   3
Atom  39C    basis set group =>   3
Atom  40C    basis set group =>   3
Atom  41C    basis set group =>   3
Atom  42O    basis set group =>   4
Atom  43C    basis set group =>   3
Atom  44C    basis set group =>   3
Atom  45N    basis set group =>   2
Atom  46N    basis set group =>   2
Atom  47C    basis set group =>   3
Atom  48C    basis set group =>   3
Atom  49C    basis set group =>   3
Atom  50C    basis set group =>   3
Atom  51C    basis set group =>   3
Atom  52C    basis set group =>   3
Atom  53C    basis set group =>   3
Atom  54C    basis set group =>   3
Atom  55C    basis set group =>   3
Atom  56C    basis set group =>   3
Atom  57C    basis set group =>   3
Atom  58C    basis set group =>   3
Atom  59C    basis set group =>   3
Atom  60C    basis set group =>   3
Atom  61C    basis set group =>   3
Atom  62C    basis set group =>   3
Atom  63C    basis set group =>   3
Atom  64C    basis set group =>   3
Atom  65C    basis set group =>   3
Atom  66C    basis set group =>   3
Atom  67C    basis set group =>   3
Atom  68C    basis set group =>   3
Atom  69C    basis set group =>   3
Atom  70C    basis set group =>   3
Atom  71C    basis set group =>   3
Atom  72C    basis set group =>   3
Atom  73C    basis set group =>   3
Atom  74C    basis set group =>   3
Atom  75C    basis set group =>   3
Atom  76C    basis set group =>   3
Atom  77C    basis set group =>   3
Atom  78C    basis set group =>   3
Atom  79C    basis set group =>   3
Atom  80O    basis set group =>   4
Atom  81C    basis set group =>   3
Atom  82C    basis set group =>   3
Atom  83C    basis set group =>   3
Atom  84N    basis set group =>   2
Atom  85N    basis set group =>   2
Atom  86C    basis set group =>   3
Atom  87H    basis set group =>   5
Atom  88H    basis set group =>   5
Atom  89H    basis set group =>   5
Atom  90H    basis set group =>   5
Atom  91H    basis set group =>   5
Atom  92H    basis set group =>   5
Atom  93H    basis set group =>   5
Atom  94H    basis set group =>   5
Atom  95H    basis set group =>   5
Atom  96H    basis set group =>   5
Atom  97H    basis set group =>   5
Atom  98H    basis set group =>   5
Atom  99H    basis set group =>   5
Atom 100H    basis set group =>   5
Atom 101H    basis set group =>   5
Atom 102H    basis set group =>   5
Atom 103H    basis set group =>   5
Atom 104H    basis set group =>   5
Atom 105H    basis set group =>   5
Atom 106H    basis set group =>   5
Atom 107H    basis set group =>   5
Atom 108H    basis set group =>   5
Atom 109H    basis set group =>   5
Atom 110H    basis set group =>   5
Atom 111H    basis set group =>   5
Atom 112H    basis set group =>   5
Atom 113H    basis set group =>   5
Atom 114H    basis set group =>   5
Atom 115H    basis set group =>   5
Atom 116H    basis set group =>   5
Atom 117H    basis set group =>   5
Atom 118H    basis set group =>   5
Atom 119H    basis set group =>   5
Atom 120H    basis set group =>   5
Atom 121H    basis set group =>   5
Atom 122H    basis set group =>   5
Atom 123H    basis set group =>   5
Atom 124H    basis set group =>   5
Atom 125H    basis set group =>   5
Atom 126H    basis set group =>   5
Atom 127H    basis set group =>   5
Atom 128H    basis set group =>   5
Atom 129H    basis set group =>   5
Atom 130H    basis set group =>   5
Atom 131H    basis set group =>   5
Atom 132H    basis set group =>   5
Atom 133H    basis set group =>   5
Atom 134H    basis set group =>   5
Atom 135H    basis set group =>   5
Atom 136H    basis set group =>   5
Atom 137H    basis set group =>   5
Atom 138H    basis set group =>   5
Atom 139H    basis set group =>   5
Atom 140H    basis set group =>   5
Atom 141H    basis set group =>   5
Atom 142H    basis set group =>   5
Atom 143H    basis set group =>   5
Atom 144H    basis set group =>   5
Atom 145H    basis set group =>   5
Atom 146H    basis set group =>   5
Atom 147H    basis set group =>   5
Atom 148H    basis set group =>   5
Atom 149H    basis set group =>   5
Atom 150H    basis set group =>   5
Atom 151H    basis set group =>   5
Atom 152H    basis set group =>   5
Atom 153H    basis set group =>   5
Atom 154H    basis set group =>   5
------------------------------------------------------------------------------
                           ORCA GTO INTEGRAL CALCULATION
                           -- RI-GTO INTEGRALS CHOSEN --
------------------------------------------------------------------------------

                         BASIS SET STATISTICS AND STARTUP INFO

Gaussian basis set:
 # of primitive gaussian shells          ... 1414
 # of primitive gaussian functions       ... 2624
 # of contracted shells                  ...  736
 # of contracted basis functions         ... 1578
 Highest angular momentum                ...    2
 Maximum contraction depth               ...    5
Auxiliary gaussian basis set:
 # of primitive gaussian shells          ... 2647
 # of primitive gaussian functions       ... 7213
 # of contracted shells                  ... 1655
 # of contracted aux-basis functions     ... 5021
 Highest angular momentum                ...    4
 Maximum contraction depth               ...    7
Ratio of auxiliary to basis functions    ...  3.18
Integral package used                  ... LIBINT
 One Electron integrals                  ... done
 Ordering auxiliary basis shells         ... done
 Integral threshhold             Thresh  ...  2.500e-11
 Primitive cut-off               TCut    ...  2.500e-12
 Pre-screening matrix                    ... done
 Shell pair data                         ... 
 Ordering of the shell pairs             ... done (   0.020 sec) 82957 of 271216 pairs
 Determination of significant pairs      ... done (   0.000 sec)
 Creation of shell pair data             ... done (   0.012 sec)
 Storage of shell pair data              ... done (   0.017 sec)
 Shell pair data done in (   0.050 sec)
 Computing two index integrals           ... done
 Cholesky decomposition of the V-matrix  ... done


Timings:
 Total evaluation time                   ...   4.281 sec (  0.071 min)
 One electron matrix time                ...   1.384 sec (  0.023 min) = 32.3%
 Schwartz matrix evaluation time         ...   1.165 sec (  0.019 min) = 27.2%
 Two index repulsion integral time       ...   0.648 sec (  0.011 min) = 15.1%
 Cholesky decomposition of V             ...   1.016 sec (  0.017 min) = 23.7%
 Three index repulsion integral time     ...   0.000 sec (  0.000 min) =  0.0%

-------------------------------------------------------------------------------
                                 ORCA SCF
-------------------------------------------------------------------------------

------------
SCF SETTINGS
------------
Hamiltonian:
 Density Functional     Method          .... DFT(GTOs)
 Exchange Functional    Exchange        .... WB88
 Correlation Functional Correlation     .... LYP
 LDA part of GGA corr.  LDAOpt          .... VWN-5
 Gradients option       PostSCFGGA      .... off
 Hybrid DFT is turned on
   Fraction HF Exchange ScalHFX         ....  0.190000
   Scaling of DF-GGA-X  ScalDFX         ....  0.350000
   Scaling of DF-GGA-C  ScalDFC         ....  0.810000
   Scaling of DF-LDA-C  ScalLDAC        ....  1.000000
   Perturbative correction              ....  0.000000
   Density functional embedding theory  .... OFF
 Long-range corrected/Screened/Range-Separated Hybrid DFT is turned on
   Amount of maximum screened exact exchange              ....  0.460000
   Range separation parameter mu (erf(mu*r12)/r12)        ....  0.330000
 RI-approximation to the Coulomb term is turned on
   Number of auxiliary basis functions  .... 5021
   RIJ-COSX (HFX calculated with COS-X)).... on


General Settings:
 Integral files         IntName         .... BTCIC
 Hartree-Fock type      HFTyp           .... RHF
 Total Charge           Charge          ....    0
 Multiplicity           Mult            ....    1
 Number of Electrons    NEL             ....  650
 Basis Dimension        Dim             .... 1578
 Nuclear Repulsion      ENuc            ....  15156.5601324835 Eh

Convergence Acceleration:
 DIIS                   CNVDIIS         .... on
   Start iteration      DIISMaxIt       ....    12
   Startup error        DIISStart       ....  0.200000
   # of expansion vecs  DIISMaxEq       ....     5
   Bias factor          DIISBfac        ....   1.050
   Max. coefficient     DIISMaxC        ....  10.000
 Newton-Raphson         CNVNR           .... off
 SOSCF                  CNVSOSCF        .... on
   Start iteration      SOSCFMaxIt      ....   150
   Startup grad/error   SOSCFStart      ....  0.003300
 Level Shifting         CNVShift        .... on
   Level shift para.    LevelShift      ....    0.2500
   Turn off err/grad.   ShiftErr        ....    0.0010
 Zerner damping         CNVZerner       .... off
 Static damping         CNVDamp         .... on
   Fraction old density DampFac         ....    0.7000
   Max. Damping (<1)    DampMax         ....    0.9800
   Min. Damping (>=0)   DampMin         ....    0.0000
   Turn off err/grad.   DampErr         ....    0.1000
 Fernandez-Rico         CNVRico         .... off

SCF Procedure:
 Maximum # iterations   MaxIter         ....   125
 SCF integral mode      SCFMode         .... Direct
   Integral package                     .... LIBINT
 Reset frequency        DirectResetFreq ....    20
 Integral Threshold     Thresh          ....  2.500e-11 Eh
 Primitive CutOff       TCut            ....  2.500e-12 Eh

Convergence Tolerance:
 Convergence Check Mode ConvCheckMode   .... Total+1el-Energy
 Convergence forced     ConvForced      .... 1
 Energy Change          TolE            ....  1.000e-08 Eh
 1-El. energy change                    ....  1.000e-05 Eh
 Orbital Gradient       TolG            ....  1.000e-05
 Orbital Rotation angle TolX            ....  1.000e-05
 DIIS Error             TolErr          ....  5.000e-07


Diagonalization of the overlap matrix:
Smallest eigenvalue                        ... 1.794e-04
Time for diagonalization                   ...    0.745 sec
Threshold for overlap eigenvalues          ... 1.000e-08
Number of eigenvalues below threshold      ... 0
Time for construction of square roots      ...    0.326 sec
Total time needed                          ...    1.078 sec

-------------------
DFT GRID GENERATION
-------------------

General Integration Accuracy     IntAcc      ...  4.670
Radial Grid Type                 RadialGrid  ... Gauss-Chebyshev
Angular Grid (max. acc.)         AngularGrid ... Lebedev-302
Angular grid pruning method      GridPruning ... 3 (G Style)
Weight generation scheme         WeightScheme... Becke
Basis function cutoff            BFCut       ...    1.0000e-11
Integration weight cutoff        WCut        ...    1.0000e-14
Grids for H and He will be reduced by one unit

# of grid points (after initial pruning)     ... 774406 (   2.5 sec)
# of grid points (after weights+screening)   ... 645343 (  46.2 sec)
nearest neighbour list constructed           ...    0.0 sec
Grid point re-assignment to atoms done       ...    0.1 sec
Grid point division into batches done        ...    2.2 sec
Reduced shell lists constructed in   13.5 sec

Total number of grid points                  ...   645343
Total number of batches                      ...    10164
Average number of points per batch           ...       63
Average number of grid points per atom       ...     4164
Average number of shells per batch           ...   120.01 (16.31%)
Average number of basis functions per batch  ...   232.94 (14.76%)
Average number of large shells per batch     ...    68.24 (56.86%)
Average number of large basis fcns per batch ...   134.28 (57.65%)
Maximum spatial batch extension              ...  19.76, 19.95, 23.28 au
Average spatial batch extension              ...   2.03,  1.96,  2.08 au

Time for grid setup =   62.353 sec

------------------------------
INITIAL GUESS: MODEL POTENTIAL
------------------------------
Loading Hartree-Fock densities                     ... done
Calculating cut-offs                               ... done
Setting up the integral package                    ... done
Initializing the effective Hamiltonian             ... done
Starting the Coulomb interaction                   ... done (  20.9 sec)
Reading the grid                                   ... done
Mapping shells                                     ... done
Starting the XC term evaluation                    ... done (  14.6 sec)
  promolecular density results
     # of electrons  =    649.968897809
     EX              =   -578.480466190
     EC              =    -22.299650171
     EX+EC           =   -600.780116361
Transforming the Hamiltonian                       ... done (   0.3 sec)
Diagonalizing the Hamiltonian                      ... done (   0.8 sec)
Back transforming the eigenvectors                 ... done (   0.1 sec)
Now organizing SCF variables                       ... done
                      ------------------
                      INITIAL GUESS DONE (  99.5 sec)
                      ------------------
--------------------
COSX GRID GENERATION
--------------------

General Integration Accuracy     IntAcc      ...  3.340
Radial Grid Type                 RadialGrid  ... Gauss-Chebyshev
Angular Grid (max. acc.)         AngularGrid ... Lebedev-50
Angular grid pruning method      GridPruning ... 3 (G Style)
Weight generation scheme         WeightScheme... Becke
Basis function cutoff            BFCut       ...    1.0000e-11
Integration weight cutoff        WCut        ...    1.0000e-14
Grids for H and He will be reduced by one unit

# of grid points (after initial pruning)     ...  72766 (   0.1 sec)
# of grid points (after weights+screening)   ...  63472 (   4.3 sec)
nearest neighbour list constructed           ...    0.0 sec
Grid point re-assignment to atoms done       ...    0.0 sec
Grid point division into batches done        ...    0.0 sec
Reduced shell lists constructed in    1.5 sec

Total number of grid points                  ...    63472
Total number of batches                      ...     1071
Average number of points per batch           ...       59
Average number of grid points per atom       ...      409
Average number of shells per batch           ...   145.43 (19.76%)
Average number of basis functions per batch  ...   285.85 (18.11%)
Average number of large shells per batch     ...    83.51 (57.42%)
Average number of large basis fcns per batch ...   167.02 (58.43%)
Maximum spatial batch extension              ...  21.36, 21.29, 25.90 au
Average spatial batch extension              ...   4.22,  3.93,  4.52 au

Overlap Fitting                  UseSFitting ... on
Constructing numerical overlap ... done (      1.1 sec)
Inverting numerical overlap    ... done (      0.1 sec)
Obtaining analytic overlap     ... done (      0.0 sec)
Final contraction and storage  ... done (      0.2 sec)


General Integration Accuracy     IntAcc      ...  3.670
Radial Grid Type                 RadialGrid  ... Gauss-Chebyshev
Angular Grid (max. acc.)         AngularGrid ... Lebedev-50
Angular grid pruning method      GridPruning ... 3 (G Style)
Weight generation scheme         WeightScheme... Becke
Basis function cutoff            BFCut       ...    1.0000e-11
Integration weight cutoff        WCut        ...    1.0000e-14
Grids for H and He will be reduced by one unit

# of grid points (after initial pruning)     ...  91938 (   0.2 sec)
# of grid points (after weights+screening)   ...  79851 (   5.4 sec)
nearest neighbour list constructed           ...    0.0 sec
Grid point re-assignment to atoms done       ...    0.0 sec
Grid point division into batches done        ...    0.0 sec
Reduced shell lists constructed in    1.8 sec

Total number of grid points                  ...    79851
Total number of batches                      ...     1324
Average number of points per batch           ...       60
Average number of grid points per atom       ...      515
Average number of shells per batch           ...   141.86 (19.27%)
Average number of basis functions per batch  ...   278.19 (17.63%)
Average number of large shells per batch     ...    81.03 (57.12%)
Average number of large basis fcns per batch ...   161.51 (58.06%)
Maximum spatial batch extension              ...  23.75, 23.24, 26.98 au
Average spatial batch extension              ...   3.93,  3.63,  4.14 au

Overlap Fitting                  UseSFitting ... on
Constructing numerical overlap ... done (      1.3 sec)
Inverting numerical overlap    ... done (      0.1 sec)
Obtaining analytic overlap     ... done (      0.0 sec)
Final contraction and storage  ... done (      0.2 sec)


General Integration Accuracy     IntAcc      ...  4.010
Radial Grid Type                 RadialGrid  ... Gauss-Chebyshev
Angular Grid (max. acc.)         AngularGrid ... Lebedev-110
Angular grid pruning method      GridPruning ... 3 (G Style)
Weight generation scheme         WeightScheme... Becke
Basis function cutoff            BFCut       ...    1.0000e-11
[...]
   2      2.95     420.3   129 -> 131      gap,J,K:    4.366     1.809     0.196
   3      3.02     411.2   130 -> 133      gap,J,K:    4.522     1.845     0.169
   4      3.34     370.7   129 -> 132      gap,J,K:    4.720     1.743     0.184
   5      3.58     346.2   129 -> 133      gap,J,K:    5.095     1.725     0.106
   6      3.66     338.7   130 -> 135      gap,J,K:    5.041     1.570     0.095
   7      3.71     334.3   130 -> 134      gap,J,K:    4.984     1.451     0.088
   8      3.96     313.4   128 -> 131      gap,J,K:    5.319     1.804     0.221
   9      4.22     294.1   129 -> 134      gap,J,K:    5.557     1.582     0.120
  10      4.24     292.7   129 -> 135      gap,J,K:    5.613     1.596     0.109
  11      4.34     285.9   130 -> 136      gap,J,K:    5.921     1.883     0.149
  12      4.34     285.8   128 -> 132      gap,J,K:    5.672     1.689     0.177
  13      4.37     283.8   127 -> 131      gap,J,K:    5.662     1.546     0.127
  14      4.46     278.2   125 -> 131      gap,J,K:    6.015     1.772     0.107
  15      4.49     276.1   124 -> 131      gap,J,K:    6.100     1.895     0.143
  16      4.53     273.9   126 -> 131      gap,J,K:    5.798     1.515     0.122
  17      4.65     266.5   128 -> 133      gap,J,K:    6.048     1.771     0.188
  18      4.68     264.7   122 -> 131      gap,J,K:    6.230     1.781     0.117
  19      4.71     263.3   123 -> 131      gap,J,K:    6.170     1.731     0.135
  20      4.72     262.9   130 -> 137      gap,J,K:    6.098     1.768     0.193
  21      4.74     261.3   121 -> 131      gap,J,K:    6.301     1.766     0.105
  22      4.76     260.7   127 -> 132      gap,J,K:    6.015     1.681     0.211
  23      4.83     256.9   126 -> 132      gap,J,K:    6.151     1.675     0.175
  24      4.84     256.0   120 -> 131      gap,J,K:    6.338     1.564     0.035

average / max PT2 energy lowering (eV):       0.058       0.096

CSF included by PT:                   164 
total number of CSF included:         191 
 
sTD-DFT procedure...
setting up A+B and A-B matrices...  done
estimated time (min):    0.000
calculating (A-B)^0.5 ... done
calculating (A+B)*(A-B)^0.5 ... done
calculating (A-B)^0.5 *(A+B)*(A-B)^0.5 ... done
diagonalizing ...using LAPACKE_ssyevr ...done

   38 roots found, lowest/highest eigenvalue :     1.929     4.973

excitation energies, transition moments and amplitudes

molecular weight: 1233.698
state   eV        nm        fL         fV        Rl        RV
   0   1.929     642.8   2.414580   2.963049  710.594388  789.242667     0.87 ( 130-> 131)    0.11 ( 129-> 132)    0.01 ( 128-> 133)
   1   2.348     528.1   0.194431   0.226098  -828.898795  -901.938164     0.59 ( 130-> 132)    0.31 ( 129-> 131)    0.05 ( 129-> 133)
   2   2.626     472.1   0.067265   0.075128  67.719408  70.527370     0.75 ( 130-> 133)    0.16 ( 129-> 132)    0.02 ( 129-> 134)
   3   2.845     435.8   0.012342   0.012986  -10.314177  -10.378161     0.57 ( 129-> 131)    0.21 ( 130-> 132)    0.16 ( 129-> 133)
   4   3.181     389.8   0.307142   0.287656  -212.120277  -215.354310     0.61 ( 130-> 135)    0.12 ( 129-> 134)    0.07 ( 129-> 135)
   5   3.212     386.0   0.137715   0.131295  192.995613  194.818688     0.57 ( 130-> 134)    0.13 ( 129-> 135)    0.09 ( 129-> 134)
   6   3.380     366.8   0.101886   0.110961  86.461479  93.413554     0.43 ( 129-> 132)    0.20 ( 128-> 131)    0.11 ( 130-> 133)
   7   3.559     348.4   0.003685   0.003187  93.392383  87.189550     0.44 ( 129-> 133)    0.14 ( 128-> 132)    0.11 ( 130-> 132)
   8   3.667     338.1   0.155656   0.157487  -310.733556  -312.148576     0.28 ( 128-> 131)    0.13 ( 127-> 132)    0.10 ( 129-> 132)
   9   3.740     331.5   0.093280   0.090709  282.032565  275.400368     0.22 ( 127-> 131)    0.14 ( 126-> 132)    0.08 ( 119-> 131)
  10   3.824     324.3   0.075506   0.062828  -10.147381  -17.070357     0.25 ( 128-> 131)    0.17 ( 126-> 131)    0.10 ( 119-> 132)
  11   3.948     314.0   0.027099   0.023194   5.664746   5.758514     0.13 ( 120-> 132)    0.13 ( 120-> 131)    0.08 ( 121-> 131)
  12   3.973     312.1   0.088833   0.075872  107.766089  89.093324     0.19 ( 119-> 132)    0.14 ( 119-> 131)    0.10 ( 125-> 131)
  13   4.000     310.0   0.143106   0.129466  -286.171989  -268.739532     0.19 ( 120-> 135)    0.19 ( 130-> 136)    0.15 ( 119-> 134)
  14   4.011     309.1   0.065971   0.054890  480.058032  436.326355     0.15 ( 119-> 134)    0.14 ( 120-> 134)    0.12 ( 125-> 131)
  15   4.028     307.8   0.071224   0.058981  -162.276979  -124.841945     0.42 ( 125-> 131)    0.10 ( 130-> 136)    0.07 ( 125-> 132)
  16   4.068     304.8   0.057783   0.048926  -96.454421  -94.653953     0.23 ( 124-> 131)    0.12 ( 130-> 136)    0.10 ( 126-> 131)
  17   4.107     301.9   0.060100   0.043367  -28.808027  -20.279755     0.49 ( 124-> 131)    0.13 ( 130-> 136)    0.09 ( 124-> 132)
  18   4.132     300.0   0.010462   0.009170  -63.428539  -60.106747     0.33 ( 123-> 131)    0.10 ( 130-> 137)    0.09 ( 128-> 132)
  19   4.182     296.4   0.022183   0.015954  -39.762886  -31.404312     0.48 ( 122-> 131)    0.12 ( 122-> 132)    0.10 ( 125-> 132)
  20   4.225     293.4   0.001579   0.001953   1.283048   3.334155     0.24 ( 121-> 131)    0.21 ( 128-> 132)    0.06 ( 124-> 133)
  21   4.270     290.4   0.039932   0.033075  -53.099424  -42.733353     0.28 ( 130-> 137)    0.15 ( 128-> 132)    0.06 ( 129-> 134)
  22   4.319     287.0   0.181645   0.168401  -496.067829  -488.260187     0.24 ( 128-> 133)    0.14 ( 130-> 135)    0.11 ( 129-> 134)
  23   4.360     284.4   0.082967   0.073420  173.637243  167.305857     0.21 ( 129-> 135)    0.13 ( 130-> 134)    0.12 ( 130-> 137)
  24   4.385     282.8   0.068183   0.064123  35.644025  39.852197     0.27 ( 118-> 131)    0.23 ( 118-> 132)    0.10 ( 118-> 133)
  25   4.413     281.0   0.049759   0.046000  15.040395  20.305137     0.36 ( 117-> 132)    0.23 ( 117-> 131)    0.10 ( 117-> 133)
  26   4.465     277.7   0.144871   0.122546  173.342407  155.330393     0.21 ( 128-> 133)    0.16 ( 129-> 134)    0.10 ( 125-> 132)
  27   4.570     271.3   0.023175   0.020584  45.802066  40.394635     0.14 ( 128-> 133)    0.14 ( 125-> 132)    0.10 ( 125-> 133)
  28   4.598     269.7   0.051510   0.039923  121.433921  106.665080     0.10 ( 128-> 132)    0.10 ( 130-> 137)    0.09 ( 127-> 131)
  29   4.645     266.9   0.116404   0.091015  231.353098  209.056546     0.47 ( 116-> 131)    0.09 ( 130-> 140)    0.07 ( 130-> 137)
  30   4.713     263.1   0.077110   0.058573  -204.614053  -179.290231     0.27 ( 124-> 133)    0.20 ( 124-> 132)    0.06 ( 121-> 132)
  31   4.737     261.7   0.370586   0.305635  -1529.920156  -1397.302175     0.19 ( 126-> 133)    0.10 ( 127-> 134)    0.09 ( 127-> 132)
  32   4.777     259.6   0.369028   0.297177  2106.230677  1892.460667     0.19 ( 127-> 135)    0.14 ( 126-> 134)    0.10 ( 127-> 133)
  33   4.849     255.7   0.199597   0.155913  -349.793185  -304.455024     0.16 ( 122-> 133)    0.10 ( 122-> 131)    0.08 ( 122-> 132)
  34   4.881     254.0   0.014751   0.013460  -22.111308  -21.351081     0.16 ( 123-> 133)    0.11 ( 121-> 133)    0.10 ( 124-> 133)
  35   4.896     253.2   0.069317   0.052018  -226.143814  -188.434673     0.10 ( 115-> 131)    0.08 ( 126-> 131)    0.08 ( 128-> 135)
  36   4.960     250.0   0.024474   0.018393  39.531736  32.740458     0.18 ( 129-> 136)    0.11 ( 127-> 132)    0.08 ( 128-> 134)
  37   4.973     249.3   0.001871   0.002196  -1.611300  -1.486020     0.18 ( 129-> 136)    0.14 ( 127-> 132)    0.06 ( 126-> 131)

-----------------------------------------------------------------------------
         ABSORPTION SPECTRUM VIA TRANSITION ELECTRIC DIPOLE MOMENTS
-----------------------------------------------------------------------------
State   Energy  Wavelength   fosc         T2         TX        TY        TZ  
        (cm-1)    (nm)                  (au**2)     (au)      (au)      (au) 
-----------------------------------------------------------------------------
   0   15556.1    642.8   2.414580120  51.09964  -2.11853  -6.79966   0.61329
   1   18936.7    528.1   0.194431393   3.38016  -1.20167   0.26329  -1.36632
   2   21182.1    472.1   0.067265050   1.04543   0.46286  -0.90840   0.07752
   3   22946.2    435.8   0.012342218   0.17708  -0.27806   0.13702  -0.28457
   4   25654.4    389.8   0.307141997   3.94141   1.50116   1.27952   0.22527
   5   25905.2    386.0   0.137715154   1.75013   0.16966   0.88361  -0.96983
   6   27263.4    366.8   0.101886397   1.23030   0.32425  -1.03633   0.22624
   7   28701.4    348.4   0.003685166   0.04227   0.09792  -0.03390   0.17757
   8   29579.8    338.1   0.155656015   1.73239   1.01875   0.65646   0.51342
   9   30165.1    331.5   0.093280081   1.01803  -0.42788  -0.42079   0.81110
  10   30840.3    324.3   0.075505818   0.80600  -0.39490  -0.80620   0.00990
  11   31844.3    314.0   0.027099360   0.28016  -0.11308  -0.35706  -0.37401
  12   32043.2    312.1   0.088832902   0.91267  -0.51833  -0.59070   0.54321
  13   32258.5    310.0   0.143105885   1.46046  -0.93310  -0.71876  -0.27049
  14   32354.5    309.1   0.065970787   0.67126   0.09850  -0.27704  -0.76473
  15   32487.7    307.8   0.071224075   0.72174  -0.03954  -0.81639   0.23172
  16   32808.8    304.8   0.057782751   0.57981   0.17117   0.67971   0.29750
  17   33126.1    301.9   0.060100376   0.59729  -0.60019   0.43300  -0.22266
  18   33328.1    300.0   0.010461849   0.10334  -0.25198   0.02761  -0.19769
  19   33734.1    296.4   0.022182605   0.21648  -0.03988  -0.39467  -0.24317
  20   34079.2    293.4   0.001578707   0.01525   0.11606  -0.02912  -0.03052
  21   34440.6    290.4   0.039932079   0.38170   0.61195  -0.02120  -0.08229
  22   34837.1    287.0   0.181645466   1.71655   1.08891   0.60576   0.40485
  23   35161.9    284.4   0.082967110   0.77680  -0.02411   0.64164  -0.60376
  24   35364.5    282.8   0.068183226   0.63472  -0.10558  -0.00276   0.78966
  25   35592.6    281.0   0.049758782   0.46024   0.24355   0.61873  -0.13452
  26   36013.0    277.7   0.144870659   1.32433   0.01850   1.12196   0.25534
  27   36861.5    271.3   0.023174926   0.20698   0.18062   0.24261  -0.33985
  28   37082.7    269.7   0.051510122   0.45730   0.49479  -0.16789  -0.42929
  29   37466.8    266.9   0.116404487   1.02282   0.69518  -0.35212  -0.64464
  30   38010.0    263.1   0.077109560   0.66786  -0.67382  -0.45739  -0.06801
  31   38206.3    261.7   0.370586456   3.19323  -1.53714  -0.80261  -0.43155
  32   38528.1    259.6   0.369027663   3.15324   0.45882  -0.44292   1.65727
  33   39111.1    255.7   0.199597078   1.68008  -1.15255  -0.42016   0.41854
  34   39365.7    254.0   0.014751233   0.12336  -0.33291  -0.08196  -0.07628
  35   39490.0    253.2   0.069316621   0.57786   0.56671   0.22109   0.45588
  36   40005.4    250.0   0.024474040   0.20140  -0.34940  -0.06709   0.27353
  37   40109.8    249.3   0.001871235   0.01536  -0.08062   0.06359   0.06939

-----------------------------------------------------------------------------
         ABSORPTION SPECTRUM VIA TRANSITION VELOCITY DIPOLE MOMENTS
-----------------------------------------------------------------------------
State   Energy  Wavelength   fosc         P2         PX        PY        PZ  
        (cm-1)    (nm)                  (au**2)     (au)      (au)      (au) 
-----------------------------------------------------------------------------
   0   15556.1    642.8   2.963049072   0.31503  -0.16589  -0.53403   0.04809
   1   18936.7    528.1   0.226098175   0.02926  -0.11126   0.02179  -0.12810
   2   21182.1    472.1   0.075128254   0.01088   0.04855  -0.09202   0.00720
   3   22946.2    435.8   0.012985523   0.00204  -0.03049   0.01395  -0.03020
   4   25654.4    389.8   0.287656073   0.05044   0.17285   0.14074   0.02738
   5   25905.2    386.0   0.131294939   0.02325   0.02053   0.09939  -0.11378
   6   27263.4    366.8   0.110961249   0.02068   0.03647  -0.13576   0.03026
   7   28701.4    348.4   0.003186892   0.00063   0.01254  -0.00281   0.02145
   8   29579.8    338.1   0.157487014   0.03184   0.13881   0.09026   0.06649
   9   30165.1    331.5   0.090708522   0.01870  -0.05649  -0.05850   0.10994
  10   30840.3    324.3   0.062827998   0.01324  -0.05753  -0.09961   0.00335
  11   31844.3    314.0   0.023194431   0.00505  -0.01431  -0.04730  -0.05105
  12   32043.2    312.1   0.075871514   0.01662  -0.06896  -0.08417   0.06911
  13   32258.5    310.0   0.129465527   0.02854  -0.12949  -0.10098  -0.03973
  14   32354.5    309.1   0.054890374   0.01214   0.01302  -0.03526  -0.10356
  15   32487.7    307.8   0.058981317   0.01310  -0.00976  -0.10814   0.03614
  16   32808.8    304.8   0.048925503   0.01097   0.02855   0.09239   0.04025
  17   33126.1    301.9   0.043367255   0.00982  -0.07601   0.05478  -0.03224
  18   33328.1    300.0   0.009170392   0.00209  -0.03515   0.00125  -0.02918
  19   33734.1    296.4   0.015954286   0.00368  -0.00881  -0.05162  -0.03059
  20   34079.2    293.4   0.001953100   0.00045   0.01923  -0.00725  -0.00569
  21   34440.6    290.4   0.033074713   0.00779   0.08771  -0.00104  -0.00953
  22   34837.1    287.0   0.168400664   0.04010   0.16918   0.08895   0.05967
  23   35161.9    284.4   0.073420092   0.01764  -0.00021   0.09615  -0.09165
  24   35364.5    282.8   0.064123091   0.01550  -0.01559   0.00364   0.12346
  25   35592.6    281.0   0.046000286   0.01119   0.03964   0.09507  -0.02408
  26   36013.0    277.7   0.122545685   0.03016   0.00725   0.16970   0.03622
  27   36861.5    271.3   0.020584463   0.00519   0.02740   0.03995  -0.05328
  28   37082.7    269.7   0.039923413   0.01012   0.07365  -0.02458  -0.06395
  29   37466.8    266.9   0.091015390   0.02331   0.10321  -0.05127  -0.10013
  30   38010.0    263.1   0.058572560   0.01522  -0.10201  -0.06853  -0.01063
  31   38206.3    261.7   0.305635340   0.07981  -0.24447  -0.12443  -0.06754
  32   38528.1    259.6   0.297177052   0.07825   0.07163  -0.07021   0.26114
  33   39111.1    255.7   0.155912847   0.04168  -0.18227  -0.06272   0.06722
  34   39365.7    254.0   0.013460233   0.00362  -0.05701  -0.01359  -0.01367
  35   39490.0    253.2   0.052017732   0.01404   0.08590   0.03757   0.07245
  36   40005.4    250.0   0.018392767   0.00503  -0.05431  -0.01352   0.04355
  37   40109.8    249.3   0.002195996   0.00060  -0.01251   0.01684   0.01272

-------------------------------------------------------------------
                             CD SPECTRUM
-------------------------------------------------------------------
State   Energy Wavelength       R         MX        MY        MZ   
        (cm-1)   (nm)       (1e40*cgs)   (au)      (au)      (au)  
-------------------------------------------------------------------
   0   15556.1    642.8    710.59439  -1.17066   0.78901  -0.21134
   1   18936.7    528.1    -828.89880  -0.05344  -0.18326  -2.56197
   2   21182.1    472.1     67.71941   0.21394   0.44215   0.19788
   3   22946.2    435.8    -10.31418  -0.01484   0.09304  -0.09446
   4   25654.4    389.8    -212.12028   1.20197  -0.60641  -0.57067
   5   25905.2    386.0    192.99561   0.47821   0.42051   1.31100
   6   27263.4    366.8     86.46148   0.21060   0.45001   0.13824
   7   28701.4    348.4     93.39238   0.50677  -0.68270  -2.64093
   8   29579.8    338.1    -310.73356   1.68348  -0.72861   0.15870
   9   30165.1    331.5    282.03257   0.28774  -0.79385  -1.73516
  10   30840.3    324.3    -10.14738  -0.63677   0.25442  -0.33316
  11   31844.3    314.0      5.66475  -0.82781   0.46385  -0.12829
  12   32043.2    312.1    107.76609   0.13933  -0.37708  -1.11873
  13   32258.5    310.0    -286.17199  -1.77938   0.58862   0.08589
  14   32354.5    309.1    480.05803  -1.11718   1.13486   2.10807
  15   32487.7    307.8    -162.27698   1.73295  -1.18526  -0.90926
  16   32808.8    304.8    -96.45442   0.89360  -0.35409   1.67031
  17   33126.1    301.9    -28.80803  -0.17325   0.35651   0.61143
  18   33328.1    300.0    -63.42854  -0.38975   0.07098  -0.85441
  19   33734.1    296.4    -39.76289   0.34700  -0.28933  -0.28103
  20   34079.2    293.4      1.28305   0.34900   0.18502   1.32885
  21   34440.6    290.4    -53.09942   0.15309  -0.15331  -1.55948
  22   34837.1    287.0    -496.06783   2.11744  -0.61168   0.41819
  23   35161.9    284.4    173.63724  -0.33870   0.58114   1.85119
  24   35364.5    282.8     35.64403   1.49016  -1.21751   0.00350
  25   35592.6    281.0     15.04039  -0.54275   0.29939   0.86873
  26   36013.0    277.7    173.34241   0.76178  -0.69533   0.12014
  27   36861.5    271.3     45.80207  -1.18808   0.30998   0.16159
  28   37082.7    269.7    121.43392  -0.79309   0.55499   0.06887
  29   37466.8    266.9    231.35310  -0.20850   0.01534   1.28928
  30   38010.0    263.1    -204.61405  -1.27284   0.08845  -0.74741
  31   38206.3    261.7    -1529.92016  -4.00951   0.42977  -1.55745
  32   38528.1    259.6    2106.23068   3.64280  -2.33587  -7.02435
  33   39111.1    255.7    -349.79318  -2.11002  -0.45761  -2.72438
  34   39365.7    254.0    -22.11131  -0.29090   0.18973  -0.16401
  35   39490.0    253.2    -226.14381   1.92573  -0.25267  -0.16691
  36   40005.4    250.0     39.53174   0.51328  -0.24948  -0.01866
  37   40109.8    249.3     -1.61130   0.21566  -0.11320   0.45279

sTD-DFT done

Total run time:        9.291 sec

           *** ORCA-CIS/TD-DFT FINISHED WITHOUT ERROR ***

-------------------------   --------------------
FINAL SINGLE POINT ENERGY     -5325.726303404575
-------------------------   --------------------


                            ***************************************
                            *     ORCA property calculations      *
                            ***************************************

                                    ---------------------
                                    Active property flags
                                    ---------------------
   (+) Dipole Moment


------------------------------------------------------------------------------
                       ORCA ELECTRIC PROPERTIES CALCULATION
------------------------------------------------------------------------------

Dipole Moment Calculation                       ... on
Quadrupole Moment Calculation                   ... off
Polarizability Calculation                      ... off
GBWName                                         ... BTCIC.gbw
Electron density file                           ... BTCIC.scfp
The origin for moment calculation is the CENTER OF MASS  = (-2.126587,  0.012655 -0.517147)

-------------
DIPOLE MOMENT
-------------
                                X             Y             Z
Electronic contribution:    -20.00893      21.63406     -78.75838
Nuclear contribution   :     21.52158     -20.79905      78.61144
                        -----------------------------------------
Total Dipole Moment    :      1.51265       0.83501      -0.14694
                        -----------------------------------------
Magnitude (a.u.)       :      1.73406
Magnitude (Debye)      :      4.40763



--------------------
Rotational spectrum 
--------------------
 
Rotational constants in cm-1:     0.001418     0.000170     0.000167 
Rotational constants in MHz :    42.514128     5.106917     5.003133 

 Dipole components along the rotational axes: 
x,y,z [a.u.] :    -1.229886     1.034214     0.651720 
x,y,z [Debye]:    -3.126122     2.628763     1.656542 

 

Timings for individual modules:

Sum of individual times         ...     7604.804 sec (= 126.747 min)
GTO integral calculation        ...        5.417 sec (=   0.090 min)   0.1 %
SCF iterations                  ...     7590.015 sec (= 126.500 min)  99.8 %
CIS module                      ...        9.373 sec (=   0.156 min)   0.1 %
                             ****ORCA TERMINATED NORMALLY****
TOTAL RUN TIME: 0 days 2 hours 6 minutes 45 seconds 632 msec
