
                                 *****************
                                 * O   R   C   A *
                                 *****************

           --- An Ab Initio, DFT and Semiempirical electronic structure package ---

                  #######################################################
                  #                        -***-                        #
                  #          Department of theory and spectroscopy      #
                  #               Directorship: Frank Neese             #
                  #        Max Planck Institute fuer Kohlenforschung    #
                  #                Kaiser Wilhelm Platz 1               #
                  #                 D-45470 Muelheim/Ruhr               #
                  #                      Germany                        #
                  #                                                     #
                  #                  All rights reserved                #
                  #                        -***-                        #
                  #######################################################


                         Program Version 4.2.0 -  RELEASE  -


 With contributions from (in alphabetic order):
   Daniel Aravena         : Magnetic Suceptibility
   Michael Atanasov       : Ab Initio Ligand Field Theory (pilot matlab implementation)
   Alexander A. Auer      : GIAO ZORA, VPT2
   Ute Becker             : Parallelization
   Giovanni Bistoni       : ED, misc. LED, open-shell LED, HFLED
   Martin Brehm           : Molecular dynamics
   Dmytro Bykov           : SCF Hessian
   Vijay G. Chilkuri      : MRCI spin determinant printing, contributions to CSF-ICE
   Dipayan Datta          : RHF DLPNO-CCSD density
   Achintya Kumar Dutta   : EOM-CC, STEOM-CC
   Dmitry Ganyushin       : Spin-Orbit,Spin-Spin,Magnetic field MRCI
   Miquel Garcia          : C-PCM Hessian, Gaussian charge scheme
   Yang Guo               : DLPNO-NEVPT2, CIM, IAO-localization
   Andreas Hansen         : Spin unrestricted coupled pair/coupled cluster methods
   Benjamin Helmich-Paris : CASSCF linear response (MC-RPA)
   Lee Huntington         : MR-EOM, pCC
   Robert Izsak           : Overlap fitted RIJCOSX, COSX-SCS-MP3, EOM
   Christian Kollmar      : KDIIS, OOCD, Brueckner-CCSD(T), CCSD density
   Simone Kossmann        : Meta GGA functionals, TD-DFT gradient, OOMP2, MP2 Hessian
   Martin Krupicka        : AUTO-CI
   Lucas Lang             : DCDCAS
   Dagmar Lenk            : GEPOL surface, SMD
   Dimitrios Liakos       : Extrapolation schemes; Compound Job, initial MDCI parallelization
   Dimitrios Manganas     : Further ROCIS development; embedding schemes
   Dimitrios Pantazis     : SARC Basis sets
   Taras Petrenko         : DFT Hessian,TD-DFT gradient, ASA, ECA, R-Raman, ABS, FL, XAS/XES, NRVS
   Peter Pinski           : DLPNO-MP2, DLPNO-MP2 Gradient
   Christoph Reimann      : Effective Core Potentials
   Marius Retegan         : Local ZFS, SOC
   Christoph Riplinger    : Optimizer, TS searches, QM/MM, DLPNO-CCSD(T), (RO)-DLPNO pert. Triples
   Tobias Risthaus        : Range-separated hybrids, TD-DFT gradient, RPA, STAB
   Michael Roemelt        : Original ROCIS implementation
   Masaaki Saitow         : Open-shell DLPNO-CCSD energy and density
   Barbara Sandhoefer     : DKH picture change effects
   Avijit Sen             : IP-ROCIS
   Kantharuban Sivalingam : CASSCF convergence, NEVPT2, FIC-MRCI
   Bernardo de Souza      : ESD, SOC TD-DFT
   Georgi Stoychev        : AutoAux, RI-MP2 NMR
   Willem Van den Heuvel  : Paramagnetic NMR
   Boris Wezisla          : Elementary symmetry handling
   Frank Wennmohs         : Technical directorship


 We gratefully acknowledge several colleagues who have allowed us to
 interface, adapt or use parts of their codes:
   Stefan Grimme, W. Hujo, H. Kruse,             : VdW corrections, initial TS optimization,
                  C. Bannwarth                     DFT functionals, gCP, sTDA/sTD-DF
   Ed Valeev, F. Pavosevic, A. Kumar             : LibInt (2-el integral package), F12 methods
   Garnet Chan, S. Sharma, J. Yang, R. Olivares  : DMRG
   Ulf Ekstrom                                   : XCFun DFT Library
   Mihaly Kallay                                 : mrcc  (arbitrary order and MRCC methods)
   Andreas Klamt, Michael Diedenhofen            : otool_cosmo (COSMO solvation model)
   Jiri Pittner, Ondrej Demel                    : Mk-CCSD
   Frank Weinhold                                : gennbo (NPA and NBO analysis)
   Christopher J. Cramer and Donald G. Truhlar   : smd solvation model
   Lars Goerigk                                  : TD-DFT with DH, B97 family of functionals
   V. Asgeirsson, H. Jonsson                     : NEB implementation
   FAccTs GmbH                                   : IRC, NEB, NEB-TS, Multilevel, MM, QM/MM, CI optimization
   S Lehtola, MJT Oliveira, MAL Marques          : LibXC Library


 Your calculation uses the libint2 library for the computation of 2-el integrals
 For citations please refer to: http://libint.valeyev.net

 Your ORCA version has been built with support for libXC version: 4.2.3
 For citations please refer to: https://tddft.org/programs/libxc/

 This ORCA versions uses:
   CBLAS   interface :  Fast vector & matrix operations
   LAPACKE interface :  Fast linear algebra routines
   SCALAPACK package :  Parallel linear algebra routines


XCFun DFT library Copyright 2009-2010 Ulf Ekstrom and contributors.
See http://admol.org/xcfun for more information. This is free soft-
ware; see the source code for copying conditions. There is ABSOLUTELY
NO WARRANTY; not even for MERCHANTABILITY or FITNESS FOR A PARTICULAR
PURPOSE. For details see the documentation. Scientific users of this 
library should cite U. Ekstrom, L. Visscher, R. Bast, A. J. Thorvald-
sen and K. Ruud; J.Chem.Theor.Comp. 2010, DOI: 10.1021/ct100117s
XCFun Version 0.99 
----- Orbital basis set information -----
Your calculation utilizes the basis: def2-SVP
   F. Weigend and R. Ahlrichs, Phys. Chem. Chem. Phys. 7, 3297 (2005).

----- AuxJ basis set information -----
Your calculation utilizes the auxiliary basis: def2/J
   F. Weigend, Phys. Chem. Chem. Phys. 8, 1057 (2006).

================================================================================
                                        WARNINGS
                       Please study these warnings very carefully!
================================================================================

INFO   : Checking CIS options ...

WARNING: CIS/ROCIS methods need fully converged wavefunctions
  ===> : Setting SCFConvForced true
         You can overwrite this default with %scf ConvForced false 


INFO   : the flag for use of LIBINT has been found!

================================================================================
                                       INPUT FILE
================================================================================
NAME = BTCIC-4Cl.inp
|  1> # ORCA input file
|  2> # BTCIC-4Cl.out
|  3> ! CAM-B3LYP def2-SVP def2/J RIJCOSX Grid4 TightSCF
|  4> %maxcore 5000
|  5> %tddft
|  6>     Mode sTDDFT
|  7>     Ethresh 5.0
|  8>     maxcore 5000
|  9> end
| 10> * xyz 0 1
| 11>    S       -0.10483        -0.00560         2.81861
| 12>    N       -1.02735        -1.04763         2.01536
| 13>    C       -1.20572        -0.60748         0.77095
| 14>    C       -0.52644         0.64254         0.54531
| 15>    N        0.11733         1.05795         1.63482
| 16>    C       -1.97456        -1.21724        -0.25806
| 17>    C       -1.99874        -0.55196        -1.47753
| 18>    C       -1.31080         0.63255        -1.70672
| 19>    C       -0.56601         1.27651        -0.72653
| 20>    C        0.13359         2.49893        -0.97669
| 21>    C       -2.68944        -2.43630        -0.03722
| 22>    C       -2.56554        -3.30339         1.03566
| 23>    C       -3.41843        -4.39472         0.94209
| 24>    C       -4.23041        -4.34097        -0.19547
| 25>    S       -3.90019        -2.97759        -1.18364
| 26>    C       -3.73319        -5.61944         1.76635
| 27>    C       -4.91352        -6.16850         0.99880
| 28>    C       -5.14282        -5.41392        -0.16533
| 29>    C       -5.76686        -7.24343         1.12108
| 30>    C       -6.68822        -7.32006         0.07476
| 31>    S       -6.43207        -6.02126        -1.10258
| 32>    C        0.69167         3.35789        -0.04445
| 33>    C        1.30340         4.45790        -0.63030
| 34>    C        1.24519         4.41834        -2.02736
| 35>    S        0.38321         3.05805        -2.61898
| 36>    C        2.04781         5.68512        -0.16170
| 37>    C        2.50023         6.25226        -1.48709
| 38>    C        1.97556         5.50168        -2.55379
| 39>    C        3.24426         7.33441        -1.90413
| 40>    C        3.33754         7.41865        -3.29467
| 41>    S        2.41996         6.12199        -4.07933
| 42>    C       -7.73197        -8.20735        -0.21320
| 43>    C       -8.25463        -9.27108         0.48586
| 44>    C       -9.33954       -10.09595        -0.01663
| 45>    C       -9.71548       -11.03131         1.04249
| 46>    C       -8.86733       -10.82770         2.14193
| 47>    C       -7.91084        -9.74045         1.84187
| 48>    C      -10.69859       -12.00503         1.10844
| 49>    C      -10.81406       -12.75861         2.27175
| 50>    C       -9.96130       -12.54957         3.36040
| 51>    C       -8.97572       -11.57286         3.29777
| 52>    C       -9.90964       -10.06653        -1.26395
| 53>    O       -7.04533        -9.34619         2.59826
| 54>    C      -10.96207       -10.91448        -1.67110
| 55>    C       -9.54506        -9.22827        -2.33923
| 56>    N      -11.81925       -11.56382        -2.07287
| 57>    N       -9.31770        -8.60543        -3.27769
| 58>   Cl      -12.03217       -13.96661         2.36179
| 59>   Cl      -10.13067       -13.50114         4.78021
| 60>    C       -4.02597        -5.27330         3.23209
| 61>    C       -2.60560        -6.67549         1.63185
| 62>    C       -5.07547        -4.16603         3.42865
| 63>    C       -1.21784        -6.25557         2.14923
| 64>    C       -6.51648        -4.70388         3.34049
| 65>    C       -7.38282        -3.92206         2.35959
| 66>    C       -4.81737        -3.46397         4.76980
| 67>    C       -5.67408        -2.22022         4.97248
| 68>    C       -0.97512        -6.72061         3.59820
| 69>    C       -0.31625        -5.65625         4.47075
| 70>    C       -0.15119        -6.80447         1.18857
| 71>    C        1.26798        -6.35401         1.51216
| 72>    C        3.18816         5.34261         0.80594
| 73>    C        4.15394         4.25986         0.29449
| 74>    C        5.23870         4.83733        -0.63473
| 75>    C        5.35229         4.08456        -1.95548
| 76>    C        4.77170         3.53199         1.49732
| 77>    C        5.59752         2.31285         1.10536
| 78>    C        1.06521         6.72131         0.44164
| 79>    C        0.33357         6.28931         1.72575
| 80>    C        1.04221         6.80656         2.99265
| 81>    C        1.11619         5.77120         4.11105
| 82>    C       -1.12232         6.77474         1.64607
| 83>    C       -1.99751         6.31315         2.80483
| 84>    C        4.00216         8.30165        -4.15386
| 85>    C        4.85282         9.35569        -3.91182
| 86>    C        5.44678        10.15543        -4.96923
| 87>    C        6.39884        11.07633        -4.34994
| 88>    C        6.35633        10.89584        -2.95885
| 89>    C        5.38285         9.83526        -2.62099
| 90>    C        7.25803        12.01869        -4.89098
| 91>    C        8.05593        12.76559        -4.03073
| 92>    C        8.00082        12.58201        -2.64534
| 93>    C        7.14234        11.63598        -2.10018
| 94>    O        5.11706         9.46862        -1.49331
| 95>    C        5.16702        10.11563        -6.31150
| 96>    C        5.79632        10.93503        -7.27326
| 97>    C        4.21467         9.29371        -6.95130
| 98>    N        3.45926         8.68266        -7.56468
| 99>    N        6.26642        11.56294        -8.11147
|100>   Cl        8.99753        13.52548        -1.61269
|101>   Cl        9.12700        13.93324        -4.69455
|102>    H       -2.57158        -0.98165        -2.28630
|103>    H       -1.36564         1.08046        -2.68817
|104>    H       -1.88562        -3.09620         1.84056
|105>    H       -5.76439        -7.95749         1.92384
|106>    H        0.64816         3.14027         1.00614
|107>    H        3.72647         8.04861        -1.26246
|108>    H       -8.21302        -7.99368        -1.16024
|109>    H      -11.37634       -12.19614         0.29317
|110>    H       -8.31056       -11.39901         4.12874
|111>    H       -3.08750        -4.93987         3.67351
|112>    H       -4.34342        -6.17648         3.75568
|113>    H       -2.52893        -6.91550         0.56814
|114>    H       -2.93272        -7.58366         2.14066
|115>    H       -4.93257        -3.42007         2.63956
|116>    H       -1.14853        -5.16603         2.11869
|117>    H       -6.97933        -4.67205         4.32846
|118>    H       -6.50520        -5.74966         3.03270
|119>    H       -7.45151        -2.87596         2.64753
|120>    H       -8.38858        -4.33593         2.32903
|121>    H       -6.96511        -3.97074         1.35584
|122>    H       -3.76692        -3.16504         4.81425
|123>    H       -4.99507        -4.16921         5.58501
|124>    H       -5.50747        -1.51062         4.16446
|125>    H       -5.41537        -1.73579         5.91154
|126>    H       -6.73139        -2.46826         5.00118
|127>    H       -0.35107        -7.61630         3.59015
|128>    H       -1.92253        -7.00005         4.06081
|129>    H        0.64398        -5.35064         4.06554
|130>    H       -0.15606        -6.04080         5.47572
|131>    H       -0.94828        -4.77293         4.54501
|132>    H       -0.39278        -6.46763         0.17693
|133>    H       -0.19484        -7.89629         1.19232
|134>    H        1.32424        -5.26789         1.54734
|135>    H        1.95232        -6.70505         0.74280
|136>    H        1.60269        -6.75321         2.46537
|137>    H        2.72858         4.98778         1.72769
|138>    H        3.74557         6.25195         1.03594
|139>    H        3.57017         3.52239        -0.26672
|140>    H        6.20444         4.81467        -0.12658
|141>    H        5.02320         5.88348        -0.85297
|142>    H        5.60162         3.03954        -1.78955
|143>    H        6.12701         4.52708        -2.57822
|144>    H        4.41231         4.12616        -2.50236
|145>    H        3.96704         3.20018         2.15858
|146>    H        5.39443         4.23185         2.05950
|147>    H        4.98819         1.60821         0.54292
|148>    H        5.96802         1.80952         1.99577
|149>    H        6.45242         2.59294         0.49630
|150>    H        0.32607         6.93935        -0.33362
|151>    H        1.61864         7.64414         0.62253
|152>    H        0.30801         5.19802         1.76424
|153>    H        0.52427         7.69546         3.35790
|154>    H        2.06025         7.11194         2.74738
|155>    H        0.12686         5.43625         4.40851
|156>    H        1.60922         6.19598         4.98281
|157>    H        1.68692         4.90041         3.79302
|158>    H       -1.55980         6.39803         0.71759
|159>    H       -1.13236         7.86631         1.59708
|160>    H       -1.97238         5.22893         2.89367
|161>    H       -3.02821         6.61619         2.63353
|162>    H       -1.67230         6.74957         3.74492
|163>    H        3.81642         8.08655        -5.19941
|164>    H        7.33151        12.19007        -5.95199
|165>    H        7.08905        11.48095        -1.03420
|166> *
|167> 
|168>                          ****END OF INPUT****
================================================================================

                       ****************************
                       * Single Point Calculation *
                       ****************************

---------------------------------
CARTESIAN COORDINATES (ANGSTROEM)
---------------------------------
  S     -0.104830   -0.005600    2.818610
  N     -1.027350   -1.047630    2.015360
  C     -1.205720   -0.607480    0.770950
  C     -0.526440    0.642540    0.545310
  N      0.117330    1.057950    1.634820
  C     -1.974560   -1.217240   -0.258060
  C     -1.998740   -0.551960   -1.477530
  C     -1.310800    0.632550   -1.706720
  C     -0.566010    1.276510   -0.726530
  C      0.133590    2.498930   -0.976690
  C     -2.689440   -2.436300   -0.037220
  C     -2.565540   -3.303390    1.035660
  C     -3.418430   -4.394720    0.942090
  C     -4.230410   -4.340970   -0.195470
  S     -3.900190   -2.977590   -1.183640
  C     -3.733190   -5.619440    1.766350
  C     -4.913520   -6.168500    0.998800
  C     -5.142820   -5.413920   -0.165330
  C     -5.766860   -7.243430    1.121080
  C     -6.688220   -7.320060    0.074760
  S     -6.432070   -6.021260   -1.102580
  C      0.691670    3.357890   -0.044450
  C      1.303400    4.457900   -0.630300
  C      1.245190    4.418340   -2.027360
  S      0.383210    3.058050   -2.618980
  C      2.047810    5.685120   -0.161700
  C      2.500230    6.252260   -1.487090
  C      1.975560    5.501680   -2.553790
  C      3.244260    7.334410   -1.904130
  C      3.337540    7.418650   -3.294670
  S      2.419960    6.121990   -4.079330
  C     -7.731970   -8.207350   -0.213200
  C     -8.254630   -9.271080    0.485860
  C     -9.339540  -10.095950   -0.016630
  C     -9.715480  -11.031310    1.042490
  C     -8.867330  -10.827700    2.141930
  C     -7.910840   -9.740450    1.841870
  C    -10.698590  -12.005030    1.108440
  C    -10.814060  -12.758610    2.271750
  C     -9.961300  -12.549570    3.360400
  C     -8.975720  -11.572860    3.297770
  C     -9.909640  -10.066530   -1.263950
  O     -7.045330   -9.346190    2.598260
  C    -10.962070  -10.914480   -1.671100
  C     -9.545060   -9.228270   -2.339230
  N    -11.819250  -11.563820   -2.072870
  N     -9.317700   -8.605430   -3.277690
  Cl   -12.032170  -13.966610    2.361790
  Cl   -10.130670  -13.501140    4.780210
  C     -4.025970   -5.273300    3.232090
  C     -2.605600   -6.675490    1.631850
  C     -5.075470   -4.166030    3.428650
  C     -1.217840   -6.255570    2.149230
  C     -6.516480   -4.703880    3.340490
  C     -7.382820   -3.922060    2.359590
  C     -4.817370   -3.463970    4.769800
  C     -5.674080   -2.220220    4.972480
  C     -0.975120   -6.720610    3.598200
  C     -0.316250   -5.656250    4.470750
  C     -0.151190   -6.804470    1.188570
  C      1.267980   -6.354010    1.512160
  C      3.188160    5.342610    0.805940
  C      4.153940    4.259860    0.294490
  C      5.238700    4.837330   -0.634730
  C      5.352290    4.084560   -1.955480
  C      4.771700    3.531990    1.497320
  C      5.597520    2.312850    1.105360
  C      1.065210    6.721310    0.441640
  C      0.333570    6.289310    1.725750
  C      1.042210    6.806560    2.992650
  C      1.116190    5.771200    4.111050
  C     -1.122320    6.774740    1.646070
  C     -1.997510    6.313150    2.804830
  C      4.002160    8.301650   -4.153860
  C      4.852820    9.355690   -3.911820
  C      5.446780   10.155430   -4.969230
  C      6.398840   11.076330   -4.349940
  C      6.356330   10.895840   -2.958850
  C      5.382850    9.835260   -2.620990
  C      7.258030   12.018690   -4.890980
  C      8.055930   12.765590   -4.030730
  C      8.000820   12.582010   -2.645340
  C      7.142340   11.635980   -2.100180
  O      5.117060    9.468620   -1.493310
  C      5.167020   10.115630   -6.311500
  C      5.796320   10.935030   -7.273260
  C      4.214670    9.293710   -6.951300
  N      3.459260    8.682660   -7.564680
  N      6.266420   11.562940   -8.111470
  Cl     8.997530   13.525480   -1.612690
  Cl     9.127000   13.933240   -4.694550
  H     -2.571580   -0.981650   -2.286300
  H     -1.365640    1.080460   -2.688170
  H     -1.885620   -3.096200    1.840560
  H     -5.764390   -7.957490    1.923840
  H      0.648160    3.140270    1.006140
  H      3.726470    8.048610   -1.262460
  H     -8.213020   -7.993680   -1.160240
  H    -11.376340  -12.196140    0.293170
  H     -8.310560  -11.399010    4.128740
  H     -3.087500   -4.939870    3.673510
  H     -4.343420   -6.176480    3.755680
  H     -2.528930   -6.915500    0.568140
  H     -2.932720   -7.583660    2.140660
  H     -4.932570   -3.420070    2.639560
  H     -1.148530   -5.166030    2.118690
  H     -6.979330   -4.672050    4.328460
  H     -6.505200   -5.749660    3.032700
  H     -7.451510   -2.875960    2.647530
  H     -8.388580   -4.335930    2.329030
  H     -6.965110   -3.970740    1.355840
  H     -3.766920   -3.165040    4.814250
  H     -4.995070   -4.169210    5.585010
  H     -5.507470   -1.510620    4.164460
  H     -5.415370   -1.735790    5.911540
  H     -6.731390   -2.468260    5.001180
  H     -0.351070   -7.616300    3.590150
  H     -1.922530   -7.000050    4.060810
  H      0.643980   -5.350640    4.065540
  H     -0.156060   -6.040800    5.475720
  H     -0.948280   -4.772930    4.545010
  H     -0.392780   -6.467630    0.176930
  H     -0.194840   -7.896290    1.192320
  H      1.324240   -5.267890    1.547340
  H      1.952320   -6.705050    0.742800
  H      1.602690   -6.753210    2.465370
  H      2.728580    4.987780    1.727690
  H      3.745570    6.251950    1.035940
  H      3.570170    3.522390   -0.266720
  H      6.204440    4.814670   -0.126580
  H      5.023200    5.883480   -0.852970
  H      5.601620    3.039540   -1.789550
  H      6.127010    4.527080   -2.578220
  H      4.412310    4.126160   -2.502360
  H      3.967040    3.200180    2.158580
  H      5.394430    4.231850    2.059500
  H      4.988190    1.608210    0.542920
  H      5.968020    1.809520    1.995770
  H      6.452420    2.592940    0.496300
  H      0.326070    6.939350   -0.333620
  H      1.618640    7.644140    0.622530
  H      0.308010    5.198020    1.764240
  H      0.524270    7.695460    3.357900
  H      2.060250    7.111940    2.747380
  H      0.126860    5.436250    4.408510
  H      1.609220    6.195980    4.982810
  H      1.686920    4.900410    3.793020
  H     -1.559800    6.398030    0.717590
  H     -1.132360    7.866310    1.597080
  H     -1.972380    5.228930    2.893670
  H     -3.028210    6.616190    2.633530
  H     -1.672300    6.749570    3.744920
  H      3.816420    8.086550   -5.199410
  H      7.331510   12.190070   -5.951990
  H      7.089050   11.480950   -1.034200

----------------------------
CARTESIAN COORDINATES (A.U.)
----------------------------
  NO LB      ZA    FRAG     MASS         X           Y           Z
   0 S    16.0000    0    32.060   -0.198100   -0.010582    5.326401
   1 N     7.0000    0    14.007   -1.941410   -1.979734    3.808478
   2 C     6.0000    0    12.011   -2.278481   -1.147971    1.456884
   3 C     6.0000    0    12.011   -0.994827    1.214225    1.030487
   4 N     7.0000    0    14.007    0.221722    1.999236    3.089362
   5 C     6.0000    0    12.011   -3.731378   -2.300250   -0.487663
   6 C     6.0000    0    12.011   -3.777071   -1.043053   -2.792127
   7 C     6.0000    0    12.011   -2.477053    1.195346   -3.225233
   8 C     6.0000    0    12.011   -1.069604    2.412254   -1.372943
   9 C     6.0000    0    12.011    0.252449    4.722293   -1.845677
  10 C     6.0000    0    12.011   -5.082305   -4.603940   -0.070336
  11 C     6.0000    0    12.011   -4.848168   -6.242502    1.957114
  12 C     6.0000    0    12.011   -6.459897   -8.304817    1.780292
  13 C     6.0000    0    12.011   -7.994316   -8.203244   -0.369385
  14 S    16.0000    0    32.060   -7.370291   -5.626830   -2.236755
  15 C     6.0000    0    12.011   -7.054707  -10.619203    3.337918
  16 C     6.0000    0    12.011   -9.285207  -11.656776    1.887458
  17 C     6.0000    0    12.011   -9.718521  -10.230826   -0.312428
  18 C     6.0000    0    12.011  -10.897786  -13.688099    2.118534
  19 C     6.0000    0    12.011  -12.638904  -13.832909    0.141276
  20 S    16.0000    0    32.060  -12.154851  -11.378532   -2.083574
  21 C     6.0000    0    12.011    1.307067    6.345492   -0.083998
  22 C     6.0000    0    12.011    2.463069    8.424210   -1.191094
  23 C     6.0000    0    12.011    2.353068    8.349453   -3.831155
  24 S    16.0000    0    32.060    0.724162    5.778877   -4.949155
  25 C     6.0000    0    12.011    3.869800   10.743320   -0.305569
  26 C     6.0000    0    12.011    4.724750   11.815059   -2.810193
  27 C     6.0000    0    12.011    3.733267   10.396668   -4.825964
  28 C     6.0000    0    12.011    6.130763   13.860026   -3.598284
  29 C     6.0000    0    12.011    6.307037   14.019217   -6.226024
  30 S    16.0000    0    32.060    4.573062   11.568884   -7.708817
  31 C     6.0000    0    12.011  -14.611306  -15.509644   -0.402890
  32 C     6.0000    0    12.011  -15.598990  -17.519802    0.918142
  33 C     6.0000    0    12.011  -17.649173  -19.078581   -0.031426
  34 C     6.0000    0    12.011  -18.359596  -20.846155    1.970021
  35 C     6.0000    0    12.011  -16.756825  -20.461388    4.047661
  36 C     6.0000    0    12.011  -14.949321  -18.406783    3.480630
  37 C     6.0000    0    12.011  -20.217405  -22.686219    2.094648
  38 C     6.0000    0    12.011  -20.435612  -24.110279    4.292985
  39 C     6.0000    0    12.011  -18.824129  -23.715250    6.350236
  40 C     6.0000    0    12.011  -16.961653  -21.869536    6.231882
  41 C     6.0000    0    12.011  -18.726506  -19.022985   -2.388519
  42 O     8.0000    0    15.999  -13.313744  -17.661739    4.910000
  43 C     6.0000    0    12.011  -20.715310  -20.625378   -3.157921
  44 C     6.0000    0    12.011  -18.037549  -17.438903   -4.420504
  45 N     7.0000    0    14.007  -22.335146  -21.852453   -3.917157
  46 N     7.0000    0    14.007  -17.607901  -16.261906   -6.193936
  47 Cl   17.0000    0    35.453  -22.737506  -26.393068    4.463136
  48 Cl   17.0000    0    35.453  -19.144192  -25.513457    9.033288
  49 C     6.0000    0    12.011   -7.607981   -9.965093    6.107765
  50 C     6.0000    0    12.011   -4.923870  -12.614848    3.083750
  51 C     6.0000    0    12.011   -9.591248   -7.872656    6.479210
  52 C     6.0000    0    12.011   -2.301384  -11.821314    4.061456
  53 C     6.0000    0    12.011  -12.314363   -8.889045    6.312611
  54 C     6.0000    0    12.011  -13.951508   -7.411619    4.458979
  55 C     6.0000    0    12.011   -9.103510   -6.545955    9.013616
  56 C     6.0000    0    12.011  -10.722457   -4.195608    9.396625
  57 C     6.0000    0    12.011   -1.842710  -12.700112    6.799613
  58 C     6.0000    0    12.011   -0.597626  -10.688763    8.448493
  59 C     6.0000    0    12.011   -0.285708  -12.858585    2.246072
  60 C     6.0000    0    12.011    2.396135  -12.007339    2.857568
  61 C     6.0000    0    12.011    6.024749   10.096070    1.523006
  62 C     6.0000    0    12.011    7.849809    8.049969    0.556505
  63 C     6.0000    0    12.011    9.899708    9.141229   -1.199466
  64 C     6.0000    0    12.011   10.114362    7.718700   -3.695322
  65 C     6.0000    0    12.011    9.017206    6.674494    2.829525
  66 C     6.0000    0    12.011   10.577780    4.370653    2.088828
  67 C     6.0000    0    12.011    2.012955   12.701435    0.834579
  68 C     6.0000    0    12.011    0.630356   11.885073    3.261195
  69 C     6.0000    0    12.011    1.969491   12.862534    5.655289
  70 C     6.0000    0    12.011    2.109293   10.905987    7.768759
  71 C     6.0000    0    12.011   -2.120877   12.802403    3.110621
  72 C     6.0000    0    12.011   -3.774747   11.930125    5.300361
  73 C     6.0000    0    12.011    7.562986   15.687845   -7.849658
  74 C     6.0000    0    12.011    9.170501   17.679692   -7.392268
  75 C     6.0000    0    12.011   10.292923   19.190981   -9.390484
  76 C     6.0000    0    12.011   12.092055   20.931230   -8.220195
  77 C     6.0000    0    12.011   12.011723   20.590154   -5.591416
  78 C     6.0000    0    12.011   10.172112   18.585948   -4.952953
  79 C     6.0000    0    12.011   13.715689   22.712033   -9.242613
  80 C     6.0000    0    12.011   15.223501   24.123469   -7.616976
  81 C     6.0000    0    12.011   15.119359   23.776553   -4.998968
  82 C     6.0000    0    12.011   13.497067   21.988815   -3.968765
  83 O     8.0000    0    15.999    9.669842   17.893099   -2.821947
  84 C     6.0000    0    12.011    9.764253   19.115770  -11.927006
  85 C     6.0000    0    12.011   10.953457   20.664212  -13.744470
  86 C     6.0000    0    12.011    7.964572   17.562567  -13.136053
  87 N     7.0000    0    14.007    6.537054   16.407850  -14.295173
  88 N     7.0000    0    14.007   11.841818   21.850790  -15.328457
  89 Cl   17.0000    0    35.453   17.002868   25.559453   -3.047542
  90 Cl   17.0000    0    35.453   17.247530   26.330008   -8.871414
  91 H     1.0000    0     1.008   -4.859582   -1.855050   -4.320481
  92 H     1.0000    0     1.008   -2.580686    2.041773   -5.079905
  93 H     1.0000    0     1.008   -3.563305   -5.850970    3.478154
  94 H     1.0000    0     1.008  -10.893118  -15.037477    3.635531
  95 H     1.0000    0     1.008    1.224845    5.934250    1.901329
  96 H     1.0000    0     1.008    7.042008   15.209669   -2.385704
  97 H     1.0000    0     1.008  -15.520359  -15.105866   -2.192536
  98 H     1.0000    0     1.008  -21.498167  -23.047364    0.554011
  99 H     1.0000    0     1.008  -15.704682  -21.541007    7.802188
 100 H     1.0000    0     1.008   -5.834529   -9.335001    6.941928
 101 H     1.0000    0     1.008   -8.207874  -11.671856    7.097207
 102 H     1.0000    0     1.008   -4.778985  -13.068401    1.073629
 103 H     1.0000    0     1.008   -5.542038  -14.331040    4.045261
 104 H     1.0000    0     1.008   -9.321206   -6.462996    4.988046
 105 H     1.0000    0     1.008   -2.170407   -9.762382    4.003744
 106 H     1.0000    0     1.008  -13.189022   -8.828895    8.179604
 107 H     1.0000    0     1.008  -12.293046  -10.865283    5.730972
 108 H     1.0000    0     1.008  -14.081313   -5.434777    5.003107
 109 H     1.0000    0     1.008  -15.852119   -8.193720    4.401229
 110 H     1.0000    0     1.008  -13.162150   -7.503611    2.562166
 111 H     1.0000    0     1.008   -7.118447   -5.981059    9.097614
 112 H     1.0000    0     1.008   -9.439314   -7.878665   10.554139
 113 H     1.0000    0     1.008  -10.407610   -2.854658    7.869689
 114 H     1.0000    0     1.008  -10.233566   -3.280168   11.171192
 115 H     1.0000    0     1.008  -12.720484   -4.664335    9.450861
 116 H     1.0000    0     1.008   -0.663426  -14.392721    6.784400
 117 H     1.0000    0     1.008   -3.633055  -13.228177    7.673819
 118 H     1.0000    0     1.008    1.216946  -10.111244    7.682757
 119 H     1.0000    0     1.008   -0.294911  -11.415458   10.347611
 120 H     1.0000    0     1.008   -1.791989   -9.019531    8.588824
 121 H     1.0000    0     1.008   -0.742247  -12.222049    0.334349
 122 H     1.0000    0     1.008   -0.368194  -14.921826    2.253158
 123 H     1.0000    0     1.008    2.502451   -9.954869    2.924049
 124 H     1.0000    0     1.008    3.689350  -12.670708    1.403689
 125 H     1.0000    0     1.008    3.028645  -12.761717    4.658874
 126 H     1.0000    0     1.008    5.156269    9.425538    3.264861
 127 H     1.0000    0     1.008    7.078102   11.814473    1.957643
 128 H     1.0000    0     1.008    6.746644    6.656352   -0.504028
 129 H     1.0000    0     1.008   11.724692    9.098408   -0.239202
 130 H     1.0000    0     1.008    9.492472   11.118166   -1.611880
 131 H     1.0000    0     1.008   10.585528    5.743898   -3.381759
 132 H     1.0000    0     1.008   11.578371    8.554941   -4.872130
 133 H     1.0000    0     1.008    8.338058    7.797312   -4.728775
 134 H     1.0000    0     1.008    7.496619    6.047464    4.079125
 135 H     1.0000    0     1.008   10.193995    7.997038    3.891891
 136 H     1.0000    0     1.008    9.426313    3.039076    1.025970
 137 H     1.0000    0     1.008   11.277923    3.419497    3.771459
 138 H     1.0000    0     1.008   12.193307    4.899946    0.937871
 139 H     1.0000    0     1.008    0.616183   13.113471   -0.630450
 140 H     1.0000    0     1.008    3.058786   14.445331    1.176411
 141 H     1.0000    0     1.008    0.582055    9.822834    3.333930
 142 H     1.0000    0     1.008    0.990727   14.542312    6.345511
 143 H     1.0000    0     1.008    3.893308   13.439619    5.191796
 144 H     1.0000    0     1.008    0.239731   10.273024    8.330877
 145 H     1.0000    0     1.008    3.040985   11.708705    9.416146
 146 H     1.0000    0     1.008    3.187817    9.260433    7.167769
 147 H     1.0000    0     1.008   -2.947595   12.090524    1.356049
 148 H     1.0000    0     1.008   -2.139850   14.865172    3.018044
 149 H     1.0000    0     1.008   -3.727258    9.881246    5.468244
 150 H     1.0000    0     1.008   -5.722488   12.502787    4.976650
 151 H     1.0000    0     1.008   -3.160189   12.754839    7.076873
 152 H     1.0000    0     1.008    7.211989   15.281365   -9.825461
 153 H     1.0000    0     1.008   13.854546   23.035894  -11.247631
 154 H     1.0000    0     1.008   13.396363   21.695851   -1.954355

--------------------------------
INTERNAL COORDINATES (ANGSTROEM)
--------------------------------
 S      0   0   0     0.000000000000     0.00000000     0.00000000
 N      1   0   0     1.606885258443     0.00000000     0.00000000
 C      2   1   0     1.331955002055   109.24535571     0.00000000
 C      3   2   1     1.440446017177   111.71357192   359.97104263
 N      4   3   2     1.331929923494   111.74332223     0.02428193
 C      3   2   1     1.421894434654   127.36016625   181.18091344
 C      6   3   2     1.389348491812   116.05716285   180.04906598
 C      7   6   3     1.388831681594   122.99883005     0.60984716
 C      8   7   6     1.389305244286   122.98623009   358.23111178
 C      9   8   7     1.430500206921   122.33642384   180.22159105
 C      6   3   2     1.430360445342   121.60072652     0.69964186
 C     11   6   3     1.385015441250   127.47798904   347.27829624
 C     12  11   6     1.388228319082   112.64285488   179.62574281
 C     13  12  11     1.398657690967   112.41290971   358.24971131
 S     14  13  12     1.715905073627   112.78003256     2.28828162
 C     13  12  11     1.509442772549   136.81538583   180.26942297
 C     16  13  12     1.511217653086   100.38782076   173.08149845
 C     17  16  13     1.406118104321   110.66401474     4.77818193
 C     17  16  13     1.377902775561   136.22539250   181.03140658
 C     19  17  16     1.396267148113   112.64218730   182.36224631
 S     18  17  16     1.705715392614   112.77376281   177.99086351
 C     10   9   8     1.385040427424   127.53989125   166.86008498
 C     22  10   9     1.388328424941   112.63705835   179.85220860
 C     23  22  10     1.398831670109   112.37732414   358.25093551
 S     24  23  22     1.715637674132   112.81355665     2.26345439
 C     23  22  10     1.509901035333   136.90834505   179.85706258
 C     26  23  22     1.510956745939   100.39689167   173.55576975
 C     27  26  23     1.405879737140   110.69650566     4.56872454
 C     27  26  23     1.377879394214   136.21753616   181.48246686
 C     29  27  26     1.396208805158   112.63755777   181.52725585
 S     28  27  26     1.705739765527   112.78057187   178.46209341
 C     20  19  17     1.399863767729   132.91740402   180.79149299
 C     32  20  19     1.376001407012   131.96690546     4.29999839
 C     33  32  20     1.452562021086   123.15813801   181.50100442
 C     34  33  32     1.462177960304   107.74183416   185.62343738
 C     35  34  33     1.403418600490   108.61817781   358.03100093
 C     33  32  20     1.475555109476   128.62983736     5.03951629
 C     35  34  33     1.385274454034   131.80549124   178.22693812
 C     38  35  34     1.390865303831   118.65779401   179.68552460
 C     39  38  35     1.398590777068   121.29467776   359.94419509
 C     36  35  34     1.379484658595   122.04199098   180.35378855
 C     34  33  32     1.371745868884   127.79126193     7.54649226
 O     37  33  32     1.215184899429   129.40225692   355.06580328
 C     42  34  33     1.411523726297   124.00541497   179.66908425
 C     42  34  33     1.411320474733   126.73864332     0.84474102
 N     44  42  34     1.147963031156   175.93990535   176.24782286
 N     45  42  34     1.149055876274   174.45589439   171.97908236
 Cl    39  38  35     1.717894983315   118.92707601   179.92111597
 Cl    40  39  38     1.717565747766   120.03421786   180.12360316
 C     16  13  12     1.534251210070   112.23617681    50.79109415
 C     16  13  12     1.550738875698   110.70485546   284.78151837
 C     50  16  13     1.538223955248   114.49903262    51.10028180
 C     51  16  13     1.539445578252   116.14071107    62.97598552
 C     52  50  16     1.540637734252   112.30557874    82.33226974
 C     54  52  50     1.524451481025   112.91249137   231.80633388
 C     52  50  16     1.535639012301   109.02738637   206.44623271
 C     56  52  50     1.523793053206   113.25520977   171.67861557
 C     53  51  16     1.541002680368   112.06644602    95.03175130
 C     58  53  51     1.525881839790   113.27794907   222.93801516
 C     53  51  16     1.536847769982   108.55171576   218.94341824
 C     60  53  51     1.523702132505   114.08535253   174.69935753
 C     26  23  22     1.534287584581   112.37840701    51.46594673
 C     62  26  23     1.538395161654   114.45900930    51.55390954
 C     63  62  26     1.540657543681   112.25478409    83.35035833
 C     64  63  62     1.524449383712   112.94940963   231.14331738
 C     63  62  26     1.535650404031   109.01025500   207.42044442
 C     66  63  62     1.523782679256   113.31325757   172.05851099
 C     26  23  22     1.550229541616   110.58294056   285.47559214
 C     68  26  23     1.539759585682   115.99056778    64.85608243
 C     69  68  26     1.541023628015   111.89713670    96.15438380
 C     70  69  68     1.525864322278   113.39828559   222.23363808
 C     69  68  26     1.536752055278   108.55997140   220.08327205
 C     72  69  68     1.523728191575   114.14389367   175.12712504
 C     30  29  27     1.399862922039   132.92594340   182.03629856
 C     74  30  29     1.375938268528   131.97180470     3.90282022
 C     75  74  30     1.452752028840   123.12322964   179.82955308
 C     76  75  74     1.462188482276   107.73671134   186.18224863
 C     77  76  75     1.403394145741   108.60853716   357.60101515
 C     75  74  30     1.475520679184   128.67867789     3.48672818
 C     77  76  75     1.385270409451   131.82580584   177.72587414
 C     80  77  76     1.390875293655   118.65599327   179.68599706
 C     81  80  77     1.398586493786   121.30324517   359.86812984
 C     78  77  76     1.379468415224   122.05569136   180.47590577
 O     79  75  74     1.215208375588   129.43407547   354.39893298
 C     76  75  74     1.371691820527   127.79915309     7.97120965
 C     85  76  75     1.411530073218   123.98486728   179.96252416
 C     85  76  75     1.411335200758   126.73594521     1.15678566
 N     87  85  76     1.149026281249   174.46107107   171.77008183
 N     86  85  76     1.147981263871   176.01899950   176.92943867
 Cl    82  81  80     1.717536749971   120.03939911   180.17735238
 Cl    81  80  77     1.717921552283   118.92496572   179.83907549
 H      7   6   3     1.080225936830   118.41893092   180.01113477
 H      8   7   6     1.080219836978   118.58309808   178.94753460
 H     12  11   6     1.073816982777   121.09707683     1.03089478
 H     19  17  16     1.074388850510   125.68769918     3.16644260
 H     22  10   9     1.073774153442   121.09973328     1.11022984
 H     29  27  26     1.074406121073   125.70822493     2.34468774
 H     32  20  19     1.083489147615   112.69591642   183.43887952
 H     38  35  34     1.077280496203   122.35424050   359.51455868
 H     41  36  35     1.078504885942   120.66639627   179.86865444
 H     50  16  13     1.089381990947   106.96377306   290.98883158
 H     50  16  13     1.091171436118   109.09845829   174.36809249
 H     51  16  13     1.093143198808   106.55383019   301.50639420
 H     51  16  13     1.091177281380   107.96025403   186.88546437
 H     52  50  16     1.095235024869   108.01058300   322.63116207
 H     53  51  16     1.092169391303   108.65850755   335.14333114
 H     54  52  50     1.091479726014   109.55173525   110.05476753
 H     54  52  50     1.090191602839   109.96004444   353.05188795
 H     55  54  52     1.087176604651   111.03666641   300.14453508
 H     55  54  52     1.088014461347   110.38467535   179.94493035
 H     55  54  52     1.088285554898   110.63400756    60.24529695
 H     56  52  50     1.093059993733   108.78789953    51.37876099
 H     56  52  50     1.092477959366   109.22206197   294.18368538
 H     57  56  52     1.088203736669   110.32841811   302.41302923
 H     57  56  52     1.087858893699   110.15610399   182.88257365
 H     57  56  52     1.086394020464   111.36631411    62.97811696
 H     58  53  51     1.091679339870   109.31150734   100.86083679
 H     58  53  51     1.090724728701   109.83440208   343.95954916
 H     59  58  53     1.086109694782   111.38806689   301.00413117
 H     59  58  53     1.087889810367   110.19776807   180.78416401
 H     59  58  53     1.088683007537   110.74968952    61.32685653
 H     60  53  51     1.093271422521   108.36075028    54.19676589
 H     60  53  51     1.092698630639   109.08691144   297.33878130
 H     61  60  53     1.088144969386   110.49384233   304.44557182
 H     61  60  53     1.087871833811   109.89623141   185.10639008
 H     61  60  53     1.086278384301   111.38902544    65.52060113
 H     62  26  23     1.089376504153   107.02502036   291.32992226
 H     62  26  23     1.091102719133   109.06224559   174.75938722
 H     63  62  26     1.095265300236   108.03771283   323.66057948
 H     64  63  62     1.091505220189   109.53564114   109.32490326
 H     64  63  62     1.090182906718   109.95248439   352.32854008
 H     65  64  63     1.087090159186   111.07173952   300.11107549
 H     65  64  63     1.088034988592   110.37081380   179.89950423
 H     65  64  63     1.088287965017   110.61788976    60.22256414
 H     66  63  62     1.093087544207   108.75875064    51.74006879
 H     66  63  62     1.092539713191   109.19054627   294.56207660
 H     67  66  63     1.088181663189   110.33831036   302.34706410
 H     67  66  63     1.087860885867   110.13382032   182.82604141
 H     67  66  63     1.086397027656   111.37110751    62.94570561
 H     68  26  23     1.093113648620   106.61211988   303.24952616
 H     68  26  23     1.091155885243   107.95904106   188.61406801
 H     69  68  26     1.092267667653   108.71247968   336.35097140
 H     70  69  68     1.091701706557   109.28011051   100.05222713
 H     70  69  68     1.090788594962   109.77297794   343.16045621
 H     71  70  69     1.086023850106   111.46076682   301.20625267
 H     71  70  69     1.087879647250   110.14375548   180.98502676
 H     71  70  69     1.088646424649   110.73512410    61.60503822
 H     72  69  68     1.093331735980   108.31702317    54.59002027
 H     72  69  68     1.092714915520   109.06125169   297.75328960
 H     73  72  69     1.088143864983   110.52802479   304.52024249
 H     73  72  69     1.087896788119   109.87975742   185.18038135
 H     73  72  69     1.086274904709   111.37514697    65.62695058
 H     74  30  29     1.083486114401   112.68485951   182.42943587
 H     80  77  76     1.077270919918   122.35741496   359.48083781
 H     83  78  77     1.078511699241   120.66071949   179.78755692

---------------------------
INTERNAL COORDINATES (A.U.)
---------------------------
 S      0   0   0     0.000000000000     0.00000000     0.00000000
 N      1   0   0     3.036573067092     0.00000000     0.00000000
 C      2   1   0     2.517030176591   109.24535571     0.00000000
 C      3   2   1     2.722048483161   111.71357192   359.97104263
 N      4   3   2     2.516982784979   111.74332223     0.02428193
 C      3   2   1     2.686991072843   127.36016625   181.18091344
 C      6   3   2     2.625488154101   116.05716285   180.04906598
 C      7   6   3     2.624511524327   122.99883005     0.60984716
 C      8   7   6     2.625406428121   122.98623009   358.23111178
 C      9   8   7     2.703253625598   122.33642384   180.22159105
 C      6   3   2     2.702989514491   121.60072652     0.69964186
 C     11   6   3     2.617299875214   127.47798904   347.27829624
 C     12  11   6     2.623371334418   112.64285488   179.62574281
 C     13  12  11     2.643079991030   112.41290971   358.24971131
 S     14  13  12     3.242590660962   112.78003256     2.28828162
 C     13  12  11     2.852433454944   136.81538583   180.26942297
 C     16  13  12     2.855787493081   100.38782076   173.08149845
 C     17  16  13     2.657178129116   110.66401474     4.77818193
 C     17  16  13     2.603858884981   136.22539250   181.03140658
 C     19  17  16     2.638562519725   112.64218730   182.36224631
 S     18  17  16     3.223334954454   112.77376281   177.99086351
 C     10   9   8     2.617347092241   127.53989125   166.86008498
 C     22  10   9     2.623560507077   112.63705835   179.85220860
 C     23  22  10     2.643408763962   112.37732414   358.25093551
 S     24  23  22     3.242085349147   112.81355665     2.26345439
 C     23  22  10     2.853299446104   136.90834505   179.85706258
 C     26  23  22     2.855294450026   100.39689167   173.55576975
 C     27  26  23     2.656727680423   110.69650566     4.56872454
 C     27  26  23     2.603814700638   136.21753616   181.48246686
 C     29  27  26     2.638452267518   112.63755777   181.52725585
 S     28  27  26     3.223381012585   112.78057187   178.46209341
 C     20  19  17     2.645359145807   132.91740402   180.79149299
 C     32  20  19     2.600265819144   131.96690546     4.29999839
 C     33  32  20     2.744944412387   123.15813801   181.50100442
 C     34  33  32     2.763115904031   107.74183416   185.62343738
 C     35  34  33     2.652076806176   108.61817781   358.03100093
 C     33  32  20     2.788395052417   128.62983736     5.03951629
 C     35  34  33     2.617789338442   131.80549124   178.22693812
 C     38  35  34     2.628354513413   118.65779401   179.68552460
 C     39  38  35     2.642953542087   121.29467776   359.94419509
 C     36  35  34     2.606848210691   122.04199098   180.35378855
 C     34  33  32     2.592224017528   127.79126193     7.54649226
 O     37  33  32     2.296366661997   129.40225692   355.06580328
 C     42  34  33     2.667393274234   124.00541497   179.66908425
 C     42  34  33     2.667009184441   126.73864332     0.84474102
 N     44  42  34     2.169335740750   175.93990535   176.24782286
 N     45  42  34     2.171400918731   174.45589439   171.97908236
 Cl    39  38  35     3.246351045303   118.92707601   179.92111597
 Cl    40  39  38     3.245728880282   120.03421786   180.12360316
 C     16  13  12     2.899314607669   112.23617681    50.79109415
 C     16  13  12     2.930471780294   110.70485546   284.78151837
 C     50  16  13     2.906822008057   114.49903262    51.10028180
 C     51  16  13     2.909130540973   116.14071107    62.97598552
 C     52  50  16     2.911383389321   112.30557874    82.33226974
 C     54  52  50     2.880795803588   112.91249137   231.80633388
 C     52  50  16     2.901937173814   109.02738637   206.44623271
 C     56  52  50     2.879551555332   113.25520977   171.67861557
 C     53  51  16     2.912073037533   112.06644602    95.03175130
 C     58  53  51     2.883498789926   113.27794907   222.93801516
 C     53  51  16     2.904221394794   108.55171576   218.94341824
 C     60  53  51     2.879379740106   114.08535253   174.69935753
 C     26  23  22     2.899383345534   112.37840701    51.46594673
 C     62  26  23     2.907145541275   114.45900930    51.55390954
 C     63  62  26     2.911420823716   112.25478409    83.35035833
 C     64  63  62     2.880791840241   112.94940963   231.14331738
 C     63  62  26     2.901958701064   109.01025500   207.42044442
 C     66  63  62     2.879531951406   113.31325757   172.05851099
 C     26  23  22     2.929509278369   110.58294056   285.47559214
 C     68  26  23     2.909723929019   115.99056778    64.85608243
 C     69  68  26     2.912112622850   111.89713670    96.15438380
 C     70  69  68     2.883465686626   113.39828559   222.23363808
 C     69  68  26     2.904040520215   108.55997140   220.08327205
 C     72  69  68     2.879428984612   114.14389367   175.12712504
 C     30  29  27     2.645357547685   132.92594340   182.03629856
 C     74  30  29     2.600146504700   131.97180470     3.90282022
 C     75  74  30     2.745303475007   123.12322964   179.82955308
 C     76  75  74     2.763135787675   107.73671134   186.18224863
 C     77  76  75     2.652030593399   108.60853716   357.60101515
 C     75  74  30     2.788329988595   128.67867789     3.48672818
 C     77  76  75     2.617781695287   131.82580584   177.72587414
 C     80  77  76     2.628373391445   118.65599327   179.68599706
 C     81  80  77     2.642945447856   121.30324517   359.86812984
 C     78  77  76     2.606817515167   122.05569136   180.47590577
 O     79  75  74     2.296411025509   129.43407547   354.39893298
 C     76  75  74     2.592121880935   127.79915309     7.97120965
 C     85  76  75     2.667405268177   123.98486728   179.96252416
 C     85  76  75     2.667037012596   126.73594521     1.15678566
 N     87  85  76     2.171344992238   174.46107107   171.77008183
 N     86  85  76     2.169370195590   176.01899950   176.92943867
 Cl    82  81  80     3.245674082390   120.03939911   180.17735238
 Cl    81  80  77     3.246401253377   118.92496572   179.83907549
 H      7   6   3     2.041331183367   118.41893092   180.01113477
 H      8   7   6     2.041319656317   118.58309808   178.94753460
 H     12  11   6     2.029220015402   121.09707683     1.03089478
 H     19  17  16     2.030300688802   125.68769918     3.16644260
 H     22  10   9     2.029139079688   121.09973328     1.11022984
 H     29  27  26     2.030333325437   125.70822493     2.34468774
 H     32  20  19     2.047497758069   112.69591642   183.43887952
 H     38  35  34     2.035765107239   122.35424050   359.51455868
 H     41  36  35     2.038078868526   120.66639627   179.86865444
 H     50  16  13     2.058633618116   106.96377306   290.98883158
 H     50  16  13     2.062015179421   109.09845829   174.36809249
 H     51  16  13     2.065741270906   106.55383019   301.50639420
 H     51  16  13     2.062026225365   107.96025403   186.88546437
 H     52  50  16     2.069694249281   108.01058300   322.63116207
 H     53  51  16     2.063901041415   108.65850755   335.14333114
 H     54  52  50     2.062597762894   109.55173525   110.05476753
 H     54  52  50     2.060163562866   109.96004444   353.05188795
 H     55  54  52     2.054466041996   111.03666641   300.14453508
 H     55  54  52     2.056049361692   110.38467535   179.94493035
 H     55  54  52     2.056561654260   110.63400756    60.24529695
 H     56  52  50     2.065584036101   108.78789953    51.37876099
 H     56  52  50     2.064484150546   109.22206197   294.18368538
 H     57  56  52     2.056407040214   110.32841811   302.41302923
 H     57  56  52     2.055755381442   110.15610399   182.88257365
 H     57  56  52     2.052987172207   111.36631411    62.97811696
 H     58  53  51     2.062974978415   109.31150734   100.86083679
 H     58  53  51     2.061171024741   109.83440208   343.95954916
 H     59  58  53     2.052449874535   111.38806689   301.00413117
 H     59  58  53     2.055813805477   110.19776807   180.78416401
 H     59  58  53     2.057312730899   110.74968952    61.32685653
 H     60  53  51     2.065983578606   108.36075028    54.19676589
 H     60  53  51     2.064901158818   109.08691144   297.33878130
 H     61  60  53     2.056295986144   110.49384233   304.44557182
 H     61  60  53     2.055779834710   109.89623141   185.10639008
 H     61  60  53     2.052768651528   111.38902544    65.52060113
 H     62  26  23     2.058623249577   107.02502036   291.32992226
 H     62  26  23     2.061885323139   109.06224559   174.75938722
 H     63  62  26     2.069751461432   108.03771283   323.66057948
 H     64  63  62     2.062645939903   109.53564114   109.32490326
 H     64  63  62     2.060147129579   109.95248439   352.32854008
 H     65  64  63     2.054302683743   111.07173952   300.11107549
 H     65  64  63     2.056088152563   110.37081380   179.89950423
 H     65  64  63     2.056566208724   110.61788976    60.22256414
 H     66  63  62     2.065636098951   108.75875064    51.74006879
 H     66  63  62     2.064600848364   109.19054627   294.56207660
 H     67  66  63     2.056365327381   110.33831036   302.34706410
 H     67  66  63     2.055759146094   110.13382032   182.82604141
 H     67  66  63     2.052992854976   111.37110751    62.94570561
 H     68  26  23     2.065685429144   106.61211988   303.24952616
 H     68  26  23     2.061985792525   107.95904106   188.61406801
 H     69  68  26     2.064086756801   108.71247968   336.35097140
 H     70  69  68     2.063017245328   109.28011051   100.05222713
 H     70  69  68     2.061291714484   109.77297794   343.16045621
 H     71  70  69     2.052287651608   111.46076682   301.20625267
 H     71  70  69     2.055794599969   110.14375548   180.98502676
 H     71  70  69     2.057243599258   110.73512410    61.60503822
 H     72  69  68     2.066097554526   108.31702317    54.59002027
 H     72  69  68     2.064931932784   109.06125169   297.75328960
 H     73  72  69     2.056293899124   110.52802479   304.52024249
 H     73  72  69     2.055826991518   109.87975742   185.18038135
 H     73  72  69     2.052762076051   111.37514697    65.62695058
 H     74  30  29     2.047492026125   112.68485951   182.42943587
 H     80  77  76     2.035747010682   122.35741496   359.48083781
 H     83  78  77     2.038091743796   120.66071949   179.78755692

---------------------
BASIS SET INFORMATION
---------------------
There are 6 groups of distinct atoms

 Group   1 Type S   : 10s7p1d contracted to 4s3p1d pattern {5311/511/1}
 Group   2 Type N   : 7s4p1d contracted to 3s2p1d pattern {511/31/1}
 Group   3 Type C   : 7s4p1d contracted to 3s2p1d pattern {511/31/1}
 Group   4 Type O   : 7s4p1d contracted to 3s2p1d pattern {511/31/1}
 Group   5 Type Cl  : 10s7p1d contracted to 4s3p1d pattern {5311/511/1}
 Group   6 Type H   : 4s1p contracted to 2s1p pattern {31/1}

Atom   0S    basis set group =>   1
Atom   1N    basis set group =>   2
Atom   2C    basis set group =>   3
Atom   3C    basis set group =>   3
Atom   4N    basis set group =>   2
Atom   5C    basis set group =>   3
Atom   6C    basis set group =>   3
Atom   7C    basis set group =>   3
Atom   8C    basis set group =>   3
Atom   9C    basis set group =>   3
Atom  10C    basis set group =>   3
Atom  11C    basis set group =>   3
Atom  12C    basis set group =>   3
Atom  13C    basis set group =>   3
Atom  14S    basis set group =>   1
Atom  15C    basis set group =>   3
Atom  16C    basis set group =>   3
Atom  17C    basis set group =>   3
Atom  18C    basis set group =>   3
Atom  19C    basis set group =>   3
Atom  20S    basis set group =>   1
Atom  21C    basis set group =>   3
Atom  22C    basis set group =>   3
Atom  23C    basis set group =>   3
Atom  24S    basis set group =>   1
Atom  25C    basis set group =>   3
Atom  26C    basis set group =>   3
Atom  27C    basis set group =>   3
Atom  28C    basis set group =>   3
Atom  29C    basis set group =>   3
Atom  30S    basis set group =>   1
Atom  31C    basis set group =>   3
Atom  32C    basis set group =>   3
Atom  33C    basis set group =>   3
Atom  34C    basis set group =>   3
Atom  35C    basis set group =>   3
Atom  36C    basis set group =>   3
Atom  37C    basis set group =>   3
Atom  38C    basis set group =>   3
Atom  39C    basis set group =>   3
Atom  40C    basis set group =>   3
Atom  41C    basis set group =>   3
Atom  42O    basis set group =>   4
Atom  43C    basis set group =>   3
Atom  44C    basis set group =>   3
Atom  45N    basis set group =>   2
Atom  46N    basis set group =>   2
Atom  47Cl   basis set group =>   5
Atom  48Cl   basis set group =>   5
Atom  49C    basis set group =>   3
Atom  50C    basis set group =>   3
Atom  51C    basis set group =>   3
Atom  52C    basis set group =>   3
Atom  53C    basis set group =>   3
Atom  54C    basis set group =>   3
Atom  55C    basis set group =>   3
Atom  56C    basis set group =>   3
Atom  57C    basis set group =>   3
Atom  58C    basis set group =>   3
Atom  59C    basis set group =>   3
Atom  60C    basis set group =>   3
Atom  61C    basis set group =>   3
Atom  62C    basis set group =>   3
Atom  63C    basis set group =>   3
Atom  64C    basis set group =>   3
Atom  65C    basis set group =>   3
Atom  66C    basis set group =>   3
Atom  67C    basis set group =>   3
Atom  68C    basis set group =>   3
Atom  69C    basis set group =>   3
Atom  70C    basis set group =>   3
Atom  71C    basis set group =>   3
Atom  72C    basis set group =>   3
Atom  73C    basis set group =>   3
Atom  74C    basis set group =>   3
Atom  75C    basis set group =>   3
Atom  76C    basis set group =>   3
Atom  77C    basis set group =>   3
Atom  78C    basis set group =>   3
Atom  79C    basis set group =>   3
Atom  80C    basis set group =>   3
Atom  81C    basis set group =>   3
Atom  82C    basis set group =>   3
Atom  83O    basis set group =>   4
Atom  84C    basis set group =>   3
Atom  85C    basis set group =>   3
Atom  86C    basis set group =>   3
Atom  87N    basis set group =>   2
Atom  88N    basis set group =>   2
Atom  89Cl   basis set group =>   5
Atom  90Cl   basis set group =>   5
Atom  91H    basis set group =>   6
Atom  92H    basis set group =>   6
Atom  93H    basis set group =>   6
Atom  94H    basis set group =>   6
Atom  95H    basis set group =>   6
Atom  96H    basis set group =>   6
Atom  97H    basis set group =>   6
Atom  98H    basis set group =>   6
Atom  99H    basis set group =>   6
Atom 100H    basis set group =>   6
Atom 101H    basis set group =>   6
Atom 102H    basis set group =>   6
Atom 103H    basis set group =>   6
Atom 104H    basis set group =>   6
Atom 105H    basis set group =>   6
Atom 106H    basis set group =>   6
Atom 107H    basis set group =>   6
Atom 108H    basis set group =>   6
Atom 109H    basis set group =>   6
Atom 110H    basis set group =>   6
Atom 111H    basis set group =>   6
Atom 112H    basis set group =>   6
Atom 113H    basis set group =>   6
Atom 114H    basis set group =>   6
Atom 115H    basis set group =>   6
Atom 116H    basis set group =>   6
Atom 117H    basis set group =>   6
Atom 118H    basis set group =>   6
Atom 119H    basis set group =>   6
Atom 120H    basis set group =>   6
Atom 121H    basis set group =>   6
Atom 122H    basis set group =>   6
Atom 123H    basis set group =>   6
Atom 124H    basis set group =>   6
Atom 125H    basis set group =>   6
Atom 126H    basis set group =>   6
Atom 127H    basis set group =>   6
Atom 128H    basis set group =>   6
Atom 129H    basis set group =>   6
Atom 130H    basis set group =>   6
Atom 131H    basis set group =>   6
Atom 132H    basis set group =>   6
Atom 133H    basis set group =>   6
Atom 134H    basis set group =>   6
Atom 135H    basis set group =>   6
Atom 136H    basis set group =>   6
Atom 137H    basis set group =>   6
Atom 138H    basis set group =>   6
Atom 139H    basis set group =>   6
Atom 140H    basis set group =>   6
Atom 141H    basis set group =>   6
Atom 142H    basis set group =>   6
Atom 143H    basis set group =>   6
Atom 144H    basis set group =>   6
Atom 145H    basis set group =>   6
Atom 146H    basis set group =>   6
Atom 147H    basis set group =>   6
Atom 148H    basis set group =>   6
Atom 149H    basis set group =>   6
Atom 150H    basis set group =>   6
Atom 151H    basis set group =>   6
Atom 152H    basis set group =>   6
Atom 153H    basis set group =>   6
Atom 154H    basis set group =>   6
---------------------------------
AUXILIARY/J BASIS SET INFORMATION
---------------------------------
There are 6 groups of distinct atoms

 Group   1 Type S   : 14s5p5d2f1g contracted to 8s4p3d1f1g pattern {71111111/2111/311/2/1}
 Group   2 Type N   : 12s5p4d2f1g contracted to 6s4p3d1f1g pattern {711111/2111/211/2/1}
 Group   3 Type C   : 12s5p4d2f1g contracted to 6s4p3d1f1g pattern {711111/2111/211/2/1}
 Group   4 Type O   : 12s5p4d2f1g contracted to 6s4p3d1f1g pattern {711111/2111/211/2/1}
 Group   5 Type Cl  : 14s5p5d2f1g contracted to 8s4p3d1f1g pattern {71111111/2111/311/2/1}
 Group   6 Type H   : 5s2p1d contracted to 3s1p1d pattern {311/2/1}

Atom   0S    basis set group =>   1
Atom   1N    basis set group =>   2
Atom   2C    basis set group =>   3
Atom   3C    basis set group =>   3
Atom   4N    basis set group =>   2
Atom   5C    basis set group =>   3
Atom   6C    basis set group =>   3
Atom   7C    basis set group =>   3
Atom   8C    basis set group =>   3
Atom   9C    basis set group =>   3
Atom  10C    basis set group =>   3
Atom  11C    basis set group =>   3
Atom  12C    basis set group =>   3
Atom  13C    basis set group =>   3
Atom  14S    basis set group =>   1
Atom  15C    basis set group =>   3
Atom  16C    basis set group =>   3
Atom  17C    basis set group =>   3
Atom  18C    basis set group =>   3
Atom  19C    basis set group =>   3
Atom  20S    basis set group =>   1
Atom  21C    basis set group =>   3
Atom  22C    basis set group =>   3
Atom  23C    basis set group =>   3
Atom  24S    basis set group =>   1
Atom  25C    basis set group =>   3
Atom  26C    basis set group =>   3
Atom  27C    basis set group =>   3
Atom  28C    basis set group =>   3
Atom  29C    basis set group =>   3
Atom  30S    basis set group =>   1
Atom  31C    basis set group =>   3
Atom  32C    basis set group =>   3
Atom  33C    basis set group =>   3
Atom  34C    basis set group =>   3
Atom  35C    basis set group =>   3
Atom  36C    basis set group =>   3
Atom  37C    basis set group =>   3
Atom  38C    basis set group =>   3
Atom  39C    basis set group =>   3
Atom  40C    basis set group =>   3
Atom  41C    basis set group =>   3
Atom  42O    basis set group =>   4
Atom  43C    basis set group =>   3
Atom  44C    basis set group =>   3
Atom  45N    basis set group =>   2
Atom  46N    basis set group =>   2
Atom  47Cl   basis set group =>   5
Atom  48Cl   basis set group =>   5
Atom  49C    basis set group =>   3
Atom  50C    basis set group =>   3
Atom  51C    basis set group =>   3
Atom  52C    basis set group =>   3
Atom  53C    basis set group =>   3
Atom  54C    basis set group =>   3
Atom  55C    basis set group =>   3
Atom  56C    basis set group =>   3
Atom  57C    basis set group =>   3
Atom  58C    basis set group =>   3
Atom  59C    basis set group =>   3
Atom  60C    basis set group =>   3
Atom  61C    basis set group =>   3
Atom  62C    basis set group =>   3
Atom  63C    basis set group =>   3
Atom  64C    basis set group =>   3
Atom  65C    basis set group =>   3
Atom  66C    basis set group =>   3
Atom  67C    basis set group =>   3
Atom  68C    basis set group =>   3
Atom  69C    basis set group =>   3
Atom  70C    basis set group =>   3
Atom  71C    basis set group =>   3
Atom  72C    basis set group =>   3
Atom  73C    basis set group =>   3
Atom  74C    basis set group =>   3
Atom  75C    basis set group =>   3
Atom  76C    basis set group =>   3
Atom  77C    basis set group =>   3
Atom  78C    basis set group =>   3
Atom  79C    basis set group =>   3
Atom  80C    basis set group =>   3
Atom  81C    basis set group =>   3
Atom  82C    basis set group =>   3
Atom  83O    basis set group =>   4
Atom  84C    basis set group =>   3
Atom  85C    basis set group =>   3
Atom  86C    basis set group =>   3
Atom  87N    basis set group =>   2
Atom  88N    basis set group =>   2
Atom  89Cl   basis set group =>   5
Atom  90Cl   basis set group =>   5
Atom  91H    basis set group =>   6
Atom  92H    basis set group =>   6
Atom  93H    basis set group =>   6
Atom  94H    basis set group =>   6
Atom  95H    basis set group =>   6
Atom  96H    basis set group =>   6
Atom  97H    basis set group =>   6
Atom  98H    basis set group =>   6
Atom  99H    basis set group =>   6
Atom 100H    basis set group =>   6
Atom 101H    basis set group =>   6
Atom 102H    basis set group =>   6
Atom 103H    basis set group =>   6
Atom 104H    basis set group =>   6
Atom 105H    basis set group =>   6
Atom 106H    basis set group =>   6
Atom 107H    basis set group =>   6
Atom 108H    basis set group =>   6
Atom 109H    basis set group =>   6
Atom 110H    basis set group =>   6
Atom 111H    basis set group =>   6
Atom 112H    basis set group =>   6
Atom 113H    basis set group =>   6
Atom 114H    basis set group =>   6
Atom 115H    basis set group =>   6
Atom 116H    basis set group =>   6
Atom 117H    basis set group =>   6
Atom 118H    basis set group =>   6
Atom 119H    basis set group =>   6
Atom 120H    basis set group =>   6
Atom 121H    basis set group =>   6
Atom 122H    basis set group =>   6
Atom 123H    basis set group =>   6
Atom 124H    basis set group =>   6
Atom 125H    basis set group =>   6
Atom 126H    basis set group =>   6
Atom 127H    basis set group =>   6
Atom 128H    basis set group =>   6
Atom 129H    basis set group =>   6
Atom 130H    basis set group =>   6
Atom 131H    basis set group =>   6
Atom 132H    basis set group =>   6
Atom 133H    basis set group =>   6
Atom 134H    basis set group =>   6
Atom 135H    basis set group =>   6
Atom 136H    basis set group =>   6
Atom 137H    basis set group =>   6
Atom 138H    basis set group =>   6
Atom 139H    basis set group =>   6
Atom 140H    basis set group =>   6
Atom 141H    basis set group =>   6
Atom 142H    basis set group =>   6
Atom 143H    basis set group =>   6
Atom 144H    basis set group =>   6
Atom 145H    basis set group =>   6
Atom 146H    basis set group =>   6
Atom 147H    basis set group =>   6
Atom 148H    basis set group =>   6
Atom 149H    basis set group =>   6
Atom 150H    basis set group =>   6
Atom 151H    basis set group =>   6
Atom 152H    basis set group =>   6
Atom 153H    basis set group =>   6
Atom 154H    basis set group =>   6
------------------------------------------------------------------------------
                           ORCA GTO INTEGRAL CALCULATION
                           -- RI-GTO INTEGRALS CHOSEN --
------------------------------------------------------------------------------

                         BASIS SET STATISTICS AND STARTUP INFO

Gaussian basis set:
 # of primitive gaussian shells          ... 1466
 # of primitive gaussian functions       ... 2740
 # of contracted shells                  ...  756
 # of contracted basis functions         ... 1630
 Highest angular momentum                ...    2
 Maximum contraction depth               ...    5
Auxiliary gaussian basis set:
 # of primitive gaussian shells          ... 2723
 # of primitive gaussian functions       ... 7457
 # of contracted shells                  ... 1703
 # of contracted aux-basis functions     ... 5181
 Highest angular momentum                ...    4
 Maximum contraction depth               ...    7
Ratio of auxiliary to basis functions    ...  3.18
Integral package used                  ... LIBINT
 One Electron integrals                  ... done
 Ordering auxiliary basis shells         ... done
 Integral threshhold             Thresh  ...  2.500e-11
 Primitive cut-off               TCut    ...  2.500e-12
 Pre-screening matrix                    ... done
 Shell pair data                         ... 
 Ordering of the shell pairs             ... done (   0.020 sec) 82142 of 286146 pairs
 Determination of significant pairs      ... done (   0.000 sec)
 Creation of shell pair data             ... done (   0.013 sec)
 Storage of shell pair data              ... done (   0.018 sec)
 Shell pair data done in (   0.051 sec)
 Computing two index integrals           ... done
 Cholesky decomposition of the V-matrix  ... done


Timings:
 Total evaluation time                   ...   4.860 sec (  0.081 min)
 One electron matrix time                ...   1.453 sec (  0.024 min) = 29.9%
 Schwartz matrix evaluation time         ...   1.362 sec (  0.023 min) = 28.0%
 Two index repulsion integral time       ...   0.745 sec (  0.012 min) = 15.3%
 Cholesky decomposition of V             ...   1.229 sec (  0.020 min) = 25.3%
 Three index repulsion integral time     ...   0.000 sec (  0.000 min) =  0.0%

-------------------------------------------------------------------------------
                                 ORCA SCF
-------------------------------------------------------------------------------

------------
SCF SETTINGS
------------
Hamiltonian:
 Density Functional     Method          .... DFT(GTOs)
 Exchange Functional    Exchange        .... WB88
 Correlation Functional Correlation     .... LYP
 LDA part of GGA corr.  LDAOpt          .... VWN-5
 Gradients option       PostSCFGGA      .... off
 Hybrid DFT is turned on
   Fraction HF Exchange ScalHFX         ....  0.190000
   Scaling of DF-GGA-X  ScalDFX         ....  0.350000
   Scaling of DF-GGA-C  ScalDFC         ....  0.810000
   Scaling of DF-LDA-C  ScalLDAC        ....  1.000000
   Perturbative correction              ....  0.000000
   Density functional embedding theory  .... OFF
 Long-range corrected/Screened/Range-Separated Hybrid DFT is turned on
   Amount of maximum screened exact exchange              ....  0.460000
   Range separation parameter mu (erf(mu*r12)/r12)        ....  0.330000
 RI-approximation to the Coulomb term is turned on
   Number of auxiliary basis functions  .... 5181
   RIJ-COSX (HFX calculated with COS-X)).... on


General Settings:
 Integral files         IntName         .... BTCIC-4Cl
 Hartree-Fock type      HFTyp           .... RHF
 Total Charge           Charge          ....    0
 Multiplicity           Mult            ....    1
 Number of Electrons    NEL             ....  714
 Basis Dimension        Dim             .... 1630
 Nuclear Repulsion      ENuc            ....  16991.8824760728 Eh

Convergence Acceleration:
 DIIS                   CNVDIIS         .... on
   Start iteration      DIISMaxIt       ....    12
   Startup error        DIISStart       ....  0.200000
   # of expansion vecs  DIISMaxEq       ....     5
   Bias factor          DIISBfac        ....   1.050
   Max. coefficient     DIISMaxC        ....  10.000
 Newton-Raphson         CNVNR           .... off
 SOSCF                  CNVSOSCF        .... on
   Start iteration      SOSCFMaxIt      ....   150
   Startup grad/error   SOSCFStart      ....  0.003300
 Level Shifting         CNVShift        .... on
   Level shift para.    LevelShift      ....    0.2500
   Turn off err/grad.   ShiftErr        ....    0.0010
 Zerner damping         CNVZerner       .... off
 Static damping         CNVDamp         .... on
   Fraction old density DampFac         ....    0.7000
   Max. Damping (<1)    DampMax         ....    0.9800
   Min. Damping (>=0)   DampMin         ....    0.0000
   Turn off err/grad.   DampErr         ....    0.1000
 Fernandez-Rico         CNVRico         .... off

SCF Procedure:
 Maximum # iterations   MaxIter         ....   125
 SCF integral mode      SCFMode         .... Direct
   Integral package                     .... LIBINT
 Reset frequency        DirectResetFreq ....    20
 Integral Threshold     Thresh          ....  2.500e-11 Eh
 Primitive CutOff       TCut            ....  2.500e-12 Eh

Convergence Tolerance:
 Convergence Check Mode ConvCheckMode   .... Total+1el-Energy
 Convergence forced     ConvForced      .... 1
 Energy Change          TolE            ....  1.000e-08 Eh
 1-El. energy change                    ....  1.000e-05 Eh
 Orbital Gradient       TolG            ....  1.000e-05
 Orbital Rotation angle TolX            ....  1.000e-05
 DIIS Error             TolErr          ....  5.000e-07


Diagonalization of the overlap matrix:
Smallest eigenvalue                        ... 1.552e-04
Time for diagonalization                   ...    1.010 sec
Threshold for overlap eigenvalues          ... 1.000e-08
Number of eigenvalues below threshold      ... 0
Time for construction of square roots      ...    0.371 sec
Total time needed                          ...    1.388 sec

-------------------
DFT GRID GENERATION
-------------------

General Integration Accuracy     IntAcc      ...  4.670
Radial Grid Type                 RadialGrid  ... Gauss-Chebyshev
Angular Grid (max. acc.)         AngularGrid ... Lebedev-302
Angular grid pruning method      GridPruning ... 3 (G Style)
Weight generation scheme         WeightScheme... Becke
Basis function cutoff            BFCut       ...    1.0000e-11
Integration weight cutoff        WCut        ...    1.0000e-14
Grids for H and He will be reduced by one unit

# of grid points (after initial pruning)     ... 787782 (   2.7 sec)
# of grid points (after weights+screening)   ... 658887 (  47.6 sec)
nearest neighbour list constructed           ...    0.0 sec
Grid point re-assignment to atoms done       ...    0.1 sec
Grid point division into batches done        ...    2.4 sec
Reduced shell lists constructed in   14.8 sec

Total number of grid points                  ...   658887
Total number of batches                      ...    10379
Average number of points per batch           ...       63
Average number of grid points per atom       ...     4251
Average number of shells per batch           ...   115.58 (15.29%)
Average number of basis functions per batch  ...   225.78 (13.85%)
Average number of large shells per batch     ...    66.20 (57.27%)
Average number of large basis fcns per batch ...   131.33 (58.17%)
Maximum spatial batch extension              ...  24.46, 21.01, 21.24 au
Average spatial batch extension              ...   2.10,  2.07,  2.02 au

Time for grid setup =   65.218 sec

------------------------------
INITIAL GUESS: MODEL POTENTIAL
------------------------------
Loading Hartree-Fock densities                     ... done
Calculating cut-offs                               ... done
Setting up the integral package                    ... done
Initializing the effective Hamiltonian             ... done
Starting the Coulomb interaction                   ... done (  21.8 sec)
Reading the grid                                   ... done
Mapping shells                                     ... done
Starting the XC term evaluation                    ... done (  15.1 sec)
  promolecular density results
     # of electrons  =    713.964985732
     EX              =   -687.415810405
     EC              =    -24.973237693
     EX+EC           =   -712.389048097
Transforming the Hamiltonian                       ... done (   0.4 sec)
Diagonalizing the Hamiltonian                      ... done (   1.1 sec)
Back transforming the eigenvectors                 ... done (   0.1 sec)
Now organizing SCF variables                       ... done
                      ------------------
                      INITIAL GUESS DONE ( 104.2 sec)
                      ------------------
--------------------
COSX GRID GENERATION
--------------------

General Integration Accuracy     IntAcc      ...  3.340
Radial Grid Type                 RadialGrid  ... Gauss-Chebyshev
Angular Grid (max. acc.)         AngularGrid ... Lebedev-50
Angular grid pruning method      GridPruning ... 3 (G Style)
Weight generation scheme         WeightScheme... Becke
Basis function cutoff            BFCut       ...    1.0000e-11
Integration weight cutoff        WCut        ...    1.0000e-14
Grids for H and He will be reduced by one unit

# of grid points (after initial pruning)     ...  74310 (   0.2 sec)
# of grid points (after weights+screening)   ...  64972 (   4.4 sec)
nearest neighbour list constructed           ...    0.0 sec
Grid point re-assignment to atoms done       ...    0.0 sec
Grid point division into batches done        ...    0.0 sec
Reduced shell lists constructed in    1.7 sec

Total number of grid points                  ...    64972
Total number of batches                      ...     1090
Average number of points per batch           ...       59
Average number of grid points per atom       ...      419
Average number of shells per batch           ...   140.83 (18.63%)
Average number of basis functions per batch  ...   278.41 (17.08%)
Average number of large shells per batch     ...    80.95 (57.48%)
Average number of large basis fcns per batch ...   163.39 (58.69%)
Maximum spatial batch extension              ...  25.32, 25.62, 20.57 au
Average spatial batch extension              ...   4.73,  4.70,  4.14 au

Overlap Fitting                  UseSFitting ... on
Constructing numerical overlap ... done (      1.2 sec)
Inverting numerical overlap    ... done (      0.1 sec)
Obtaining analytic overlap     ... done (      0.0 sec)
Final contraction and storage  ... done (      0.2 sec)


General Integration Accuracy     IntAcc      ...  3.670
Radial Grid Type                 RadialGrid  ... Gauss-Chebyshev
Angular Grid (max. acc.)         AngularGrid ... Lebedev-50
Angular grid pruning method      GridPruning ... 3 (G Style)
Weight generation scheme         WeightScheme... Becke
Basis function cutoff            BFCut       ...    1.0000e-11
Integration weight cutoff        WCut        ...    1.0000e-14
Grids for H and He will be reduced by one unit

# of grid points (after initial pruning)     ...  93578 (   0.2 sec)
# of grid points (after weights+screening)   ...  81467 (   5.6 sec)
nearest neighbour list constructed           ...    0.0 sec
Grid point re-assignment to atoms done       ...    0.0 sec
Grid point division into batches done        ...    0.0 sec
Reduced shell lists constructed in    2.1 sec

Total number of grid points                  ...    81467
Total number of batches                      ...     1350
Average number of points per batch           ...       60
Average number of grid points per atom       ...      526
Average number of shells per batch           ...   137.39 (18.17%)
Average number of basis functions per batch  ...   271.03 (16.63%)
Average number of large shells per batch     ...    78.83 (57.37%)
Average number of large basis fcns per batch ...   158.58 (58.51%)
Maximum spatial batch extension              ...  23.85, 23.85, 21.25 au
Average spatial batch extension              ...   4.34,  4.29,  3.85 au

Overlap Fitting                  UseSFitting ... on
Constructing numerical overlap ... done (      1.5 sec)
Inverting numerical overlap    ... done (      0.1 sec)
Obtaining analytic overlap     ... done (      0.0 sec)
Final contraction and storage  ... done (      0.2 sec)


General Integration Accuracy     IntAcc      ...  4.010
Radial Grid Type                 RadialGrid  ... Gauss-Chebyshev
Angular Grid (max. acc.)         AngularGrid ... Lebedev-110
[...]
  14      4.39     282.7   137 -> 141      gap,J,K:    5.660     1.652     0.189
  15      4.48     276.6   133 -> 140      gap,J,K:    5.990     1.767     0.130
  16      4.48     276.5   132 -> 140      gap,J,K:    5.994     1.770     0.130
  17      4.62     268.4   134 -> 140      gap,J,K:    5.939     1.588     0.134
  18      4.63     267.6   139 -> 146      gap,J,K:    5.986     1.732     0.189
  19      4.65     266.6   130 -> 140      gap,J,K:    6.251     1.861     0.130
  20      4.69     264.5   136 -> 141      gap,J,K:    5.909     1.529     0.154
  21      4.74     261.8   135 -> 141      gap,J,K:    5.992     1.477     0.111
  22      4.74     261.4   137 -> 142      gap,J,K:    6.034     1.652     0.181
  23      4.79     258.9   131 -> 140      gap,J,K:    6.219     1.641     0.106
  24      4.84     256.0   127 -> 140      gap,J,K:    6.373     1.549     0.009

average / max PT2 energy lowering (eV):       0.050       0.085

CSF included by PT:                   159 
total number of CSF included:         187 
 
sTD-DFT procedure...
setting up A+B and A-B matrices...  done
estimated time (min):    0.000
calculating (A-B)^0.5 ... done
calculating (A+B)*(A-B)^0.5 ... done
calculating (A-B)^0.5 *(A+B)*(A-B)^0.5 ... done
diagonalizing ...using LAPACKE_ssyevr ...done

   41 roots found, lowest/highest eigenvalue :     1.847     4.999

excitation energies, transition moments and amplitudes

molecular weight: 1371.478
state   eV        nm        fL         fV        Rl        RV
   0   1.847     671.2   2.924480   3.705762  -180.426303  -202.849573     0.90 ( 139-> 140)    0.07 ( 138-> 141)    0.01 ( 139-> 142)
   1   2.436     509.1   0.176161   0.218176  403.433052  449.127304     0.59 ( 139-> 141)    0.34 ( 138-> 140)    0.04 ( 138-> 142)
   2   2.694     460.2   0.321598   0.327676  -215.871610  -229.074621     0.74 ( 139-> 142)    0.14 ( 138-> 141)    0.05 ( 139-> 144)
   3   2.789     444.5   0.000090   0.000230   0.156246   0.265400     0.56 ( 138-> 140)    0.26 ( 139-> 141)    0.12 ( 138-> 142)
   4   3.058     405.4   0.212665   0.198953  -2.235541   1.272933     0.64 ( 139-> 144)    0.25 ( 138-> 143)    0.01 ( 137-> 142)
   5   3.064     404.6   0.031399   0.029337  -11.162431  -10.814731     0.63 ( 139-> 143)    0.22 ( 138-> 144)    0.07 ( 138-> 142)
   6   3.385     366.3   0.055657   0.071001  -94.047597  -103.250762     0.50 ( 138-> 141)    0.24 ( 137-> 140)    0.09 ( 139-> 142)
   7   3.617     342.8   0.028134   0.036009  41.945071  47.615991     0.46 ( 138-> 142)    0.15 ( 137-> 141)    0.10 ( 138-> 144)
   8   3.663     338.5   0.084725   0.089169  -2.130948  -7.738453     0.48 ( 137-> 140)    0.16 ( 138-> 141)    0.14 ( 136-> 141)
   9   3.745     331.1   0.111866   0.097921  -3.274966  -2.971529     0.37 ( 136-> 140)    0.22 ( 135-> 141)    0.12 ( 138-> 142)
  10   3.810     325.4   0.204802   0.161843  -9.861107  -4.642713     0.42 ( 135-> 140)    0.16 ( 136-> 141)    0.11 ( 137-> 140)
  11   3.833     323.5   0.007907   0.007668  -9.312614  -9.665478     0.23 ( 127-> 141)    0.19 ( 126-> 140)    0.14 ( 128-> 140)
  12   3.871     320.3   0.010858   0.008772  -6.492667  -8.036081     0.35 ( 127-> 140)    0.17 ( 126-> 141)    0.09 ( 128-> 141)
  13   4.008     309.4   0.025475   0.026944  58.119726  62.546565     0.54 ( 139-> 145)    0.08 ( 138-> 143)    0.08 ( 139-> 142)
  14   4.077     304.1   0.015740   0.007830  42.934794  30.356872     0.29 ( 133-> 140)    0.17 ( 134-> 140)    0.08 ( 130-> 140)
  15   4.090     303.1   0.055365   0.045738  -35.153991  -32.162215     0.24 ( 127-> 143)    0.18 ( 133-> 140)    0.11 ( 126-> 144)
  16   4.106     302.0   0.018928   0.015901  10.378895   5.329699     0.23 ( 127-> 144)    0.21 ( 126-> 143)    0.16 ( 127-> 142)
  17   4.113     301.5   0.015332   0.010517  -41.480260  -38.450942     0.59 ( 132-> 140)    0.10 ( 133-> 141)    0.08 ( 131-> 140)
  18   4.158     298.2   0.083957   0.069295  68.984289  62.706509     0.16 ( 133-> 140)    0.16 ( 138-> 144)    0.11 ( 139-> 143)
  19   4.208     294.6   0.042199   0.026132  12.361458   9.991996     0.24 ( 134-> 140)    0.12 ( 138-> 144)    0.11 ( 137-> 141)
  20   4.218     294.0   0.190150   0.166033  -167.296443  -151.115245     0.32 ( 138-> 143)    0.19 ( 139-> 144)    0.11 ( 139-> 145)
  21   4.235     292.8   0.002557   0.004471   5.416419   7.060309     0.23 ( 130-> 140)    0.18 ( 137-> 141)    0.14 ( 139-> 146)
  22   4.282     289.5   0.002593   0.002657  -5.883106  -5.503210     0.40 ( 131-> 140)    0.22 ( 129-> 140)    0.07 ( 133-> 141)
  23   4.310     287.6   0.076085   0.066769  33.173778  31.208265     0.30 ( 130-> 140)    0.26 ( 139-> 146)    0.07 ( 138-> 145)
  24   4.377     283.3   0.062945   0.057021  -25.525904  -28.182091     0.16 ( 129-> 140)    0.08 ( 137-> 142)    0.08 ( 134-> 141)
  25   4.429     279.9   0.349939   0.279772  160.498419  143.373472     0.13 ( 137-> 141)    0.10 ( 129-> 141)    0.08 ( 136-> 144)
  26   4.505     275.2   1.025343   0.832074  928.245132  836.026897     0.16 ( 136-> 142)    0.14 ( 135-> 143)    0.13 ( 139-> 146)
  27   4.521     274.2   0.026841   0.021533  -1146.970511  -984.668882     0.26 ( 136-> 143)    0.19 ( 135-> 142)    0.11 ( 135-> 144)
  28   4.562     271.7   0.090112   0.076593  -16.793808  -16.133290     0.43 ( 137-> 142)    0.07 ( 129-> 140)    0.06 ( 135-> 140)
  29   4.614     268.7   0.116475   0.094851  228.898756  206.601755     0.21 ( 128-> 140)    0.16 ( 126-> 140)    0.08 ( 136-> 144)
  30   4.778     259.5   0.001066   0.000631  -4.797741  -4.111593     0.28 ( 135-> 140)    0.14 ( 136-> 141)    0.08 ( 135-> 142)
  31   4.783     259.2   0.009977   0.005752  -11.263736  -8.561253     0.29 ( 133-> 142)    0.26 ( 132-> 141)    0.09 ( 131-> 141)
  32   4.788     258.9   0.034366   0.018266  -6.894739  -5.915588     0.26 ( 132-> 142)    0.23 ( 133-> 141)    0.06 ( 130-> 141)
  33   4.806     258.0   0.000194   0.000153  -3.321016  -2.940782     0.21 ( 136-> 140)    0.13 ( 134-> 140)    0.10 ( 135-> 141)
  34   4.844     255.9   0.109784   0.088209  -82.540854  -74.047813     0.71 ( 125-> 140)    0.07 ( 139-> 148)    0.05 ( 125-> 142)
  35   4.910     252.5   0.063395   0.050600  -10.657730  -9.612727     0.18 ( 130-> 141)    0.13 ( 131-> 142)    0.09 ( 129-> 142)
  36   4.925     251.7   0.000625   0.000443  -6.621043  -5.531098     0.22 ( 130-> 142)    0.12 ( 131-> 141)    0.12 ( 129-> 141)
  37   4.946     250.7   0.046440   0.037640  -19.350640  -17.558911     0.16 ( 138-> 145)    0.12 ( 137-> 143)    0.08 ( 135-> 141)
  38   4.950     250.5   0.010691   0.008970  -293.921555  -264.827178     0.39 ( 139-> 147)    0.22 ( 138-> 146)    0.07 ( 137-> 144)
  39   4.979     249.0   0.115078   0.092254  -53.593020  -46.416312     0.11 ( 137-> 144)    0.11 ( 129-> 142)    0.10 ( 130-> 141)
  40   4.999     248.0   0.012779   0.007577  18.653607  14.354459     0.44 ( 138-> 145)    0.08 ( 139-> 146)    0.05 ( 138-> 144)

-----------------------------------------------------------------------------
         ABSORPTION SPECTRUM VIA TRANSITION ELECTRIC DIPOLE MOMENTS
-----------------------------------------------------------------------------
State   Energy  Wavelength   fosc         T2         TX        TY        TZ  
        (cm-1)    (nm)                  (au**2)     (au)      (au)      (au) 
-----------------------------------------------------------------------------
   0   14898.5    671.2   2.924479901  64.62232  -4.59274  -6.41661   1.53498
   1   19644.3    509.1   0.176160787   2.95222   0.54117  -0.00322   1.63075
   2   21728.0    460.2   0.321597862   4.87269  -1.52545  -1.51076   0.51312
   3   22497.3    444.5   0.000090055   0.00132   0.01190  -0.00955   0.03294
   4   24665.7    405.4   0.212665325   2.83844  -0.91034  -1.37102   0.36058
   5   24715.4    404.6   0.031399128   0.41824   0.26235   0.11176   0.58045
   6   27298.0    366.3   0.055657266   0.67122   0.63289   0.47646  -0.20894
   7   29170.1    342.8   0.028133773   0.31752   0.13453  -0.02875   0.54644
   8   29542.0    338.5   0.084725422   0.94417   0.55900   0.77620  -0.17087
   9   30203.3    331.1   0.111866199   1.21933  -0.34965   0.01114  -1.04735
  10   30731.5    325.4   0.204802056   2.19395  -0.83873  -1.18616   0.28899
  11   30913.1    323.5   0.007906611   0.08420   0.16886   0.12828   0.19807
  12   31225.4    320.3   0.010858247   0.11448   0.18240   0.26872  -0.09488
  13   32325.4    309.4   0.025474652   0.25944  -0.18972  -0.46883   0.06038
  14   32881.0    304.1   0.015739940   0.15759   0.14361   0.01453   0.36981
  15   32990.6    303.1   0.055365226   0.55249   0.19405  -0.08079   0.71296
  16   33115.3    302.0   0.018928094   0.18817  -0.21486  -0.37419  -0.04459
  17   33170.7    301.5   0.015331788   0.15216   0.21378  -0.31883  -0.06935
  18   33534.1    298.2   0.083957050   0.82422  -0.30193  -0.02410  -0.85585
  19   33942.4    294.6   0.042198501   0.40929   0.23861   0.04598   0.59181
  20   34016.8    294.0   0.190150065   1.84026   0.63930   1.16732  -0.26249
  21   34155.5    292.8   0.002556685   0.02464   0.03384   0.01739   0.15230
  22   34537.0    289.5   0.002592595   0.02471  -0.06476  -0.13786  -0.03891
  23   34765.8    287.6   0.076084828   0.72048  -0.26903  -0.00040  -0.80505
  24   35299.6    283.3   0.062944706   0.58704  -0.42713  -0.61806   0.15034
  25   35721.3    279.9   0.349939302   3.22508  -0.57412  -0.00094  -1.70161
  26   36332.3    275.2   1.025343202   9.29077  -0.97703   0.01183  -2.88722
  27   36464.9    274.2   0.026840568   0.24232  -0.11665   0.44628   0.17190
  28   36798.5    271.7   0.090112236   0.80617   0.54441   0.68368  -0.20585
  29   37214.0    268.7   0.116475069   1.03039   0.29987   0.02294   0.96951
  30   38535.5    259.5   0.001066164   0.00911   0.05219   0.06023  -0.05250
  31   38576.1    259.2   0.009976875   0.08514  -0.08671   0.02641  -0.27736
  32   38618.8    258.9   0.034366004   0.29296  -0.26797  -0.46619   0.06181
  33   38764.7    258.0   0.000194039   0.00165   0.02468  -0.01218   0.02984
  34   39073.0    255.9   0.109783639   0.92499   0.32970  -0.00193   0.90348
  35   39602.0    252.5   0.063395115   0.52700  -0.52666  -0.46010   0.19480
  36   39725.6    251.7   0.000624920   0.00518  -0.03406  -0.00140  -0.06338
  37   39892.0    250.7   0.046439719   0.38325   0.23072  -0.02436   0.57395
  38   39923.7    250.5   0.010691455   0.08816   0.17835  -0.20608  -0.11784
  39   40161.4    249.0   0.115078039   0.94332  -0.68231  -0.65249   0.22810
  40   40316.8    248.0   0.012778589   0.10435  -0.11418  -0.00340  -0.30215

-----------------------------------------------------------------------------
         ABSORPTION SPECTRUM VIA TRANSITION VELOCITY DIPOLE MOMENTS
-----------------------------------------------------------------------------
State   Energy  Wavelength   fosc         P2         PX        PY        PZ  
        (cm-1)    (nm)                  (au**2)     (au)      (au)      (au) 
-----------------------------------------------------------------------------
   0   14898.5    671.2   3.705762155   0.37733  -0.35149  -0.48992   0.11735
   1   19644.3    509.1   0.218176424   0.02929   0.05399  -0.00016   0.16241
   2   21728.0    460.2   0.327675575   0.04866  -0.15497  -0.14810   0.05206
   3   22497.3    444.5   0.000229972   0.00004   0.00197  -0.00107   0.00551
   4   24665.7    405.4   0.198953172   0.03354  -0.09952  -0.14859   0.03944
   5   24715.4    404.6   0.029336790   0.00496   0.02853   0.01208   0.06321
   6   27298.0    366.3   0.071001433   0.01325   0.08811   0.06815  -0.02895
   7   29170.1    342.8   0.036009058   0.00718   0.02102  -0.00384   0.08199
   8   29542.0    338.5   0.089169114   0.01800   0.07654   0.10780  -0.02290
   9   30203.3    331.1   0.097921459   0.02021  -0.04510   0.00124  -0.13482
  10   30731.5    325.4   0.161842513   0.03399  -0.10483  -0.14727   0.03628
  11   30913.1    323.5   0.007667578   0.00162   0.02306   0.01579   0.02896
  12   31225.4    320.3   0.008772422   0.00187   0.02485   0.03284  -0.01328
  13   32325.4    309.4   0.026944020   0.00595  -0.02792  -0.07136   0.00896
  14   32881.0    304.1   0.007829783   0.00176   0.01558   0.00225   0.03888
  15   32990.6    303.1   0.045737900   0.01031   0.02680  -0.01125   0.09730
  16   33115.3    302.0   0.015900713   0.00360  -0.02856  -0.05224  -0.00738
  17   33170.7    301.5   0.010517302   0.00238   0.03245  -0.03499  -0.01032
  18   33534.1    298.2   0.069295380   0.01588  -0.04190  -0.00346  -0.11880
  19   33942.4    294.6   0.026131536   0.00606   0.02985   0.00654   0.07161
  20   34016.8    294.0   0.166032657   0.03860   0.09341   0.16869  -0.03769
  21   34155.5    292.8   0.004471041   0.00104   0.00785   0.00211   0.03127
  22   34537.0    289.5   0.002656787   0.00063  -0.01077  -0.02204  -0.00503
  23   34765.8    287.6   0.066768725   0.01586  -0.04000  -0.00039  -0.11943
  24   35299.6    283.3   0.057020533   0.01376  -0.06499  -0.09484   0.02318
  25   35721.3    279.9   0.279772141   0.06830  -0.08358   0.00006  -0.24762
  26   36332.3    275.2   0.832074411   0.20662  -0.14576   0.00184  -0.43054
  27   36464.9    274.2   0.021533081   0.00537  -0.01348   0.06765   0.02467
  28   36798.5    271.7   0.076592557   0.01926   0.08467   0.10523  -0.03193
  29   37214.0    268.7   0.094850519   0.02412   0.04603   0.00355   0.14830
  30   38535.5    259.5   0.000630516   0.00017   0.00728   0.00796  -0.00705
  31   38576.1    259.2   0.005751679   0.00152  -0.01198   0.00325  -0.03691
  32   38618.8    258.9   0.018265620   0.00482  -0.03364  -0.06030   0.00733
  33   38764.7    258.0   0.000153010   0.00004   0.00394  -0.00187   0.00464
  34   39073.0    255.9   0.088208805   0.02356   0.05241  -0.00043   0.14425
  35   39602.0    252.5   0.050600280   0.01370  -0.08521  -0.07392   0.03117
  36   39725.6    251.7   0.000443263   0.00012  -0.00543  -0.00075  -0.00950
  37   39892.0    250.7   0.037639730   0.01026   0.03742  -0.00449   0.09403
  38   39923.7    250.5   0.008969519   0.00245   0.02715  -0.03708  -0.01831
  39   40161.4    249.0   0.092254170   0.02532  -0.11069  -0.10826   0.03674
  40   40316.8    248.0   0.007577464   0.00209  -0.01637  -0.00044  -0.04266

-------------------------------------------------------------------
                             CD SPECTRUM
-------------------------------------------------------------------
State   Energy Wavelength       R         MX        MY        MZ   
        (cm-1)   (nm)       (1e40*cgs)   (au)      (au)      (au)  
-------------------------------------------------------------------
   0   14898.5    671.2    -180.42630  -0.15447  -0.25302  -1.02122
   1   19644.3    509.1    403.43305  -0.32745  -0.35322  -0.94153
   2   21728.0    460.2    -215.87161  -1.17634   0.59127   0.02848
   3   22497.3    444.5      0.15625  -0.00553  -0.00901  -0.02073
   4   24665.7    405.4     -2.23554   1.56084  -1.26030  -0.82515
   5   24715.4    404.6    -11.16243  -0.09494  -0.06003   0.13605
   6   27298.0    366.3    -94.04760   1.01560  -0.57508  -0.14463
   7   29170.1    342.8     41.94507  -0.04083  -0.23901  -0.32817
   8   29542.0    338.5     -2.13095  -2.15568   1.77252   0.94678
   9   30203.3    331.1     -3.27497   0.01298   0.27721  -0.01465
  10   30731.5    325.4     -9.86111   2.77401  -2.30255  -1.25509
  11   30913.1    323.5     -9.31261   0.00394  -0.00180   0.19726
  12   31225.4    320.3     -6.49267   0.50018  -0.27953  -0.12044
  13   32325.4    309.4     58.11973  -1.52749   1.19535   0.39841
  14   32881.0    304.1     42.93479  -0.21882  -0.05290  -0.40548
  15   32990.6    303.1    -35.15399   0.28566  -0.29487   0.09801
  16   33115.3    302.0     10.37890   1.38141  -0.59860  -0.64570
  17   33170.7    301.5    -41.48026   0.51911  -0.14983  -0.24834
  18   33534.1    298.2     68.98429   0.18802   0.20229   0.26991
  19   33942.4    294.6     12.36146  -0.17772  -0.03678  -0.01410
  20   34016.8    294.0    -167.29644  -3.47255   2.85283   1.52559
  21   34155.5    292.8      5.41642  -0.05202  -0.07089  -0.13122
  22   34537.0    289.5     -5.88311   0.36493  -0.31289  -0.14020
  23   34765.8    287.6     33.17378   0.04540   0.27056   0.15950
  24   35299.6    283.3    -25.52590   5.08217  -4.14969  -1.90026
  25   35721.3    279.9    160.49842   0.18149   0.47536   0.33864
  26   36332.3    275.2    928.24513  -0.00084   1.24344   1.36928
  27   36464.9    274.2    -1146.97051  -9.31978   7.25593   3.14405
  28   36798.5    271.7    -16.79381   0.60533  -0.35088   0.08946
  29   37214.0    268.7    228.89876  -0.40667  -0.24029  -0.87013
  30   38535.5    259.5     -4.79774   0.88552  -0.69007  -0.29907
  31   38576.1    259.2    -11.26374  -0.14855   0.15678  -0.11091
  32   38618.8    258.9     -6.89474   0.42640  -0.34770  -0.30060
  33   38764.7    258.0     -3.32102   0.13196  -0.01542   0.35667
  34   39073.0    255.9    -82.54085   0.06038  -0.25872   0.36498
  35   39602.0    252.5    -10.65773  -0.12558  -0.01910  -0.15253
  36   39725.6    251.7     -6.62104  -0.06658  -0.02629  -0.40683
  37   39892.0    250.7    -19.35064   0.38957  -0.47306  -0.03365
  38   39923.7    250.5    -293.92156   3.35954  -2.47230  -1.17320
  39   40161.4    249.0    -53.59302  -0.70204   0.36074  -0.07137
  40   40316.8    248.0     18.65361   0.07133   0.08805   0.23396

sTD-DFT done

Total run time:        9.530 sec

           *** ORCA-CIS/TD-DFT FINISHED WITHOUT ERROR ***

-------------------------   --------------------
FINAL SINGLE POINT ENERGY     -7163.600266079818
-------------------------   --------------------


                            ***************************************
                            *     ORCA property calculations      *
                            ***************************************

                                    ---------------------
                                    Active property flags
                                    ---------------------
   (+) Dipole Moment


------------------------------------------------------------------------------
                       ORCA ELECTRIC PROPERTIES CALCULATION
------------------------------------------------------------------------------

Dipole Moment Calculation                       ... on
Quadrupole Moment Calculation                   ... off
Polarizability Calculation                      ... off
GBWName                                         ... BTCIC-4Cl.gbw
Electron density file                           ... BTCIC-4Cl.scfp
The origin for moment calculation is the CENTER OF MASS  = (-2.245687,  0.054315 -0.494582)

-------------
DIPOLE MOMENT
-------------
                                X             Y             Z
Electronic contribution:    -37.09340      -0.54430    -108.57862
Nuclear contribution   :     38.59830       0.55432     113.05847
                        -----------------------------------------
Total Dipole Moment    :      1.50490       0.01002       4.47985
                        -----------------------------------------
Magnitude (a.u.)       :      4.72587
Magnitude (Debye)      :     12.01222



--------------------
Rotational spectrum 
--------------------
 
Rotational constants in cm-1:     0.001506     0.000117     0.000113 
Rotational constants in MHz :    45.134481     3.502773     3.400426 

 Dipole components along the rotational axes: 
x,y,z [a.u.] :     0.013018     4.725834    -0.014424 
x,y,z [Debye]:     0.033090    12.012115    -0.036664 

 

Timings for individual modules:

Sum of individual times         ...     7029.636 sec (= 117.161 min)
GTO integral calculation        ...        6.477 sec (=   0.108 min)   0.1 %
SCF iterations                  ...     7013.549 sec (= 116.892 min)  99.8 %
CIS module                      ...        9.610 sec (=   0.160 min)   0.1 %
                             ****ORCA TERMINATED NORMALLY****
TOTAL RUN TIME: 0 days 1 hours 57 minutes 10 seconds 483 msec
