
                                 *****************
                                 * O   R   C   A *
                                 *****************

           --- An Ab Initio, DFT and Semiempirical electronic structure package ---

                  #######################################################
                  #                        -***-                        #
                  #          Department of theory and spectroscopy      #
                  #               Directorship: Frank Neese             #
                  #        Max Planck Institute fuer Kohlenforschung    #
                  #                Kaiser Wilhelm Platz 1               #
                  #                 D-45470 Muelheim/Ruhr               #
                  #                      Germany                        #
                  #                                                     #
                  #                  All rights reserved                #
                  #                        -***-                        #
                  #######################################################


                         Program Version 4.2.0 -  RELEASE  -


 With contributions from (in alphabetic order):
   Daniel Aravena         : Magnetic Suceptibility
   Michael Atanasov       : Ab Initio Ligand Field Theory (pilot matlab implementation)
   Alexander A. Auer      : GIAO ZORA, VPT2
   Ute Becker             : Parallelization
   Giovanni Bistoni       : ED, misc. LED, open-shell LED, HFLED
   Martin Brehm           : Molecular dynamics
   Dmytro Bykov           : SCF Hessian
   Vijay G. Chilkuri      : MRCI spin determinant printing, contributions to CSF-ICE
   Dipayan Datta          : RHF DLPNO-CCSD density
   Achintya Kumar Dutta   : EOM-CC, STEOM-CC
   Dmitry Ganyushin       : Spin-Orbit,Spin-Spin,Magnetic field MRCI
   Miquel Garcia          : C-PCM Hessian, Gaussian charge scheme
   Yang Guo               : DLPNO-NEVPT2, CIM, IAO-localization
   Andreas Hansen         : Spin unrestricted coupled pair/coupled cluster methods
   Benjamin Helmich-Paris : CASSCF linear response (MC-RPA)
   Lee Huntington         : MR-EOM, pCC
   Robert Izsak           : Overlap fitted RIJCOSX, COSX-SCS-MP3, EOM
   Christian Kollmar      : KDIIS, OOCD, Brueckner-CCSD(T), CCSD density
   Simone Kossmann        : Meta GGA functionals, TD-DFT gradient, OOMP2, MP2 Hessian
   Martin Krupicka        : AUTO-CI
   Lucas Lang             : DCDCAS
   Dagmar Lenk            : GEPOL surface, SMD
   Dimitrios Liakos       : Extrapolation schemes; Compound Job, initial MDCI parallelization
   Dimitrios Manganas     : Further ROCIS development; embedding schemes
   Dimitrios Pantazis     : SARC Basis sets
   Taras Petrenko         : DFT Hessian,TD-DFT gradient, ASA, ECA, R-Raman, ABS, FL, XAS/XES, NRVS
   Peter Pinski           : DLPNO-MP2, DLPNO-MP2 Gradient
   Christoph Reimann      : Effective Core Potentials
   Marius Retegan         : Local ZFS, SOC
   Christoph Riplinger    : Optimizer, TS searches, QM/MM, DLPNO-CCSD(T), (RO)-DLPNO pert. Triples
   Tobias Risthaus        : Range-separated hybrids, TD-DFT gradient, RPA, STAB
   Michael Roemelt        : Original ROCIS implementation
   Masaaki Saitow         : Open-shell DLPNO-CCSD energy and density
   Barbara Sandhoefer     : DKH picture change effects
   Avijit Sen             : IP-ROCIS
   Kantharuban Sivalingam : CASSCF convergence, NEVPT2, FIC-MRCI
   Bernardo de Souza      : ESD, SOC TD-DFT
   Georgi Stoychev        : AutoAux, RI-MP2 NMR
   Willem Van den Heuvel  : Paramagnetic NMR
   Boris Wezisla          : Elementary symmetry handling
   Frank Wennmohs         : Technical directorship


 We gratefully acknowledge several colleagues who have allowed us to
 interface, adapt or use parts of their codes:
   Stefan Grimme, W. Hujo, H. Kruse,             : VdW corrections, initial TS optimization,
                  C. Bannwarth                     DFT functionals, gCP, sTDA/sTD-DF
   Ed Valeev, F. Pavosevic, A. Kumar             : LibInt (2-el integral package), F12 methods
   Garnet Chan, S. Sharma, J. Yang, R. Olivares  : DMRG
   Ulf Ekstrom                                   : XCFun DFT Library
   Mihaly Kallay                                 : mrcc  (arbitrary order and MRCC methods)
   Andreas Klamt, Michael Diedenhofen            : otool_cosmo (COSMO solvation model)
   Jiri Pittner, Ondrej Demel                    : Mk-CCSD
   Frank Weinhold                                : gennbo (NPA and NBO analysis)
   Christopher J. Cramer and Donald G. Truhlar   : smd solvation model
   Lars Goerigk                                  : TD-DFT with DH, B97 family of functionals
   V. Asgeirsson, H. Jonsson                     : NEB implementation
   FAccTs GmbH                                   : IRC, NEB, NEB-TS, Multilevel, MM, QM/MM, CI optimization
   S Lehtola, MJT Oliveira, MAL Marques          : LibXC Library


 Your calculation uses the libint2 library for the computation of 2-el integrals
 For citations please refer to: http://libint.valeyev.net

 Your ORCA version has been built with support for libXC version: 4.2.3
 For citations please refer to: https://tddft.org/programs/libxc/

 This ORCA versions uses:
   CBLAS   interface :  Fast vector & matrix operations
   LAPACKE interface :  Fast linear algebra routines
   SCALAPACK package :  Parallel linear algebra routines


XCFun DFT library Copyright 2009-2010 Ulf Ekstrom and contributors.
See http://admol.org/xcfun for more information. This is free soft-
ware; see the source code for copying conditions. There is ABSOLUTELY
NO WARRANTY; not even for MERCHANTABILITY or FITNESS FOR A PARTICULAR
PURPOSE. For details see the documentation. Scientific users of this 
library should cite U. Ekstrom, L. Visscher, R. Bast, A. J. Thorvald-
sen and K. Ruud; J.Chem.Theor.Comp. 2010, DOI: 10.1021/ct100117s
XCFun Version 0.99 
----- Orbital basis set information -----
Your calculation utilizes the basis: def2-SVP
   F. Weigend and R. Ahlrichs, Phys. Chem. Chem. Phys. 7, 3297 (2005).

----- AuxJ basis set information -----
Your calculation utilizes the auxiliary basis: def2/J
   F. Weigend, Phys. Chem. Chem. Phys. 8, 1057 (2006).

================================================================================
                                        WARNINGS
                       Please study these warnings very carefully!
================================================================================

INFO   : Checking CIS options ...

WARNING: CIS/ROCIS methods need fully converged wavefunctions
  ===> : Setting SCFConvForced true
         You can overwrite this default with %scf ConvForced false 


INFO   : the flag for use of LIBINT has been found!

================================================================================
                                       INPUT FILE
================================================================================
NAME = BTTPC.inp
|  1> # ORCA input file
|  2> # BTTPC.out
|  3> ! CAM-B3LYP def2-SVP def2/J RIJCOSX Grid4 TightSCF
|  4> %maxcore 5000
|  5> %tddft
|  6>     Mode sTDDFT
|  7>     Ethresh 5.0
|  8>     maxcore 5000
|  9> end
| 10> * xyz 0 1
| 11>    C       -3.04954        -1.03564        -0.62360
| 12>    O       -2.61405        -0.14899        -1.33144
| 13>    C       -2.36503        -2.29382        -0.27255
| 14>    C       -1.13277        -2.73078        -0.69329
| 15>    C       -0.67081        -3.95548        -0.20042
| 16>    C       -1.47835        -4.68538         0.70395
| 17>    C       -2.72526        -4.24370         1.13088
| 18>    C       -3.16731        -3.03346         0.63219
| 19>    C       -4.39732        -2.29213         0.87278
| 20>    C       -5.48947        -2.74162         1.56993
| 21>    C       -5.54729        -3.98479         2.23163
| 22>    N       -5.64953        -4.98103         2.79321
| 23>    C       -6.70954        -2.04223         1.67542
| 24>    N       -7.73776        -1.54026         1.77591
| 25>    C       -4.30465        -1.03609         0.15549
| 26>    C       -5.10238         0.05499         0.36515
| 27>    C       -5.15037         1.26403        -0.36307
| 28>    S       -5.47123         2.70044         0.62415
| 29>    C       -5.36609         3.71106        -0.76349
| 30>    C       -5.17470         2.95137        -1.92428
| 31>    C       -5.05390         1.57059        -1.71654
| 32>    C       -4.95423         0.61855        -2.86065
| 33>    C       -6.01733        -0.47770        -2.82870
| 34>    S       -5.09224         3.92611        -3.37586
| 35>    C       -5.26667         5.34685        -2.40613
| 36>    C       -5.40240         5.07961        -1.03845
| 37>    N       -5.49263         6.25347        -0.33315
| 38>    C       -6.19642         6.27439         0.93246
| 39>    C       -7.62886         5.76390         0.77749
| 40>    C       -5.37728         7.28753        -1.24595
| 41>    C       -5.28890         6.74386        -2.55679
| 42>    C       -5.28875         7.58165        -3.69498
| 43>    N       -5.28687         7.23671        -4.97244
| 44>    S       -5.35637         8.58175        -5.86986
| 45>    N       -5.38210         9.66009        -4.66294
| 46>    C       -5.34079         9.00672        -3.51311
| 47>    C       -5.24627         9.53491        -2.20485
| 48>    C       -5.20261         8.68113        -1.06661
| 49>    N       -4.89259         9.43841         0.04414
| 50>    C       -4.42733         9.03243         1.35173
| 51>    C       -5.39514         9.44835         2.45875
| 52>    C       -4.75636        10.73793        -0.36316
| 53>    C       -4.99705        10.83468        -1.73923
| 54>    S       -4.78437        12.43166        -2.36701
| 55>    C       -4.31856        12.97913        -0.77115
| 56>    C       -4.34315        11.95571         0.18504
| 57>    S       -3.76138        12.51389         1.70380
| 58>    C       -3.53820        14.13794         1.05812
| 59>    C       -3.87814        14.21935        -0.28704
| 60>    C       -3.65338        15.39419        -1.18630
| 61>    C       -4.92911        15.83433        -1.90631
| 62>    C       -2.92534        15.06003         1.94071
| 63>    C       -2.98477        16.41812         2.00924
| 64>    C       -3.90143        17.39250         1.46365
| 65>    C       -5.22381        17.17049         1.17495
| 66>    C       -6.11207        18.17373         0.74181
| 67>    N       -6.86783        18.95378         0.36989
| 68>    C       -5.84562        15.92022         1.35939
| 69>    N       -6.39422        14.92606         1.53030
| 70>    C       -3.25256        18.69591         1.54505
| 71>    C       -3.61897        19.92011         1.02280
| 72>    C       -2.78648        20.99860         1.30096
| 73>    C       -1.61526        20.88329         2.08761
| 74>    C       -1.25875        19.63475         2.60712
| 75>    C       -2.07367        18.56574         2.32415
| 76>    C       -1.90565        17.15530         2.72140
| 77>    O       -1.05119        16.67741         3.43345
| 78>    C       -0.94802        22.13342         2.22401
| 79>    C       -1.57976        23.13393         1.57278
| 80>    S       -3.01893        22.62968         0.75615
| 81>    S       -0.70268        -6.16044         1.18939
| 82>    C        0.66584        -5.79588         0.19662
| 83>    C        0.55534        -4.62609        -0.47001
| 84>    H        1.48211        -6.49152         0.17435
| 85>    H       -1.29142        24.16526         1.51233
| 86>    H       -0.54270        -2.14506        -1.38112
| 87>    H       -3.30095        -4.82994         1.82773
| 88>    H       -5.72838         0.04658         1.25171
| 89>    H       -3.95743         0.16972        -2.85612
| 90>    H       -5.05598         1.19588        -3.78244
| 91>    H       -5.90393        -1.11459        -1.95570
| 92>    H       -5.93213        -1.09650        -3.71824
| 93>    H       -7.01333        -0.04064        -2.80637
| 94>    H       -6.23433         7.29432         1.29962
| 95>    H       -5.65296         5.64573         1.64491
| 96>    H       -8.16174         6.35750         0.03746
| 97>    H       -8.14697         5.84437         1.72900
| 98>    H       -7.64336         4.72334         0.46622
| 99>    H       -3.46575         9.52799         1.52891
|100>    H       -4.25034         7.95676         1.34910
|101>    H       -6.39986         9.07153         2.28069
|102>    H       -5.45179        10.53155         2.51948
|103>    H       -5.04293         9.06853         3.41343
|104>    H       -2.91736        15.09899        -1.94111
|105>    H       -3.23094        16.22392        -0.61931
|106>    H       -5.73688        16.02060        -1.20345
|107>    H       -5.25862        15.06464        -2.59893
|108>    H       -4.74105        16.74636        -2.46739
|109>    H       -2.24438        14.61254         2.66137
|110>    H       -4.49949        20.05049         0.41506
|111>    H       -0.37255        19.51111         3.21001
|112>    H       -0.03961        22.25872         2.78499
|113>    H        1.30767        -4.23687        -1.13204
|114> *
|115> 
|116>                          ****END OF INPUT****
================================================================================

                       ****************************
                       * Single Point Calculation *
                       ****************************

---------------------------------
CARTESIAN COORDINATES (ANGSTROEM)
---------------------------------
  C     -3.049540   -1.035640   -0.623600
  O     -2.614050   -0.148990   -1.331440
  C     -2.365030   -2.293820   -0.272550
  C     -1.132770   -2.730780   -0.693290
  C     -0.670810   -3.955480   -0.200420
  C     -1.478350   -4.685380    0.703950
  C     -2.725260   -4.243700    1.130880
  C     -3.167310   -3.033460    0.632190
  C     -4.397320   -2.292130    0.872780
  C     -5.489470   -2.741620    1.569930
  C     -5.547290   -3.984790    2.231630
  N     -5.649530   -4.981030    2.793210
  C     -6.709540   -2.042230    1.675420
  N     -7.737760   -1.540260    1.775910
  C     -4.304650   -1.036090    0.155490
  C     -5.102380    0.054990    0.365150
  C     -5.150370    1.264030   -0.363070
  S     -5.471230    2.700440    0.624150
  C     -5.366090    3.711060   -0.763490
  C     -5.174700    2.951370   -1.924280
  C     -5.053900    1.570590   -1.716540
  C     -4.954230    0.618550   -2.860650
  C     -6.017330   -0.477700   -2.828700
  S     -5.092240    3.926110   -3.375860
  C     -5.266670    5.346850   -2.406130
  C     -5.402400    5.079610   -1.038450
  N     -5.492630    6.253470   -0.333150
  C     -6.196420    6.274390    0.932460
  C     -7.628860    5.763900    0.777490
  C     -5.377280    7.287530   -1.245950
  C     -5.288900    6.743860   -2.556790
  C     -5.288750    7.581650   -3.694980
  N     -5.286870    7.236710   -4.972440
  S     -5.356370    8.581750   -5.869860
  N     -5.382100    9.660090   -4.662940
  C     -5.340790    9.006720   -3.513110
  C     -5.246270    9.534910   -2.204850
  C     -5.202610    8.681130   -1.066610
  N     -4.892590    9.438410    0.044140
  C     -4.427330    9.032430    1.351730
  C     -5.395140    9.448350    2.458750
  C     -4.756360   10.737930   -0.363160
  C     -4.997050   10.834680   -1.739230
  S     -4.784370   12.431660   -2.367010
  C     -4.318560   12.979130   -0.771150
  C     -4.343150   11.955710    0.185040
  S     -3.761380   12.513890    1.703800
  C     -3.538200   14.137940    1.058120
  C     -3.878140   14.219350   -0.287040
  C     -3.653380   15.394190   -1.186300
  C     -4.929110   15.834330   -1.906310
  C     -2.925340   15.060030    1.940710
  C     -2.984770   16.418120    2.009240
  C     -3.901430   17.392500    1.463650
  C     -5.223810   17.170490    1.174950
  C     -6.112070   18.173730    0.741810
  N     -6.867830   18.953780    0.369890
  C     -5.845620   15.920220    1.359390
  N     -6.394220   14.926060    1.530300
  C     -3.252560   18.695910    1.545050
  C     -3.618970   19.920110    1.022800
  C     -2.786480   20.998600    1.300960
  C     -1.615260   20.883290    2.087610
  C     -1.258750   19.634750    2.607120
  C     -2.073670   18.565740    2.324150
  C     -1.905650   17.155300    2.721400
  O     -1.051190   16.677410    3.433450
  C     -0.948020   22.133420    2.224010
  C     -1.579760   23.133930    1.572780
  S     -3.018930   22.629680    0.756150
  S     -0.702680   -6.160440    1.189390
  C      0.665840   -5.795880    0.196620
  C      0.555340   -4.626090   -0.470010
  H      1.482110   -6.491520    0.174350
  H     -1.291420   24.165260    1.512330
  H     -0.542700   -2.145060   -1.381120
  H     -3.300950   -4.829940    1.827730
  H     -5.728380    0.046580    1.251710
  H     -3.957430    0.169720   -2.856120
  H     -5.055980    1.195880   -3.782440
  H     -5.903930   -1.114590   -1.955700
  H     -5.932130   -1.096500   -3.718240
  H     -7.013330   -0.040640   -2.806370
  H     -6.234330    7.294320    1.299620
  H     -5.652960    5.645730    1.644910
  H     -8.161740    6.357500    0.037460
  H     -8.146970    5.844370    1.729000
  H     -7.643360    4.723340    0.466220
  H     -3.465750    9.527990    1.528910
  H     -4.250340    7.956760    1.349100
  H     -6.399860    9.071530    2.280690
  H     -5.451790   10.531550    2.519480
  H     -5.042930    9.068530    3.413430
  H     -2.917360   15.098990   -1.941110
  H     -3.230940   16.223920   -0.619310
  H     -5.736880   16.020600   -1.203450
  H     -5.258620   15.064640   -2.598930
  H     -4.741050   16.746360   -2.467390
  H     -2.244380   14.612540    2.661370
  H     -4.499490   20.050490    0.415060
  H     -0.372550   19.511110    3.210010
  H     -0.039610   22.258720    2.784990
  H      1.307670   -4.236870   -1.132040

----------------------------
CARTESIAN COORDINATES (A.U.)
----------------------------
  NO LB      ZA    FRAG     MASS         X           Y           Z
   0 C     6.0000    0    12.011   -5.762795   -1.957076   -1.178433
   1 O     8.0000    0    15.999   -4.939839   -0.281550   -2.516057
   2 C     6.0000    0    12.011   -4.469259   -4.334692   -0.515045
   3 C     6.0000    0    12.011   -2.140625   -5.160426   -1.310128
   4 C     6.0000    0    12.011   -1.267647   -7.474774   -0.378739
   5 C     6.0000    0    12.011   -2.793677   -8.854085    1.330273
   6 C     6.0000    0    12.011   -5.149995   -8.019431    2.137053
   7 C     6.0000    0    12.011   -5.985348   -5.732409    1.194666
   8 C     6.0000    0    12.011   -8.309731   -4.331498    1.649315
   9 C     6.0000    0    12.011  -10.373595   -5.180911    2.966738
  10 C     6.0000    0    12.011  -10.482859   -7.530162    4.217170
  11 N     7.0000    0    14.007  -10.676064   -9.412783    5.278402
  12 C     6.0000    0    12.011  -12.679193   -3.859255    3.166085
  13 N     7.0000    0    14.007  -14.622247   -2.910670    3.355984
  14 C     6.0000    0    12.011   -8.134610   -1.957926    0.293834
  15 C     6.0000    0    12.011   -9.642101    0.103916    0.690033
  16 C     6.0000    0    12.011   -9.732789    2.388671   -0.686103
  17 S    16.0000    0    32.060  -10.339126    5.103092    1.179473
  18 C     6.0000    0    12.011  -10.140441    7.012887   -1.442787
  19 C     6.0000    0    12.011   -9.778766    5.577281   -3.636362
  20 C     6.0000    0    12.011   -9.550487    2.967985   -3.243790
  21 C     6.0000    0    12.011   -9.362138    1.168890   -5.405845
  22 C     6.0000    0    12.011  -11.371106   -0.902722   -5.345468
  23 S    16.0000    0    32.060   -9.622939    7.419273   -6.379451
  24 C     6.0000    0    12.011   -9.952564   10.104082   -4.546927
  25 C     6.0000    0    12.011  -10.209056    9.599072   -1.962386
  26 N     7.0000    0    14.007  -10.379566   11.817346   -0.629562
  27 C     6.0000    0    12.011  -11.709537   11.856879    1.762094
  28 C     6.0000    0    12.011  -14.416456   10.892192    1.469243
  29 C     6.0000    0    12.011  -10.161587   13.771436   -2.354504
  30 C     6.0000    0    12.011   -9.994573   12.744048   -4.831633
  31 C     6.0000    0    12.011   -9.994289   14.327242   -6.982500
  32 N     7.0000    0    14.007   -9.990736   13.675400   -9.396550
  33 S    16.0000    0    32.060  -10.122072   16.217157  -11.092428
  34 N     7.0000    0    14.007  -10.170695   18.254925   -8.811680
  35 C     6.0000    0    12.011  -10.092630   17.020234   -6.638816
  36 C     6.0000    0    12.011   -9.914014   18.018369   -4.166563
  37 C     6.0000    0    12.011   -9.831508   16.404958   -2.015601
  38 N     7.0000    0    14.007   -9.245655   17.836010    0.083413
  39 C     6.0000    0    12.011   -8.366441   17.068819    2.554400
  40 C     6.0000    0    12.011  -10.195337   17.854794    4.646364
  41 C     6.0000    0    12.011   -8.988218   20.291747   -0.686273
  42 C     6.0000    0    12.011   -9.443056   20.474578   -3.286668
  43 S    16.0000    0    32.060   -9.041149   23.492433   -4.473001
  44 C     6.0000    0    12.011   -8.160896   24.527001   -1.457262
  45 C     6.0000    0    12.011   -8.207364   22.593018    0.349675
  46 S    16.0000    0    32.060   -7.107978   23.647825    3.219715
  47 C     6.0000    0    12.011   -6.686229   26.716835    1.999557
  48 C     6.0000    0    12.011   -7.328623   26.870677   -0.542427
  49 C     6.0000    0    12.011   -6.903888   29.090803   -2.241782
  50 C     6.0000    0    12.011   -9.314668   29.922547   -3.602404
  51 C     6.0000    0    12.011   -5.528091   28.459332    3.667410
  52 C     6.0000    0    12.011   -5.640398   31.025750    3.796913
  53 C     6.0000    0    12.011   -7.372634   32.867062    2.765898
  54 C     6.0000    0    12.011   -9.871570   32.447524    2.220334
  55 C     6.0000    0    12.011  -11.550138   34.343373    1.401818
  56 N     7.0000    0    14.007  -12.978318   35.817453    0.698991
  57 C     6.0000    0    12.011  -11.046621   30.084856    2.568875
  58 N     7.0000    0    14.007  -12.083325   28.206166    2.891848
  59 C     6.0000    0    12.011   -6.146448   35.330150    2.919721
  60 C     6.0000    0    12.011   -6.838862   37.643552    1.932812
  61 C     6.0000    0    12.011   -5.265684   39.681603    2.458458
  62 C     6.0000    0    12.011   -3.052399   39.463699    3.945011
  63 C     6.0000    0    12.011   -2.378693   37.104300    4.926743
  64 C     6.0000    0    12.011   -3.918668   35.084164    4.392007
  65 C     6.0000    0    12.011   -3.601157   32.418819    5.142701
  66 O     8.0000    0    15.999   -1.986461   31.515738    6.488280
  67 C     6.0000    0    12.011   -1.791498   41.826102    4.202770
  68 C     6.0000    0    12.011   -2.985314   43.716792    2.972123
  69 S    16.0000    0    32.060   -5.704951   42.763898    1.428916
  70 S    16.0000    0    32.060   -1.327873  -11.641544    2.247621
  71 C     6.0000    0    12.011    1.258255  -10.952626    0.371558
  72 C     6.0000    0    12.011    1.049441   -8.742043   -0.888190
  73 H     1.0000    0     1.008    2.800782  -12.267195    0.329474
  74 H     1.0000    0     1.008   -2.440430   45.665723    2.857890
  75 H     1.0000    0     1.008   -1.025554   -4.053576   -2.609939
  76 H     1.0000    0     1.008   -6.237891   -9.127264    3.453909
  77 H     1.0000    0     1.008  -10.825069    0.088023    2.365389
  78 H     1.0000    0     1.008   -7.478459    0.320724   -5.397285
  79 H     1.0000    0     1.008   -9.554418    2.259886   -7.147776
  80 H     1.0000    0     1.008  -11.156811   -2.106270   -3.695737
  81 H     1.0000    0     1.008  -11.210101   -2.072085   -7.026455
  82 H     1.0000    0     1.008  -13.253273   -0.076798   -5.303271
  83 H     1.0000    0     1.008  -11.781176   13.784267    2.455926
  84 H     1.0000    0     1.008  -10.682546   10.668884    3.108429
  85 H     1.0000    0     1.008  -15.423453   12.013934    0.070789
  86 H     1.0000    0     1.008  -15.395542   11.044259    3.267336
  87 H     1.0000    0     1.008  -14.443857    8.925819    0.881028
  88 H     1.0000    0     1.008   -6.549318   18.005292    2.889221
  89 H     1.0000    0     1.008   -8.031979   15.036097    2.549430
  90 H     1.0000    0     1.008  -12.093983   17.142707    4.309879
  91 H     1.0000    0     1.008  -10.302390   19.901745    4.761127
  92 H     1.0000    0     1.008   -9.529757   17.137038    6.450448
  93 H     1.0000    0     1.008   -5.513011   28.532956   -3.668166
  94 H     1.0000    0     1.008   -6.105592   30.658766   -1.170326
  95 H     1.0000    0     1.008  -10.841132   30.274547   -2.274191
  96 H     1.0000    0     1.008   -9.937352   28.468044   -4.911266
  97 H     1.0000    0     1.008   -8.959286   31.646034   -4.662691
  98 H     1.0000    0     1.008   -4.241264   27.613699    5.029260
  99 H     1.0000    0     1.008   -8.502804   37.889935    0.784350
 100 H     1.0000    0     1.008   -0.704017   36.870654    6.066040
 101 H     1.0000    0     1.008   -0.074852   42.062885    5.262868
 102 H     1.0000    0     1.008    2.471138   -8.006524   -2.139246

--------------------------------
INTERNAL COORDINATES (ANGSTROEM)
--------------------------------
 C      0   0   0     0.000000000000     0.00000000     0.00000000
 O      1   0   0     1.215251919645     0.00000000     0.00000000
 C      1   2   0     1.474722670538   126.49753135     0.00000000
 C      3   1   2     1.373470384391   127.94807407   358.14454771
 C      4   3   1     1.398648622242   117.83708676   178.56020712
 C      5   4   3     1.415189018647   119.23144511   359.80657067
 C      6   5   4     1.390012588216   122.97479240     0.17006468
 C      7   6   5     1.381586326004   117.03269003   359.95931479
 C      8   7   6     1.456151886686   131.04054352   180.32076897
 C      9   8   7     1.371441214599   126.14338403   351.92842783
 C     10   9   8     1.409489869173   124.08251080     3.84000732
 N     11  10   9     1.148180844467   176.91548485   174.26914886
 C     10   9   8     1.410264272078   124.36314979   186.20155581
 N     13  10   9     1.148611548523   176.14137864   156.55617228
 C      9   8   7     1.449389235023   107.78297680   176.37059128
 C     15   9   8     1.367766805746   125.32008886   195.81816166
 C     16  15   9     1.412227010824   128.58784495   185.95230899
 S     17  16  15     1.772238177024   114.38097254   215.43715501
 C     18  17  16     1.719869754836    90.90276913   178.87693342
 C     19  18  17     1.400425811066   110.99939735     3.43403440
 C     17  16  15     1.391102632950   133.47301864    38.66419957
 C     21  17  16     1.491744603677   127.60423417     4.70304155
 C     22  21  17     1.527405144354   113.29755153    49.95873989
 S     20  19  18     1.750429151837   113.06207374   178.84275543
 C     24  20  19     1.728960452237    89.29624640     1.62620991
 C     19  18  17     1.396370480997   137.15452292   184.51863515
 N     26  19  18     1.372420067800   137.62892455     2.81446528
 C     27  26  19     1.448284047623   119.56384665   330.42174752
 C     28  27  26     1.528561446132   111.22122790   304.11313677
 C     27  26  19     1.384120495513   107.13403260   175.73995325
 C     25  24  20     1.405286287060   139.31949057   177.27299456
 C     31  25  24     1.413282909647   132.50430039     6.99975459
 N     32  31  25     1.323212450667   128.53356019     1.13585440
 S     33  32  31     1.618433040938   108.57934399   177.43305366
 N     34  33  32     1.618683129862    98.09914510     0.34347538
 C     35  34  33     1.323143190248   108.57188769   359.83734316
 C     36  35  34     1.414023668154   128.43665040   174.96359208
 C     30  27  26     1.415907272564   131.45781546   190.67947399
 N     38  30  27     1.379619861157   132.06355889    11.24637598
 C     39  38  30     1.446056097148   130.25687292    11.57875898
 C     40  39  38     1.528116135279   112.01694799   240.52897087
 C     39  38  30     1.368650478866   107.69508040   175.91823257
 C     42  39  38     1.400307424639   109.93385051     0.87326654
 S     43  42  39     1.729070742104   113.54448459   182.42104996
 C     44  43  42     1.750277548448    89.46076509     1.56581891
 C     42  39  38     1.397946305299   137.71794006   187.52450831
 S     46  42  39     1.719492129351   136.81580800     0.14398173
 C     47  46  42     1.761888298758    91.05382752   176.99810653
 C     48  47  46     1.389835320209   112.19133737   358.76230291
 C     49  48  47     1.496474066197   126.21757312   188.00957042
 C     50  49  48     1.529583163022   112.55099624   232.86106268
 C     48  47  46     1.415914000143   115.25696202   185.17194591
 C     52  48  47     1.361115988408   131.47325562   205.19722857
 C     53  52  48     1.444766551419   132.96962236    17.72621325
 C     54  53  52     1.371614010755   125.59258933    27.72255941
 C     55  54  53     1.408228172137   123.88661400   174.83676946
 N     56  55  54     1.148031213208   177.36626593   160.36071051
 C     55  54  53     1.408488857819   122.80232793   358.62589284
 N     58  55  54     1.148271001855   177.36435400   136.96414962
 C     54  53  52     1.458264675908   107.42216611   195.99381608
 C     60  54  53     1.380458978239   130.79949308   171.16896804
 C     61  60  54     1.390522659218   116.95056422   178.86349328
 C     62  61  60     1.415581473106   122.91037520   359.55836295
 C     63  62  61     1.398514265855   119.34506364     0.53161982
 C     64  63  62     1.373662625028   117.84045558     0.03386948
 C     65  64  63     1.474916701546   128.39901847   178.48466452
 O     66  65  64     1.210576699842   128.04888151     4.18459411
 C     63  62  61     1.423600784806   111.68498448   180.24403105
 C     68  63  62     1.350635480283   112.64867358   359.82555562
 S     69  68  63     1.729844764220   113.62988744     0.04682800
 S      6   5   4     1.735833501837   111.22343273   180.42040982
 C     71   6   5     1.729550015727    90.79855624   359.92375632
 C     72  71   6     1.350930957155   113.64364960     0.00000000
 H     72  71   6     1.072710434087   118.51098596   179.96337439
 H     69  68  63     1.072583668997   127.85844291   180.11126896
 H      4   3   1     1.079055435184   120.87688425   358.61537387
 H      7   6   5     1.077356132484   120.33810453   180.53941867
 H     16  15   9     1.085327306254   117.09281578    11.75976827
 H     22  21  17     1.093196747983   108.64905001   287.55421030
 H     22  21  17     1.092410085774   107.67767891   171.07531294
 H     23  22  21     1.086562208113   111.39890266   296.34265372
 H     23  22  21     1.086947050964   109.68952231   176.32219002
 H     23  22  21     1.087904440886   110.44496206    56.78213500
 H     28  27  26     1.084666233733   109.04870402   184.62501243
 H     28  27  26     1.094599090855   108.61553770    65.11342163
 H     29  28  27     1.088102226493   110.22435661   302.78078440
 H     29  28  27     1.086409072633   109.47411822   183.18265674
 H     29  28  27     1.086215621550   111.19189359    63.44060494
 H     40  39  38     1.096179074057   107.54610484   121.53619050
 H     40  39  38     1.090136838154   109.09161274     4.99229715
 H     41  40  39     1.087732023248   111.84658492    55.49463744
 H     41  40  39     1.086379121394   110.17595520   295.56061398
 H     41  40  39     1.086153312797   109.64510881   176.27671899
 H     50  49  48     1.094808940638   107.67327735   113.59430333
 H     50  49  48     1.090130765826   110.07180728   356.50819301
 H     51  50  49     1.086830743676   111.39424873    53.98726300
 H     51  50  49     1.086610326014   110.43456942   294.03676207
 H     51  50  49     1.087187219802   109.88015681   174.34954960
 H     52  48  47     1.087798077448   114.58309793    28.87462965
 H     61  60  54     1.077804398952   122.50938768   358.11379325
 H     64  63  62     1.078940981565   121.28250082   179.96288415
 H     68  63  62     1.074991803922   123.25899336   179.90963331
 H     73  72  71     1.075070396858   124.06477715   179.93536132

---------------------------
INTERNAL COORDINATES (A.U.)
---------------------------
 C      0   0   0     0.000000000000     0.00000000     0.00000000
 O      1   0   0     2.296493311850     0.00000000     0.00000000
 C      1   2   0     2.786821970803   126.49753135     0.00000000
 C      3   1   2     2.595482879551   127.94807407   358.14454771
 C      4   3   1     2.643062853624   117.83708676   178.56020712
 C      5   4   3     2.674319672976   119.23144511   359.80657067
 C      6   5   4     2.626743114432   122.97479240     0.17006468
 C      7   6   5     2.610819786517   117.03269003   359.95931479
 C      8   7   6     2.751728275230   131.04054352   180.32076897
 C      9   8   7     2.591648304364   126.14338403   351.92842783
 C     10   9   8     2.663549841273   124.08251080     3.84000732
 N     11  10   9     2.169747348256   176.91548485   174.26914886
 C     10   9   8     2.665013250681   124.36314979   186.20155581
 N     13  10   9     2.170561260967   176.14137864   156.55617228
 C      9   8   7     2.738948715647   107.78297680   176.37059128
 C     15   9   8     2.584704677928   125.32008886   195.81816166
 C     16  15   9     2.668722289383   128.58784495   185.95230899
 S     17  16  15     3.349044798654   114.38097254   215.43715501
 C     18  17  16     3.250082822655    90.90276913   178.87693342
 C     19  18  17     2.646421253789   110.99939735     3.43403440
 C     17  16  15     2.628803000452   133.47301864    38.66419957
 C     21  17  16     2.818988762705   127.60423417     4.70304155
 C     22  21  17     2.886377418372   113.29755153    49.95873989
 S     20  19  18     3.307831713804   113.06207374   178.84275543
 C     24  20  19     3.267261751109    89.29624640     1.62620991
 C     19  18  17     2.638757790576   137.15452292   184.51863515
 N     26  19  18     2.593498068840   137.62892455     2.81446528
 C     27  26  19     2.736860214135   119.56384665   330.42174752
 C     28  27  26     2.888562512059   111.22122790   304.11313677
 C     27  26  19     2.615608672868   107.13403260   175.73995325
 C     25  24  20     2.655606222299   139.31949057   177.27299456
 C     31  25  24     2.670717648984   132.50430039     6.99975459
 N     32  31  25     2.500509148755   128.53356019     1.13585440
 S     33  32  31     3.058395213462   108.57934399   177.43305366
 N     34  33  32     3.058867813038    98.09914510     0.34347538
 C     35  34  33     2.500378265532   108.57188769   359.83734316
 C     36  35  34     2.672117479694   128.43665040   174.96359208
 C     30  27  26     2.675676976174   131.45781546   190.67947399
 N     38  30  27     2.607103706506   132.06355889    11.24637598
 C     39  38  30     2.732649997897   130.25687292    11.57875898
 C     40  39  38     2.887720996503   112.01694799   240.52897087
 C     39  38  30     2.586374578117   107.69508040   175.91823257
 C     42  39  38     2.646197535865   109.93385051     0.87326654
 S     43  42  39     3.267470168752   113.54448459   182.42104996
 C     44  43  42     3.307545224917    89.46076509     1.56581891
 C     42  39  38     2.641735666943   137.71794006   187.52450831
 S     46  42  39     3.249369213906   136.81580800     0.14398173
 C     47  46  42     3.329486363213    91.05382752   176.99810653
 C     48  47  46     2.626408126445   112.19133737   358.76230291
 C     49  48  47     2.827926151628   126.21757312   188.00957042
 C     50  49  48     2.890493277168   112.55099624   232.86106268
 C     48  47  46     2.675689689455   115.25696202   185.17194591
 C     52  48  47     2.572136454593   131.47325562   205.19722857
 C     53  52  48     2.730213109632   132.96962236    17.72621325
 C     54  53  52     2.591974841777   125.59258933    27.72255941
 C     55  54  53     2.661165579411   123.88661400   174.83676946
 N     56  55  54     2.169464586157   177.36626593   160.36071051
 C     55  54  53     2.661658203957   122.80232793   358.62589284
 N     58  55  54     2.169917721028   177.36435400   136.96414962
 C     54  53  52     2.755720868237   107.42216611   195.99381608
 C     60  54  53     2.608689407984   130.79949308   171.16896804
 C     61  60  54     2.627707008935   116.95056422   178.86349328
 C     62  61  60     2.675061304423   122.91037520   359.55836295
 C     63  62  61     2.642808956848   119.34506364     0.53161982
 C     64  63  62     2.595846161707   117.84045558     0.03386948
 C     65  64  63     2.787188636269   128.39901847   178.48466452
 O     66  65  64     2.287658426807   128.04888151     4.18459411
 C     63  62  61     2.690215607319   111.68498448   180.24403105
 C     68  63  62     2.552331164493   112.64867358   359.82555562
 S     69  68  63     3.268932858574   113.62988744     0.04682800
 S      6   5   4     3.280249932558   111.22343273   180.42040982
 C     71   6   5     3.268375864643    90.79855624   359.92375632
 C     72  71   6     2.552889534859   113.64364960     0.00000000
 H     72  71   6     2.027128941425   118.51098596   179.96337439
 H     69  68  63     2.026889390122   127.85844291   180.11126896
 H      4   3   1     2.039119255817   120.87688425   358.61537387
 H      7   6   5     2.035908039095   120.33810453   180.53941867
 H     16  15   9     2.050971374486   117.09281578    11.75976827
 H     22  21  17     2.065842464181   108.64905001   287.55421030
 H     22  21  17     2.064355888046   107.67767891   171.07531294
 H     23  22  21     2.053305000803   111.39890266   296.34265372
 H     23  22  21     2.054032248396   109.68952231   176.32219002
 H     23  22  21     2.055841453152   110.44496206    56.78213500
 H     28  27  26     2.049722128467   109.04870402   184.62501243
 H     28  27  26     2.068492508155   108.61553770    65.11342163
 H     29  28  27     2.056215213783   110.22435661   302.78078440
 H     29  28  27     2.053015616684   109.47411822   183.18265674
 H     29  28  27     2.052650047117   111.19189359    63.44060494
 H     40  39  38     2.071478243703   107.54610484   121.53619050
 H     40  39  38     2.060060072610   109.09161274     4.99229715
 H     41  40  39     2.055515631035   111.84658492    55.49463744
 H     41  40  39     2.052959017044   110.17595520   295.56061398
 H     41  40  39     2.052532300638   109.64510881   176.27671899
 H     50  49  48     2.068889066773   107.67327735   113.59430333
 H     50  49  48     2.060048597573   110.07180728   356.50819301
 H     51  50  49     2.053812459474   111.39424873    53.98726300
 H     51  50  49     2.053395930457   110.43456942   294.03676207
 H     51  50  49     2.054486101724   109.88015681   174.34954960
 H     52  48  47     2.055640455383   114.58309793    28.87462965
 H     61  60  54     2.036755139955   122.50938768   358.11379325
 H     64  63  62     2.038902969822   121.28250082   179.96288415
 H     68  63  62     2.031440105623   123.25899336   179.90963331
 H     73  72  71     2.031588624747   124.06477715   179.93536132

---------------------
BASIS SET INFORMATION
---------------------
There are 5 groups of distinct atoms

 Group   1 Type C   : 7s4p1d contracted to 3s2p1d pattern {511/31/1}
 Group   2 Type O   : 7s4p1d contracted to 3s2p1d pattern {511/31/1}
 Group   3 Type N   : 7s4p1d contracted to 3s2p1d pattern {511/31/1}
 Group   4 Type S   : 10s7p1d contracted to 4s3p1d pattern {5311/511/1}
 Group   5 Type H   : 4s1p contracted to 2s1p pattern {31/1}

Atom   0C    basis set group =>   1
Atom   1O    basis set group =>   2
Atom   2C    basis set group =>   1
Atom   3C    basis set group =>   1
Atom   4C    basis set group =>   1
Atom   5C    basis set group =>   1
Atom   6C    basis set group =>   1
Atom   7C    basis set group =>   1
Atom   8C    basis set group =>   1
Atom   9C    basis set group =>   1
Atom  10C    basis set group =>   1
Atom  11N    basis set group =>   3
Atom  12C    basis set group =>   1
Atom  13N    basis set group =>   3
Atom  14C    basis set group =>   1
Atom  15C    basis set group =>   1
Atom  16C    basis set group =>   1
Atom  17S    basis set group =>   4
Atom  18C    basis set group =>   1
Atom  19C    basis set group =>   1
Atom  20C    basis set group =>   1
Atom  21C    basis set group =>   1
Atom  22C    basis set group =>   1
Atom  23S    basis set group =>   4
Atom  24C    basis set group =>   1
Atom  25C    basis set group =>   1
Atom  26N    basis set group =>   3
Atom  27C    basis set group =>   1
Atom  28C    basis set group =>   1
Atom  29C    basis set group =>   1
Atom  30C    basis set group =>   1
Atom  31C    basis set group =>   1
Atom  32N    basis set group =>   3
Atom  33S    basis set group =>   4
Atom  34N    basis set group =>   3
Atom  35C    basis set group =>   1
Atom  36C    basis set group =>   1
Atom  37C    basis set group =>   1
Atom  38N    basis set group =>   3
Atom  39C    basis set group =>   1
Atom  40C    basis set group =>   1
Atom  41C    basis set group =>   1
Atom  42C    basis set group =>   1
Atom  43S    basis set group =>   4
Atom  44C    basis set group =>   1
Atom  45C    basis set group =>   1
Atom  46S    basis set group =>   4
Atom  47C    basis set group =>   1
Atom  48C    basis set group =>   1
Atom  49C    basis set group =>   1
Atom  50C    basis set group =>   1
Atom  51C    basis set group =>   1
Atom  52C    basis set group =>   1
Atom  53C    basis set group =>   1
Atom  54C    basis set group =>   1
Atom  55C    basis set group =>   1
Atom  56N    basis set group =>   3
Atom  57C    basis set group =>   1
Atom  58N    basis set group =>   3
Atom  59C    basis set group =>   1
Atom  60C    basis set group =>   1
Atom  61C    basis set group =>   1
Atom  62C    basis set group =>   1
Atom  63C    basis set group =>   1
Atom  64C    basis set group =>   1
Atom  65C    basis set group =>   1
Atom  66O    basis set group =>   2
Atom  67C    basis set group =>   1
Atom  68C    basis set group =>   1
Atom  69S    basis set group =>   4
Atom  70S    basis set group =>   4
Atom  71C    basis set group =>   1
Atom  72C    basis set group =>   1
Atom  73H    basis set group =>   5
Atom  74H    basis set group =>   5
Atom  75H    basis set group =>   5
Atom  76H    basis set group =>   5
Atom  77H    basis set group =>   5
Atom  78H    basis set group =>   5
Atom  79H    basis set group =>   5
Atom  80H    basis set group =>   5
Atom  81H    basis set group =>   5
Atom  82H    basis set group =>   5
Atom  83H    basis set group =>   5
Atom  84H    basis set group =>   5
Atom  85H    basis set group =>   5
Atom  86H    basis set group =>   5
Atom  87H    basis set group =>   5
Atom  88H    basis set group =>   5
Atom  89H    basis set group =>   5
Atom  90H    basis set group =>   5
Atom  91H    basis set group =>   5
Atom  92H    basis set group =>   5
Atom  93H    basis set group =>   5
Atom  94H    basis set group =>   5
Atom  95H    basis set group =>   5
Atom  96H    basis set group =>   5
Atom  97H    basis set group =>   5
Atom  98H    basis set group =>   5
Atom  99H    basis set group =>   5
Atom 100H    basis set group =>   5
Atom 101H    basis set group =>   5
Atom 102H    basis set group =>   5
---------------------------------
AUXILIARY/J BASIS SET INFORMATION
---------------------------------
There are 5 groups of distinct atoms

 Group   1 Type C   : 12s5p4d2f1g contracted to 6s4p3d1f1g pattern {711111/2111/211/2/1}
 Group   2 Type O   : 12s5p4d2f1g contracted to 6s4p3d1f1g pattern {711111/2111/211/2/1}
 Group   3 Type N   : 12s5p4d2f1g contracted to 6s4p3d1f1g pattern {711111/2111/211/2/1}
 Group   4 Type S   : 14s5p5d2f1g contracted to 8s4p3d1f1g pattern {71111111/2111/311/2/1}
 Group   5 Type H   : 5s2p1d contracted to 3s1p1d pattern {311/2/1}

Atom   0C    basis set group =>   1
Atom   1O    basis set group =>   2
Atom   2C    basis set group =>   1
Atom   3C    basis set group =>   1
Atom   4C    basis set group =>   1
Atom   5C    basis set group =>   1
Atom   6C    basis set group =>   1
Atom   7C    basis set group =>   1
Atom   8C    basis set group =>   1
Atom   9C    basis set group =>   1
Atom  10C    basis set group =>   1
Atom  11N    basis set group =>   3
Atom  12C    basis set group =>   1
Atom  13N    basis set group =>   3
Atom  14C    basis set group =>   1
Atom  15C    basis set group =>   1
Atom  16C    basis set group =>   1
Atom  17S    basis set group =>   4
Atom  18C    basis set group =>   1
Atom  19C    basis set group =>   1
Atom  20C    basis set group =>   1
Atom  21C    basis set group =>   1
Atom  22C    basis set group =>   1
Atom  23S    basis set group =>   4
Atom  24C    basis set group =>   1
Atom  25C    basis set group =>   1
Atom  26N    basis set group =>   3
Atom  27C    basis set group =>   1
Atom  28C    basis set group =>   1
Atom  29C    basis set group =>   1
Atom  30C    basis set group =>   1
Atom  31C    basis set group =>   1
Atom  32N    basis set group =>   3
Atom  33S    basis set group =>   4
Atom  34N    basis set group =>   3
Atom  35C    basis set group =>   1
Atom  36C    basis set group =>   1
Atom  37C    basis set group =>   1
Atom  38N    basis set group =>   3
Atom  39C    basis set group =>   1
Atom  40C    basis set group =>   1
Atom  41C    basis set group =>   1
Atom  42C    basis set group =>   1
Atom  43S    basis set group =>   4
Atom  44C    basis set group =>   1
Atom  45C    basis set group =>   1
Atom  46S    basis set group =>   4
Atom  47C    basis set group =>   1
Atom  48C    basis set group =>   1
Atom  49C    basis set group =>   1
Atom  50C    basis set group =>   1
Atom  51C    basis set group =>   1
Atom  52C    basis set group =>   1
Atom  53C    basis set group =>   1
Atom  54C    basis set group =>   1
Atom  55C    basis set group =>   1
Atom  56N    basis set group =>   3
Atom  57C    basis set group =>   1
Atom  58N    basis set group =>   3
Atom  59C    basis set group =>   1
Atom  60C    basis set group =>   1
Atom  61C    basis set group =>   1
Atom  62C    basis set group =>   1
Atom  63C    basis set group =>   1
Atom  64C    basis set group =>   1
Atom  65C    basis set group =>   1
Atom  66O    basis set group =>   2
Atom  67C    basis set group =>   1
Atom  68C    basis set group =>   1
Atom  69S    basis set group =>   4
Atom  70S    basis set group =>   4
Atom  71C    basis set group =>   1
Atom  72C    basis set group =>   1
Atom  73H    basis set group =>   5
Atom  74H    basis set group =>   5
Atom  75H    basis set group =>   5
Atom  76H    basis set group =>   5
Atom  77H    basis set group =>   5
Atom  78H    basis set group =>   5
Atom  79H    basis set group =>   5
Atom  80H    basis set group =>   5
Atom  81H    basis set group =>   5
Atom  82H    basis set group =>   5
Atom  83H    basis set group =>   5
Atom  84H    basis set group =>   5
Atom  85H    basis set group =>   5
Atom  86H    basis set group =>   5
Atom  87H    basis set group =>   5
Atom  88H    basis set group =>   5
Atom  89H    basis set group =>   5
Atom  90H    basis set group =>   5
Atom  91H    basis set group =>   5
Atom  92H    basis set group =>   5
Atom  93H    basis set group =>   5
Atom  94H    basis set group =>   5
Atom  95H    basis set group =>   5
Atom  96H    basis set group =>   5
Atom  97H    basis set group =>   5
Atom  98H    basis set group =>   5
Atom  99H    basis set group =>   5
Atom 100H    basis set group =>   5
Atom 101H    basis set group =>   5
Atom 102H    basis set group =>   5
------------------------------------------------------------------------------
                           ORCA GTO INTEGRAL CALCULATION
                           -- RI-GTO INTEGRALS CHOSEN --
------------------------------------------------------------------------------

                         BASIS SET STATISTICS AND STARTUP INFO

Gaussian basis set:
 # of primitive gaussian shells          ... 1068
 # of primitive gaussian functions       ... 2046
 # of contracted shells                  ...  542
 # of contracted basis functions         ... 1200
 Highest angular momentum                ...    2
 Maximum contraction depth               ...    5
Auxiliary gaussian basis set:
 # of primitive gaussian shells          ... 2013
 # of primitive gaussian functions       ... 5639
 # of contracted shells                  ... 1259
 # of contracted aux-basis functions     ... 3921
 Highest angular momentum                ...    4
 Maximum contraction depth               ...    7
Ratio of auxiliary to basis functions    ...  3.27
Integral package used                  ... LIBINT
 One Electron integrals                  ... done
 Ordering auxiliary basis shells         ... done
 Integral threshhold             Thresh  ...  2.500e-11
 Primitive cut-off               TCut    ...  2.500e-12
 Pre-screening matrix                    ... done
 Shell pair data                         ... 
 Ordering of the shell pairs             ... done (   0.011 sec) 49129 of 147153 pairs
 Determination of significant pairs      ... done (   0.000 sec)
 Creation of shell pair data             ... done (   0.008 sec)
 Storage of shell pair data              ... done (   0.010 sec)
 Shell pair data done in (   0.030 sec)
 Computing two index integrals           ... done
 Cholesky decomposition of the V-matrix  ... done


Timings:
 Total evaluation time                   ...   2.432 sec (  0.041 min)
 One electron matrix time                ...   0.638 sec (  0.011 min) = 26.2%
 Schwartz matrix evaluation time         ...   0.802 sec (  0.013 min) = 33.0%
 Two index repulsion integral time       ...   0.396 sec (  0.007 min) = 16.3%
 Cholesky decomposition of V             ...   0.548 sec (  0.009 min) = 22.5%
 Three index repulsion integral time     ...   0.000 sec (  0.000 min) =  0.0%

-------------------------------------------------------------------------------
                                 ORCA SCF
-------------------------------------------------------------------------------

------------
SCF SETTINGS
------------
Hamiltonian:
 Density Functional     Method          .... DFT(GTOs)
 Exchange Functional    Exchange        .... WB88
 Correlation Functional Correlation     .... LYP
 LDA part of GGA corr.  LDAOpt          .... VWN-5
 Gradients option       PostSCFGGA      .... off
 Hybrid DFT is turned on
   Fraction HF Exchange ScalHFX         ....  0.190000
   Scaling of DF-GGA-X  ScalDFX         ....  0.350000
   Scaling of DF-GGA-C  ScalDFC         ....  0.810000
   Scaling of DF-LDA-C  ScalLDAC        ....  1.000000
   Perturbative correction              ....  0.000000
   Density functional embedding theory  .... OFF
 Long-range corrected/Screened/Range-Separated Hybrid DFT is turned on
   Amount of maximum screened exact exchange              ....  0.460000
   Range separation parameter mu (erf(mu*r12)/r12)        ....  0.330000
 RI-approximation to the Coulomb term is turned on
   Number of auxiliary basis functions  .... 3921
   RIJ-COSX (HFX calculated with COS-X)).... on


General Settings:
 Integral files         IntName         .... BTTPC
 Hartree-Fock type      HFTyp           .... RHF
 Total Charge           Charge          ....    0
 Multiplicity           Mult            ....    1
 Number of Electrons    NEL             ....  550
 Basis Dimension        Dim             .... 1200
 Nuclear Repulsion      ENuc            ....  11606.1277951423 Eh

Convergence Acceleration:
 DIIS                   CNVDIIS         .... on
   Start iteration      DIISMaxIt       ....    12
   Startup error        DIISStart       ....  0.200000
   # of expansion vecs  DIISMaxEq       ....     5
   Bias factor          DIISBfac        ....   1.050
   Max. coefficient     DIISMaxC        ....  10.000
 Newton-Raphson         CNVNR           .... off
 SOSCF                  CNVSOSCF        .... on
   Start iteration      SOSCFMaxIt      ....   150
   Startup grad/error   SOSCFStart      ....  0.003300
 Level Shifting         CNVShift        .... on
   Level shift para.    LevelShift      ....    0.2500
   Turn off err/grad.   ShiftErr        ....    0.0010
 Zerner damping         CNVZerner       .... off
 Static damping         CNVDamp         .... on
   Fraction old density DampFac         ....    0.7000
   Max. Damping (<1)    DampMax         ....    0.9800
   Min. Damping (>=0)   DampMin         ....    0.0000
   Turn off err/grad.   DampErr         ....    0.1000
 Fernandez-Rico         CNVRico         .... off

SCF Procedure:
 Maximum # iterations   MaxIter         ....   125
 SCF integral mode      SCFMode         .... Direct
   Integral package                     .... LIBINT
 Reset frequency        DirectResetFreq ....    20
 Integral Threshold     Thresh          ....  2.500e-11 Eh
 Primitive CutOff       TCut            ....  2.500e-12 Eh

Convergence Tolerance:
 Convergence Check Mode ConvCheckMode   .... Total+1el-Energy
 Convergence forced     ConvForced      .... 1
 Energy Change          TolE            ....  1.000e-08 Eh
 1-El. energy change                    ....  1.000e-05 Eh
 Orbital Gradient       TolG            ....  1.000e-05
 Orbital Rotation angle TolX            ....  1.000e-05
 DIIS Error             TolErr          ....  5.000e-07


Diagonalization of the overlap matrix:
Smallest eigenvalue                        ... 1.077e-04
Time for diagonalization                   ...    0.418 sec
Threshold for overlap eigenvalues          ... 1.000e-08
Number of eigenvalues below threshold      ... 0
Time for construction of square roots      ...    0.159 sec
Total time needed                          ...    0.582 sec

-------------------
DFT GRID GENERATION
-------------------

General Integration Accuracy     IntAcc      ...  4.670
Radial Grid Type                 RadialGrid  ... Gauss-Chebyshev
Angular Grid (max. acc.)         AngularGrid ... Lebedev-302
Angular grid pruning method      GridPruning ... 3 (G Style)
Weight generation scheme         WeightScheme... Becke
Basis function cutoff            BFCut       ...    1.0000e-11
Integration weight cutoff        WCut        ...    1.0000e-14
Grids for H and He will be reduced by one unit

# of grid points (after initial pruning)     ... 559734 (   1.4 sec)
# of grid points (after weights+screening)   ... 476713 (  23.9 sec)
nearest neighbour list constructed           ...    0.0 sec
Grid point re-assignment to atoms done       ...    0.1 sec
Grid point division into batches done        ...    1.8 sec
Reduced shell lists constructed in    8.9 sec

Total number of grid points                  ...   476713
Total number of batches                      ...     7502
Average number of points per batch           ...       63
Average number of grid points per atom       ...     4628
Average number of shells per batch           ...    98.91 (18.25%)
Average number of basis functions per batch  ...   205.05 (17.09%)
Average number of large shells per batch     ...    59.71 (60.37%)
Average number of large basis fcns per batch ...   125.34 (61.13%)
Maximum spatial batch extension              ...  20.94, 17.80, 21.77 au
Average spatial batch extension              ...   2.22,  2.07,  2.21 au

Time for grid setup =   34.249 sec

------------------------------
INITIAL GUESS: MODEL POTENTIAL
------------------------------
Loading Hartree-Fock densities                     ... done
Calculating cut-offs                               ... done
Setting up the integral package                    ... done
Initializing the effective Hamiltonian             ... done
Starting the Coulomb interaction                   ... done (   9.6 sec)
Reading the grid                                   ... done
Mapping shells                                     ... done
Starting the XC term evaluation                    ... done (   9.3 sec)
  promolecular density results
     # of electrons  =    549.986077057
     EX              =   -538.617361454
     EC              =    -19.320426463
     EX+EC           =   -557.937787917
Transforming the Hamiltonian                       ... done (   0.1 sec)
Diagonalizing the Hamiltonian                      ... done (   0.4 sec)
Back transforming the eigenvectors                 ... done (   0.1 sec)
Now organizing SCF variables                       ... done
                      ------------------
                      INITIAL GUESS DONE (  54.1 sec)
                      ------------------
--------------------
COSX GRID GENERATION
--------------------

General Integration Accuracy     IntAcc      ...  3.340
Radial Grid Type                 RadialGrid  ... Gauss-Chebyshev
Angular Grid (max. acc.)         AngularGrid ... Lebedev-50
Angular grid pruning method      GridPruning ... 3 (G Style)
Weight generation scheme         WeightScheme... Becke
Basis function cutoff            BFCut       ...    1.0000e-11
Integration weight cutoff        WCut        ...    1.0000e-14
Grids for H and He will be reduced by one unit

# of grid points (after initial pruning)     ...  52710 (   0.1 sec)
# of grid points (after weights+screening)   ...  46958 (   2.2 sec)
nearest neighbour list constructed           ...    0.0 sec
Grid point re-assignment to atoms done       ...    0.0 sec
Grid point division into batches done        ...    0.0 sec
Reduced shell lists constructed in    0.9 sec

Total number of grid points                  ...    46958
Total number of batches                      ...      790
Average number of points per batch           ...       59
Average number of grid points per atom       ...      456
Average number of shells per batch           ...   120.41 (22.22%)
Average number of basis functions per batch  ...   252.66 (21.06%)
Average number of large shells per batch     ...    72.97 (60.60%)
Average number of large basis fcns per batch ...   155.22 (61.43%)
Maximum spatial batch extension              ...  25.19, 20.52, 26.40 au
Average spatial batch extension              ...   4.70,  3.96,  4.83 au

Overlap Fitting                  UseSFitting ... on
Constructing numerical overlap ... done (      0.6 sec)
Inverting numerical overlap    ... done (      0.0 sec)
Obtaining analytic overlap     ... done (      0.0 sec)
Final contraction and storage  ... done (      0.1 sec)


General Integration Accuracy     IntAcc      ...  3.670
Radial Grid Type                 RadialGrid  ... Gauss-Chebyshev
Angular Grid (max. acc.)         AngularGrid ... Lebedev-50
Angular grid pruning method      GridPruning ... 3 (G Style)
Weight generation scheme         WeightScheme... Becke
Basis function cutoff            BFCut       ...    1.0000e-11
Integration weight cutoff        WCut        ...    1.0000e-14
Grids for H and He will be reduced by one unit

# of grid points (after initial pruning)     ...  65814 (   0.1 sec)
# of grid points (after weights+screening)   ...  58387 (   2.8 sec)
nearest neighbour list constructed           ...    0.0 sec
Grid point re-assignment to atoms done       ...    0.0 sec
Grid point division into batches done        ...    0.0 sec
Reduced shell lists constructed in    1.2 sec

Total number of grid points                  ...    58387
Total number of batches                      ...      958
Average number of points per batch           ...       60
Average number of grid points per atom       ...      567
Average number of shells per batch           ...   117.96 (21.76%)
Average number of basis functions per batch  ...   247.20 (20.60%)
Average number of large shells per batch     ...    71.28 (60.43%)
Average number of large basis fcns per batch ...   151.43 (61.26%)
Maximum spatial batch extension              ...  26.98, 18.96, 26.48 au
Average spatial batch extension              ...   4.49,  3.76,  4.52 au

Overlap Fitting                  UseSFitting ... on
Constructing numerical overlap ... done (      0.8 sec)
Inverting numerical overlap    ... done (      0.0 sec)
Obtaining analytic overlap     ... done (      0.0 sec)
Final contraction and storage  ... done (      0.1 sec)


General Integration Accuracy     IntAcc      ...  4.010
Radial Grid Type                 RadialGrid  ... Gauss-Chebyshev
Angular Grid (max. acc.)         AngularGrid ... Lebedev-110
Angular grid pruning method      GridPruning ... 3 (G Style)
Weight generation scheme         WeightScheme... Becke
Basis function cutoff            BFCut       ...    1.0000e-11
Integration weight cutoff        WCut        ...    1.0000e-14
Grids for H and He will be reduced by one unit

# of grid points (after initial pruning)     ... 128260 (   0.2 sec)
# of grid points (after weights+screening)   ... 112632 (   5.4 sec)
nearest neighbour list constructed           ...    0.0 sec
Grid point re-assignment to atoms done       ...    0.0 sec
Grid point division into batches done        ...    0.1 sec
Reduced shell lists constructed in    2.1 sec

Total number of grid points                  ...   112632
Total number of batches                      ...     1813
Average number of points per batch           ...       62
Average number of grid points per atom       ...     1094
Average number of shells per batch           ...   111.31 (20.54%)
Average number of basis functions per batch  ...   232.75 (19.40%)
Average number of large shells per batch     ...    67.65 (60.78%)
Average number of large basis fcns per batch ...   143.29 (61.56%)
Maximum spatial batch extension              ...  23.27, 22.12, 20.03 au
Average spatial batch extension              ...   3.64,  3.20,  3.63 au

Overlap Fitting                  UseSFitting ... on
Constructing numerical overlap ... done (      1.3 sec)
Inverting numerical overlap    ... done (      0.0 sec)
Obtaining analytic overlap     ... done (      0.0 sec)
Final contraction and storage  ... done (      0.1 sec)

Time for X-Grid setup             =   18.196 sec
--------------
SCF ITERATIONS
--------------
ITER       Energy         Delta-E        Max-DP      RMS-DP      [F,P]     Damp
               ***  Starting incremental Fock matrix formation  ***
  0  -5522.0146874376   0.000000000000 0.07887162  0.00099707  0.2282379 0.7000
  1  -5522.6535590026  -0.638871564986 0.04447636  0.00070000  0.0973418 0.7000
                               ***Turning on DIIS***
  2  -5522.9241433184  -0.270584315826 0.11428032  0.00124870  0.0429644 0.0000
  3  -5523.3626994170  -0.438556098647 0.06616840  0.00053124  0.0547412 0.0000
  4  -5523.4502667157  -0.087567298677 0.01588614  0.00016931  0.0207305 0.0000
  5  -5523.4564286825  -0.006161966749 0.00754514  0.00007134  0.0092325 0.0000
  6  -5523.4577918686  -0.001363186124 0.00475192  0.00004099  0.0020991 0.0000
                      *** Initiating the SOSCF procedure ***
                           *** Shutting down DIIS ***
                      *** Re-Reading the Fockian *** 
                      *** Removing any level shift *** 
ITER      Energy       Delta-E        Grad      Rot      Max-DP    RMS-DP
  7  -5523.45828906  -0.0004971875  0.002889  0.002889  0.002510  0.000025
               *** Restarting incremental Fock matrix formation ***
  8  -5523.45846157  -0.0001725150  0.002039  0.013301  0.002391  0.000030
  9  -5523.45861468  -0.0001531048  0.000462  0.011059  0.003238  0.000037
 10  -5523.45862493  -0.0000102563  0.000420  0.003476  0.000915  0.000013
 11  -5523.45865949  -0.0000345541  0.000093  0.000754  0.000510  0.000005
 12  -5523.45865917   0.0000003157  0.000156  0.000342  0.000265  0.000003
 13  -5523.45866104  -0.0000018682  0.000030  0.000165  0.000209  0.000002
 14  -5523.45866094   0.0000000969  0.000028  0.000074  0.000086  0.000001
 15  -5523.45866114  -0.0000001980  0.000004  0.000025  0.000042  0.000000
 16  -5523.45866112   0.0000000160  0.000005  0.000013  0.000020  0.000000
                  ***Gradient check signals convergence***
              ***Rediagonalizing the Fockian in SOSCF/NRSCF***

               *****************************************************
               *                     SUCCESS                       *
               *           SCF CONVERGED AFTER  17 CYCLES          *
               *****************************************************

Setting up the final grid:

General Integration Accuracy     IntAcc      ...  5.010
Radial Grid Type                 RadialGrid  ... Gauss-Chebyshev
Angular Grid (max. acc.)         AngularGrid ... Lebedev-434
Angular grid pruning method      GridPruning ... 3 (G Style)
Weight generation scheme         WeightScheme... Becke
Basis function cutoff            BFCut       ...    1.0000e-11
Integration weight cutoff        WCut        ...    1.0000e-14
Grids for H and He will be reduced by one unit

# of grid points (after initial pruning)     ... 988432 (   1.9 sec)
# of grid points (after weights+screening)   ... 838914 (  40.6 sec)
nearest neighbour list constructed           ...    0.0 sec
Grid point re-assignment to atoms done       ...    0.1 sec
Grid point division into batches done        ...    5.5 sec
Reduced shell lists constructed in   16.5 sec

Total number of grid points                  ...   838914
Total number of batches                      ...    13158
Average number of points per batch           ...       63
Average number of grid points per atom       ...     8145
Average number of shells per batch           ...    95.49 (17.62%)
Average number of basis functions per batch  ...   197.30 (16.44%)
Average number of large shells per batch     ...    57.57 (60.29%)
Average number of large basis fcns per batch ...   120.52 (61.08%)
Maximum spatial batch extension              ...  22.78, 21.14, 21.03 au
Average spatial batch extension              ...   1.82,  1.71,  1.79 au

Final grid set up in   59.0 sec
Final integration                            ... done (  20.1 sec)
Change in XC energy                          ...     0.000001620
Integrated number of electrons               ...   549.999834861
Previous integrated no of electrons          ...   550.000265790
Old exchange energy                            =   -146.872931197 Eh
New exchange energy                            =   -146.870840089 Eh
Exchange energy change after final integration =      0.002091108 Eh
Total energy after final integration           =  -5523.456568415 Eh
Final COS-X integration done in                =   410.796 sec

----------------
TOTAL SCF ENERGY
----------------

Total Energy       :        -5523.45656841 Eh         -150300.89438 eV

Components:
Nuclear Repulsion  :        11606.12779514 Eh          315818.79322 eV
Electronic Energy  :       -17129.58436356 Eh         -466119.68760 eV
One Electron Energy:       -30686.67030701 Eh         -835026.75099 eV
Two Electron Energy:        13557.08594345 Eh          368907.06339 eV

Virial components:
Potential Energy   :       -11014.74882149 Eh         -299726.55324 eV
Kinetic Energy     :         5491.29225307 Eh          149425.65886 eV
Virial Ratio       :            2.00585733


DFT components:
N(Alpha)           :      274.999917430258 electrons
N(Beta)            :      274.999917430258 electrons
N(Total)           :      549.999834860515 electrons
E(XC)              :     -419.332242669119 Eh       
DFET-embed. en.    :        0.000000000000 Eh       

---------------
SCF CONVERGENCE
---------------

  Last Energy change         ...   -1.8585e-08  Tolerance :   1.0000e-08
  Last MAX-Density change    ...    7.9936e-15  Tolerance :   1.0000e-07
  Last RMS-Density change    ...    3.5880e-17  Tolerance :   5.0000e-09
  Last Orbital Gradient      ...    7.7654e-07  Tolerance :   1.0000e-05
  Last Orbital Rotation      ...    6.3140e-06  Tolerance :   1.0000e-05

             **** THE GBW FILE WAS UPDATED (BTTPC.gbw) ****
             **** DENSITY FILE WAS UPDATED (BTTPC.scfp) ****
             **** ENERGY FILE WAS UPDATED (BTTPC.en.tmp) ****
             **** THE GBW FILE WAS UPDATED (BTTPC.gbw) ****
             **** DENSITY FILE WAS UPDATED (BTTPC.scfp) ****
----------------
ORBITAL ENERGIES
----------------

  NO   OCC          E(Eh)            E(eV) 
   0   2.0000     -89.004480     -2421.9350 
   1   2.0000     -88.968329     -2420.9513 
   2   2.0000     -88.968125     -2420.9458 
   3   2.0000     -88.965772     -2420.8817 
   4   2.0000     -88.964481     -2420.8466 
   5   2.0000     -88.962782     -2420.8004 
   6   2.0000     -88.962579     -2420.7948 
   7   2.0000     -19.212416      -522.7964 
   8   2.0000     -19.211174      -522.7626 
   9   2.0000     -14.483831      -394.1251 
  10   2.0000     -14.479886      -394.0177 
  11   2.0000     -14.427820      -392.6009 
  12   2.0000     -14.427341      -392.5879 
  13   2.0000     -14.413487      -392.2109 
  14   2.0000     -14.411482      -392.1564 
  15   2.0000     -14.411013      -392.1436 
  16   2.0000     -14.410611      -392.1327 
  17   2.0000     -10.362932      -281.9897 
  18   2.0000     -10.362376      -281.9746 
  19   2.0000     -10.338907      -281.3360 
  20   2.0000     -10.338226      -281.3174 
  21   2.0000     -10.337241      -281.2906 
  22   2.0000     -10.336104      -281.2597 
  23   2.0000     -10.336004      -281.2570 
  24   2.0000     -10.335740      -281.2498 
  25   2.0000     -10.334785      -281.2238 
  26   2.0000     -10.332762      -281.1688 
  27   2.0000     -10.319858      -280.8176 
  28   2.0000     -10.319815      -280.8164 
  29   2.0000     -10.319711      -280.8136 
  30   2.0000     -10.319542      -280.8090 
  31   2.0000     -10.319389      -280.8049 
  32   2.0000     -10.318698      -280.7860 
  33   2.0000     -10.317845      -280.7628 
  34   2.0000     -10.317781      -280.7611 
  35   2.0000     -10.317442      -280.7519 
  36   2.0000     -10.317161      -280.7442 
  37   2.0000     -10.316098      -280.7153 
  38   2.0000     -10.314039      -280.6593 
  39   2.0000     -10.313814      -280.6531 
  40   2.0000     -10.313185      -280.6360 
  41   2.0000     -10.312981      -280.6305 
  42   2.0000     -10.312825      -280.6262 
  43   2.0000     -10.312253      -280.6107 
  44   2.0000     -10.311598      -280.5928 
  45   2.0000     -10.305562      -280.4286 
  46   2.0000     -10.305446      -280.4255 
  47   2.0000     -10.305240      -280.4198 
  48   2.0000     -10.304866      -280.4097 
  49   2.0000     -10.304850      -280.4092 
  50   2.0000     -10.304027      -280.3868 
  51   2.0000     -10.302625      -280.3487 
  52   2.0000     -10.302604      -280.3481 
  53   2.0000     -10.302269      -280.3390 
  54   2.0000     -10.300581      -280.2931 
  55   2.0000     -10.300232      -280.2836 
  56   2.0000     -10.299127      -280.2535 
  57   2.0000     -10.297761      -280.2163 
  58   2.0000     -10.296092      -280.1709 
  59   2.0000     -10.292985      -280.0864 
  60   2.0000     -10.292810      -280.0816 
  61   2.0000     -10.290779      -280.0263 
  62   2.0000     -10.289047      -279.9792 
  63   2.0000     -10.288855      -279.9740 
  64   2.0000     -10.288154      -279.9549 
  65   2.0000     -10.287308      -279.9319 
  66   2.0000     -10.287188      -279.9286 
  67   2.0000     -10.282084      -279.7897 
  68   2.0000     -10.282044      -279.7886 
  69   2.0000     -10.276197      -279.6295 
  70   2.0000     -10.268380      -279.4168 
  71   2.0000     -10.262300      -279.2514 
  72   2.0000     -10.256199      -279.0854 
  73   2.0000      -8.096701      -220.3224 
  74   2.0000      -8.062942      -219.4038 
  75   2.0000      -8.062913      -219.4030 
  76   2.0000      -8.062017      -219.3786 
  77   2.0000      -8.060760      -219.3444 
  78   2.0000      -8.056838      -219.2377 
  79   2.0000      -8.056461      -219.2274 
  80   2.0000      -6.068227      -165.1249 
  81   2.0000      -6.060563      -164.9163 
  82   2.0000      -6.058306      -164.8549 
  83   2.0000      -6.032606      -164.1555 
  84   2.0000      -6.032568      -164.1545 
  85   2.0000      -6.031524      -164.1261 
  86   2.0000      -6.030257      -164.0916 
  87   2.0000      -6.028458      -164.0427 
  88   2.0000      -6.028436      -164.0421 
  89   2.0000      -6.027235      -164.0094 
  90   2.0000      -6.026693      -163.9947 
  91   2.0000      -6.026369      -163.9859 
  92   2.0000      -6.025984      -163.9754 
  93   2.0000      -6.024472      -163.9342 
  94   2.0000      -6.024365      -163.9313 
  95   2.0000      -6.023695      -163.9131 
  96   2.0000      -6.022693      -163.8858 
  97   2.0000      -6.022428      -163.8786 
  98   2.0000      -6.022272      -163.8743 
  99   2.0000      -6.017839      -163.7537 
 100   2.0000      -6.017492      -163.7443 
 101   2.0000      -1.126757       -30.6606 
 102   2.0000      -1.126117       -30.6432 
 103   2.0000      -1.115862       -30.3642 
 104   2.0000      -1.107972       -30.1495 
 105   2.0000      -1.100668       -29.9507 
 106   2.0000      -1.019062       -27.7301 
 107   2.0000      -1.016634       -27.6640 
 108   2.0000      -1.011793       -27.5323 
 109   2.0000      -1.010438       -27.4954 
 110   2.0000      -1.005629       -27.3646 
 111   2.0000      -1.004867       -27.3438 
 112   2.0000      -0.990826       -26.9617 
 113   2.0000      -0.989544       -26.9269 
 114   2.0000      -0.982761       -26.7423 
 115   2.0000      -0.981721       -26.7140 
 116   2.0000      -0.969973       -26.3943 
 117   2.0000      -0.963937       -26.2301 
 118   2.0000      -0.952838       -25.9280 
 119   2.0000      -0.945181       -25.7197 
 120   2.0000      -0.927934       -25.2504 
 121   2.0000      -0.926230       -25.2040 
 122   2.0000      -0.908667       -24.7261 
 123   2.0000      -0.898373       -24.4460 
 124   2.0000      -0.896310       -24.3898 
 125   2.0000      -0.893346       -24.3092 
 126   2.0000      -0.892126       -24.2760 
 127   2.0000      -0.885917       -24.1070 
 128   2.0000      -0.880058       -23.9476 
 129   2.0000      -0.878489       -23.9049 
 130   2.0000      -0.867584       -23.6082 
 131   2.0000      -0.865437       -23.5498 
 132   2.0000      -0.854671       -23.2568 
 133   2.0000      -0.842707       -22.9312 
 134   2.0000      -0.829335       -22.5674 
 135   2.0000      -0.825612       -22.4660 
 136   2.0000      -0.821631       -22.3577 
 137   2.0000      -0.820394       -22.3241 
 138   2.0000      -0.816123       -22.2078 
 139   2.0000      -0.803383       -21.8612 
 140   2.0000      -0.801385       -21.8068 
 141   2.0000      -0.792771       -21.5724 
 142   2.0000      -0.780066       -21.2267 
 143   2.0000      -0.761103       -20.7107 
 144   2.0000      -0.753768       -20.5111 
 145   2.0000      -0.751724       -20.4555 
 146   2.0000      -0.748689       -20.3729 
 147   2.0000      -0.745900       -20.2970 
 148   2.0000      -0.729819       -19.8594 
 149   2.0000      -0.723099       -19.6765 
 150   2.0000      -0.719327       -19.5739 
 151   2.0000      -0.714269       -19.4363 
 152   2.0000      -0.705151       -19.1881 
 153   2.0000      -0.697216       -18.9722 
 154   2.0000      -0.695546       -18.9268 
 155   2.0000      -0.687046       -18.6955 
 156   2.0000      -0.684860       -18.6360 
 157   2.0000      -0.679884       -18.5006 
 158   2.0000      -0.672408       -18.2972 
 159   2.0000      -0.660848       -17.9826 
 160   2.0000      -0.658904       -17.9297 
 161   2.0000      -0.657912       -17.9027 
 162   2.0000      -0.652666       -17.7599 
 163   2.0000      -0.648592       -17.6491 
 164   2.0000      -0.636908       -17.3311 
 165   2.0000      -0.630425       -17.1547 
 166   2.0000      -0.628653       -17.1065 
 167   2.0000      -0.617856       -16.8127 
 168   2.0000      -0.616678       -16.7807 
 169   2.0000      -0.612900       -16.6779 
 170   2.0000      -0.605247       -16.4696 
 171   2.0000      -0.595530       -16.2052 
 172   2.0000      -0.593739       -16.1565 
 173   2.0000      -0.591902       -16.1065 
 174   2.0000      -0.587515       -15.9871 
 175   2.0000      -0.581342       -15.8191 
 176   2.0000      -0.579003       -15.7555 
 177   2.0000      -0.576902       -15.6983 
 178   2.0000      -0.571848       -15.5608 
 179   2.0000      -0.566950       -15.4275 
 180   2.0000      -0.558428       -15.1956 
 181   2.0000      -0.553209       -15.0536 
 182   2.0000      -0.551116       -14.9966 
 183   2.0000      -0.549266       -14.9463 
 184   2.0000      -0.546141       -14.8613 
 185   2.0000      -0.543308       -14.7842 
 186   2.0000      -0.542540       -14.7633 
 187   2.0000      -0.540467       -14.7069 
 188   2.0000      -0.534428       -14.5425 
 189   2.0000      -0.533725       -14.5234 
 190   2.0000      -0.531576       -14.4649 
 191   2.0000      -0.530946       -14.4478 
 192   2.0000      -0.530227       -14.4282 
 193   2.0000      -0.528057       -14.3692 
 194   2.0000      -0.526419       -14.3246 
 195   2.0000      -0.521543       -14.1919 
 196   2.0000      -0.521237       -14.1836 
 197   2.0000      -0.515030       -14.0147 
 198   2.0000      -0.513178       -13.9643 
 199   2.0000      -0.510360       -13.8876 
 200   2.0000      -0.505918       -13.7667 
 201   2.0000      -0.502510       -13.6740 
 202   2.0000      -0.500039       -13.6067 
 203   2.0000      -0.499029       -13.5793 
 204   2.0000      -0.496575       -13.5125 
 205   2.0000      -0.495379       -13.4799 
 206   2.0000      -0.490818       -13.3558 
 207   2.0000      -0.489678       -13.3248 
 208   2.0000      -0.488390       -13.2898 
 209   2.0000      -0.486403       -13.2357 
 210   2.0000      -0.484357       -13.1800 
 211   2.0000      -0.483977       -13.1697 
 212   2.0000      -0.482757       -13.1365 
 213   2.0000      -0.479158       -13.0385 
 214   2.0000      -0.474923       -12.9233 
 215   2.0000      -0.470999       -12.8165 
 216   2.0000      -0.469368       -12.7721 
 217   2.0000      -0.467283       -12.7154 
 218   2.0000      -0.465201       -12.6588 
 219   2.0000      -0.462023       -12.5723 
 220   2.0000      -0.457505       -12.4493 
 221   2.0000      -0.456991       -12.4353 
 222   2.0000      -0.453389       -12.3373 
 223   2.0000      -0.452131       -12.3031 
 224   2.0000      -0.451741       -12.2925 
 225   2.0000      -0.451022       -12.2729 
 226   2.0000      -0.446969       -12.1626 
 227   2.0000      -0.445811       -12.1311 
 228   2.0000      -0.445345       -12.1184 
 229   2.0000      -0.444510       -12.0957 
 230   2.0000      -0.443062       -12.0563 
 231   2.0000      -0.440638       -11.9904 
 232   2.0000      -0.439462       -11.9584 
 233   2.0000      -0.437230       -11.8976 
 234   2.0000      -0.433850       -11.8057 
 235   2.0000      -0.432418       -11.7667 
 236   2.0000      -0.430394       -11.7116 
 237   2.0000      -0.429686       -11.6924 
 238   2.0000      -0.428270       -11.6538 
 239   2.0000      -0.425561       -11.5801 
 240   2.0000      -0.423927       -11.5356 
 241   2.0000      -0.422220       -11.4892 
 242   2.0000      -0.419174       -11.4063 
 243   2.0000      -0.419006       -11.4017 
 244   2.0000      -0.417532       -11.3616 
 245   2.0000      -0.415372       -11.3028 
 246   2.0000      -0.413130       -11.2418 
 247   2.0000      -0.411573       -11.1995 
 248   2.0000      -0.406620       -11.0647 
 249   2.0000      -0.404511       -11.0073 
 250   2.0000      -0.401923       -10.9369 
 251   2.0000      -0.399551       -10.8723 
 252   2.0000      -0.395866       -10.7721 
 253   2.0000      -0.390732       -10.6324 
 254   2.0000      -0.389568       -10.6007 
 255   2.0000      -0.387042       -10.5319 
 256   2.0000      -0.374401       -10.1880 
 257   2.0000      -0.372601       -10.1390 
 258   2.0000      -0.360256        -9.8031 
 259   2.0000      -0.354529        -9.6472 
 260   2.0000      -0.353980        -9.6323 
 261   2.0000      -0.340904        -9.2765 
 262   2.0000      -0.336278        -9.1506 
 263   2.0000      -0.333352        -9.0710 
[...]
  15      4.41     281.2    94 ->  98      gap,J,K:    5.803     1.559     0.082
  16      4.42     280.7    91 ->  97      gap,J,K:    5.676     1.522     0.131
  17      4.45     278.5    89 ->  96      gap,J,K:    5.910     1.775     0.158
  18      4.47     277.2    88 ->  96      gap,J,K:    5.949     1.669     0.096
  19      4.51     274.8    94 ->  99      gap,J,K:    5.931     1.481     0.031
  20      4.52     274.4    95 -> 101      gap,J,K:    6.092     1.818     0.122
  21      4.56     271.8    93 ->  99      gap,J,K:    6.036     1.671     0.098
  22      4.60     269.4    86 ->  96      gap,J,K:    6.029     1.597     0.085
  23      4.60     269.3    87 ->  96      gap,J,K:    6.009     1.601     0.098
  24      4.62     268.2    94 -> 100      gap,J,K:    6.375     2.333     0.290

average / max PT2 energy lowering (eV):       0.040       0.090

CSF included by PT:                   220 
total number of CSF included:         259 
 
sTD-DFT procedure...
setting up A+B and A-B matrices...  done
estimated time (min):    0.001
calculating (A-B)^0.5 ... done
calculating (A+B)*(A-B)^0.5 ... done
calculating (A-B)^0.5 *(A+B)*(A-B)^0.5 ... done
diagonalizing ...using LAPACKE_ssyevr ...done

   41 roots found, lowest/highest eigenvalue :     2.116     4.958

excitation energies, transition moments and amplitudes

molecular weight: 1071.330
state   eV        nm        fL         fV        Rl        RV
   0   2.116     585.9   2.182395   2.446696  -532.057747  -537.872859     0.86 (  95->  96)    0.08 (  93->  97)    0.01 (  95->  97)
   1   2.449     506.2   0.260073   0.284449  415.542333  435.378415     0.80 (  95->  97)    0.12 (  93->  96)    0.01 (  94->  96)
   2   3.070     403.8   0.151087   0.145000  -25.192341  -44.399052     0.72 (  95->  98)    0.08 (  93->  99)    0.03 (  95-> 100)
   3   3.099     400.1   0.076591   0.067688  -116.007836  -101.681748     0.60 (  94->  96)    0.16 (  92->  97)    0.08 (  94->  97)
   4   3.197     387.8   0.205866   0.190120  83.911543  66.999414     0.48 (  95->  99)    0.11 (  92->  96)    0.10 (  93->  98)
   5   3.205     386.9   0.043658   0.041408  28.049027  26.425100     0.31 (  92->  96)    0.29 (  94->  97)    0.15 (  95->  99)
   6   3.325     372.9   0.023114   0.023196  61.036423  58.064426     0.42 (  93->  96)    0.16 (  95-> 100)    0.09 (  95->  97)
   7   3.372     367.6   0.040666   0.040091  32.551078  28.723556     0.56 (  95-> 100)    0.16 (  93->  96)    0.04 (  95-> 101)
   8   3.505     353.7   0.122404   0.109486  181.680564  162.706194     0.50 (  91->  96)    0.12 (  91->  97)    0.11 (  93->  97)
   9   3.543     349.9   0.203014   0.189041  -114.398744  -115.842076     0.39 (  90->  96)    0.18 (  90->  97)    0.17 (  91->  97)
  10   3.581     346.2   0.194945   0.200245  -38.633849  -23.699626     0.23 (  93->  97)    0.16 (  89->  96)    0.13 (  90->  97)
  11   3.721     333.2   0.056262   0.056413  -31.906105  -28.869476     0.23 (  88->  96)    0.22 (  92->  97)    0.09 (  94->  96)
  12   3.735     332.0   0.022082   0.020817  -73.913096  -77.076911     0.14 (  87->  96)    0.11 (  88->  97)    0.10 (  90->  99)
  13   3.775     328.4   0.128505   0.119550  205.587402  201.386969     0.16 (  92->  97)    0.15 (  86->  96)    0.09 (  87->  96)
  14   3.822     324.4   0.083425   0.078656  -75.515719  -73.177187     0.19 (  94->  97)    0.15 (  92->  96)    0.12 (  83->  96)
  15   3.860     321.2   0.077795   0.075111  -40.957861  -40.181191     0.20 (  93->  97)    0.16 (  92->  96)    0.11 (  94->  97)
  16   3.892     318.5   0.024728   0.021172  -34.298943  -27.268243     0.24 (  85->  96)    0.23 (  85->  97)    0.05 (  85->  99)
  17   4.082     303.7   0.143184   0.126569  267.406481  251.499914     0.18 (  83->  98)    0.17 (  93->  98)    0.09 (  83->  96)
  18   4.114     301.4   0.198645   0.178317  -200.729524  -205.304000     0.22 (  85->  99)    0.13 (  85->  98)    0.06 (  85->  97)
  19   4.168     297.5   0.187636   0.163007  -65.470210  -62.907393     0.21 (  92->  98)    0.12 (  94->  98)    0.11 (  94->  99)
  20   4.189     295.9   0.146410   0.122374  293.623178  273.670403     0.31 (  94->  98)    0.09 (  94-> 100)    0.08 (  92->  99)
  21   4.208     294.7   0.323972   0.284824  -587.359344  -549.792332     0.19 (  91->  98)    0.12 (  94->  99)    0.08 (  92->  98)
  22   4.246     292.0   0.310969   0.269039  648.704713  603.322364     0.27 (  95-> 101)    0.07 (  94-> 100)    0.06 (  90->  98)
  23   4.270     290.3   0.064328   0.056866  -331.572968  -315.593861     0.19 (  94-> 100)    0.11 (  94->  98)    0.07 (  92->  99)
  24   4.293     288.8   0.326045   0.288140  182.627133  179.098702     0.14 (  94-> 100)    0.12 (  93->  98)    0.10 (  90->  99)
  25   4.305     288.0   0.129916   0.109058  -250.925802  -232.666291     0.09 (  90->  99)    0.09 (  95-> 101)    0.09 (  90->  98)
  26   4.350     285.0   0.043429   0.035514  -49.754780  -42.650393     0.13 (  94->  99)    0.10 (  92-> 100)    0.10 (  92->  97)
  27   4.376     283.3   0.011867   0.009603  22.318518  20.664648     0.18 (  88->  96)    0.18 (  92->  97)    0.11 (  86->  96)
  28   4.410     281.2   0.023808   0.022251  85.545057  76.841774     0.25 (  89->  96)    0.09 (  95-> 101)    0.08 (  93->  97)
  29   4.489     276.2   0.210004   0.186678  65.367405  55.890457     0.29 (  93->  99)    0.15 (  95-> 101)    0.07 (  95->  98)
  30   4.576     270.9   0.201728   0.166593  -344.964712  -307.590884     0.44 (  95-> 102)    0.20 (  93-> 100)    0.08 (  89->  97)
  31   4.609     269.0   0.004450   0.003779  18.032040  21.415764     0.41 (  92-> 100)    0.15 (  84->  96)    0.11 (  92->  98)
  32   4.634     267.6   0.012732   0.011174  42.860621  42.100416     0.25 (  89->  97)    0.11 (  82->  96)    0.11 (  93-> 100)
  33   4.695     264.1   0.052955   0.047073  46.097627  49.004121     0.39 (  93-> 100)    0.22 (  95-> 102)    0.05 (  94-> 100)
  34   4.806     258.0   0.048127   0.040022  214.631865  198.005627     0.20 (  90->  96)    0.14 (  90->  97)    0.08 (  91->  97)
  35   4.826     256.9   0.055143   0.042576  -157.464090  -143.396046     0.17 (  91->  97)    0.16 (  91->  96)    0.13 (  90->  97)
  36   4.843     256.0   0.003326   0.002688  10.833797   8.907659     0.17 (  94->  98)    0.16 (  92->  99)    0.09 (  86->  98)
  37   4.874     254.4   0.242512   0.191038  -543.384959  -484.066754     0.24 (  87->  98)    0.11 (  88->  99)    0.08 (  91->  96)
  38   4.886     253.8   0.095029   0.077416  663.167665  602.283950     0.16 (  90->  96)    0.13 (  87->  99)    0.10 (  88->  98)
  39   4.924     251.8   0.011344   0.009067  -22.860088  -18.601778     0.22 (  94->  99)    0.20 (  92->  98)    0.11 (  92-> 100)
  40   4.958     250.0   0.000489   0.000375   4.113349   3.616802     0.29 (  84->  96)    0.20 (  88->  97)    0.11 (  86->  97)

-----------------------------------------------------------------------------
         ABSORPTION SPECTRUM VIA TRANSITION ELECTRIC DIPOLE MOMENTS
-----------------------------------------------------------------------------
State   Energy  Wavelength   fosc         T2         TX        TY        TZ  
        (cm-1)    (nm)                  (au**2)     (au)      (au)      (au) 
-----------------------------------------------------------------------------
   0   17067.5    585.9   2.182395395  42.09583  -0.03072  -6.48084  -0.30602
   1   19755.1    506.2   0.260073352   4.33403   0.40625  -1.01790   1.76999
   2   24764.1    403.8   0.151086860   2.00854  -0.05600  -1.36249  -0.38604
   3   24992.0    400.1   0.076591444   1.00892   0.07469  -0.12170   0.99425
   4   25789.0    387.8   0.205865549   2.62799  -0.64973  -0.95836  -1.13463
   5   25847.2    386.9   0.043658127   0.55607   0.51055  -0.53896   0.07022
   6   26819.2    372.9   0.023113811   0.28373   0.24040  -0.20736  -0.42771
   7   27201.0    367.6   0.040666245   0.49218   0.08341   0.31544  -0.62106
   8   28273.3    353.7   0.122404270   1.42527  -0.83696   0.84740  -0.08170
   9   28576.2    349.9   0.203014053   2.33882   1.40497   0.59410   0.10922
  10   28883.3    346.2   0.194944876   2.22198   0.09725   1.45916   0.28875
  11   30015.4    333.2   0.056261946   0.61709  -0.63245   0.11060   0.45262
  12   30122.7    332.0   0.022082286   0.24134   0.18303   0.38077   0.25070
  13   30448.4    328.4   0.128505191   1.38942   0.84421  -0.60074   0.56198
  14   30829.1    324.4   0.083424862   0.89086   0.02794  -0.72945   0.59831
  15   31131.4    321.2   0.077794941   0.82267   0.25805  -0.78966   0.36404
  16   31394.2    318.5   0.024727579   0.25930   0.36138   0.33211   0.13570
  17   32927.0    303.7   0.143183759   1.43159  -1.16323   0.25554  -0.11478
  18   33178.9    301.4   0.198645116   1.97102  -0.89986  -0.97613  -0.45658
  19   33616.9    297.5   0.187635776   1.83753   1.17246  -0.29155  -0.61471
  20   33790.3    295.9   0.146409926   1.42644   0.37928  -0.65285   0.92540
  21   33937.6    294.7   0.323971836   3.14269   1.39031  -0.79081  -0.76442
  22   34247.3    292.0   0.310968673   2.98927  -1.35730  -0.96885  -0.45642
  23   34442.8    290.3   0.064327953   0.61486   0.00217  -0.20715  -0.75627
  24   34621.3    288.8   0.326045171   3.10034   1.12139   1.34429  -0.18900
  25   34722.3    288.0   0.129915923   1.23177  -0.35554  -0.95148  -0.44728
  26   35088.0    285.0   0.043429333   0.40747   0.37702  -0.48878   0.16256
  27   35297.5    283.3   0.011867466   0.11069   0.05264  -0.31515  -0.09272
  28   35567.5    281.2   0.023807957   0.22037  -0.30524  -0.25558  -0.24874
  29   36204.0    276.2   0.210003864   1.90962   0.12258   1.37478  -0.06770
  30   36910.7    270.9   0.201728013   1.79924  -0.58174  -0.36800   1.15126
  31   37170.6    269.0   0.004450446   0.03942   0.08965   0.03049   0.17450
  32   37374.7    267.6   0.012731553   0.11214   0.02291   0.14258   0.30214
  33   37868.7    264.1   0.052955211   0.46037   0.03343   0.01390   0.67754
  34   38767.0    258.0   0.048127220   0.40870   0.60909   0.15288   0.11976
  35   38927.3    256.9   0.055143362   0.46635  -0.08656   0.54238  -0.40581
  36   39060.6    256.0   0.003325676   0.02803  -0.14249   0.07006  -0.05308
  37   39314.6    254.4   0.242511964   2.03074  -0.08459  -1.04031   0.97022
  38   39407.3    253.8   0.095029314   0.79388  -0.89016  -0.03059  -0.02373
  39   39711.5    251.8   0.011343817   0.09404  -0.13608  -0.17319  -0.21338
  40   39992.6    250.0   0.000488685   0.00402  -0.05438   0.02181  -0.02428

-----------------------------------------------------------------------------
         ABSORPTION SPECTRUM VIA TRANSITION VELOCITY DIPOLE MOMENTS
-----------------------------------------------------------------------------
State   Energy  Wavelength   fosc         P2         PX        PY        PZ  
        (cm-1)    (nm)                  (au**2)     (au)      (au)      (au) 
-----------------------------------------------------------------------------
   0   17067.5    585.9   2.446695963   0.28540  -0.00280  -0.53370  -0.02371
   1   19755.1    506.2   0.284449032   0.03841   0.03748  -0.09534   0.16707
   2   24764.1    403.8   0.145000254   0.02454  -0.00620  -0.14957  -0.04618
   3   24992.0    400.1   0.067687614   0.01156   0.00928  -0.01185   0.10647
   4   25789.0    387.8   0.190120382   0.03351  -0.07478  -0.10404  -0.13074
   5   25847.2    386.9   0.041407775   0.00731   0.06053  -0.05950   0.01052
   6   26819.2    372.9   0.023196382   0.00425   0.02996  -0.02047  -0.05418
   7   27201.0    367.6   0.040091375   0.00745   0.01054   0.04063  -0.07544
   8   28273.3    353.7   0.109485744   0.02116  -0.10567   0.09967  -0.00753
   9   28576.2    349.9   0.189040526   0.03692   0.17833   0.07020   0.01383
  10   28883.3    346.2   0.200244700   0.03953   0.01490   0.19515   0.03499
  11   30015.4    333.2   0.056412587   0.01157  -0.08524   0.01537   0.06379
  12   30122.7    332.0   0.020816924   0.00429   0.02456   0.04977   0.03472
  13   30448.4    328.4   0.119549505   0.02488   0.11315  -0.07899   0.07639
  14   30829.1    324.4   0.078655924   0.01657   0.00526  -0.09943   0.08160
  15   31131.4    321.2   0.075110999   0.01598   0.03725  -0.11068   0.04840
  16   31394.2    318.5   0.021171941   0.00454   0.04844   0.04383   0.01657
  17   32927.0    303.7   0.126568570   0.02848  -0.16454   0.03578  -0.01141
  18   33178.9    301.4   0.178317050   0.04044  -0.13052  -0.13759  -0.06685
  19   33616.9    297.5   0.163006500   0.03745   0.16947  -0.03815  -0.08529
  20   33790.3    295.9   0.122373966   0.02826   0.05462  -0.09134   0.13013
  21   33937.6    294.7   0.284823854   0.06606   0.20230  -0.11392  -0.11027
  22   34247.3    292.0   0.269039292   0.06297  -0.19793  -0.13915  -0.06656
  23   34442.8    290.3   0.056866062   0.01339   0.00054  -0.02917  -0.11196
  24   34621.3    288.8   0.288139646   0.06818   0.16658   0.19900  -0.02880
  25   34722.3    288.0   0.109058184   0.02588  -0.05047  -0.13814  -0.06520
  26   35088.0    285.0   0.035513644   0.00852   0.05729  -0.06808   0.02448
  27   35297.5    283.3   0.009602692   0.00232   0.00900  -0.04466  -0.01552
  28   35567.5    281.2   0.022251448   0.00541  -0.04512  -0.04160  -0.04053
  29   36204.0    276.2   0.186677568   0.04619   0.01797   0.21397  -0.00923
  30   36910.7    270.9   0.166592778   0.04203  -0.08689  -0.05733   0.17660
  31   37170.6    269.0   0.003779331   0.00096   0.01699   0.00478   0.02547
  32   37374.7    267.6   0.011174304   0.00285   0.00559   0.02302   0.04789
  33   37868.7    264.1   0.047073157   0.01218   0.00889   0.00344   0.10997
  34   38767.0    258.0   0.040021564   0.01060   0.09799   0.02557   0.01863
  35   38927.3    256.9   0.042576488   0.01133  -0.01295   0.08226  -0.06629
  36   39060.6    256.0   0.002688272   0.00072  -0.02266   0.01087  -0.00928
  37   39314.6    254.4   0.191037576   0.05133  -0.01393  -0.16425   0.15543
  38   39407.3    253.8   0.077416006   0.02085  -0.14429  -0.00445  -0.00316
  39   39711.5    251.8   0.009066954   0.00246  -0.02187  -0.02912  -0.03369
  40   39992.6    250.0   0.000374527   0.00010  -0.00810   0.00280  -0.00537

-------------------------------------------------------------------
                             CD SPECTRUM
-------------------------------------------------------------------
State   Energy Wavelength       R         MX        MY        MZ   
        (cm-1)   (nm)       (1e40*cgs)   (au)      (au)      (au)  
-------------------------------------------------------------------
   0   17067.5    585.9    -532.05775   2.23273  -0.11157  -5.23719
   1   19755.1    506.2    415.54233  -1.32280  -1.35438  -1.47124
   2   24764.1    403.8    -25.19234   1.18808   0.58793  -2.52421
   3   24992.0    400.1    -116.00784  -1.76468  -1.10771   0.49197
   4   25789.0    387.8     83.91154   2.27510   1.16228  -1.97078
   5   25847.2    386.9     28.04903  -0.27839   0.00858   0.39539
   6   26819.2    372.9     61.03642  -0.07193   0.45922   0.34233
   7   27201.0    367.6     32.55108   1.16906   0.51811   0.64250
   8   28273.3    353.7    181.68056   0.48723  -0.18491   2.52435
   9   28576.2    349.9    -114.39874   0.29196  -0.48076   3.30275
  10   28883.3    346.2    -38.63385  -0.33421  -0.30514   2.22212
  11   30015.4    333.2    -31.90611  -0.61880  -0.38780  -0.47085
  12   30122.7    332.0    -73.91310  -1.11250  -0.19787   2.36346
  13   30448.4    328.4    205.58740  -1.57784  -0.93928  -0.18575
  14   30829.1    324.4    -75.51572  -0.02807  -0.80032  -0.43898
  15   31131.4    321.2    -40.95786  -0.62633  -0.51277  -0.19102
  16   31394.2    318.5    -34.29894  -0.01030  -0.35663   1.97249
  17   32927.0    303.7    267.40648   0.97657   0.04422   0.08485
  18   33178.9    301.4    -200.72952   0.90833   1.09854  -6.00386
  19   33616.9    297.5    -65.47021   0.22001   0.36705  -0.20628
  20   33790.3    295.9    293.62318  -2.23958  -1.48693  -1.47714
  21   33937.6    294.7    -587.35934   0.65268   0.50273  -2.59267
  22   34247.3    292.0    648.70471   2.49151   0.89821  -3.28642
  23   34442.8    290.3    -331.57297   0.84310   1.12305  -2.16514
  24   34621.3    288.8    182.62713   0.42044  -0.00525   6.55646
  25   34722.3    288.0    -250.92580   0.37076   0.87942  -4.54542
  26   35088.0    285.0    -49.75478  -0.34562  -0.48563   0.63983
  27   35297.5    283.3     22.31852   0.46331   0.20552   0.58563
  28   35567.5    281.2     85.54506   1.36020   0.40880  -0.63025
  29   36204.0    276.2     65.36740  -1.19999   0.00786   2.08296
  30   36910.7    270.9    -344.96471  -2.67789  -1.41168  -0.53325
  31   37170.6    269.0     18.03204  -1.07211  -0.11579   0.13266
  32   37374.7    267.6     42.86062  -0.73574  -0.37123  -0.37081
  33   37868.7    264.1     46.09763  -0.88939  -0.88526  -0.22660
  34   38767.0    258.0    214.63186  -1.86256  -0.39169   2.36989
  35   38927.3    256.9    -157.46409   0.76685   0.33612  -1.36046
  36   39060.6    256.0     10.83380   0.64784   0.11067  -0.72712
  37   39314.6    254.4    -543.38496  -0.66250  -0.70023   1.56736
  38   39407.3    253.8    663.16766   3.26101   0.34434  -4.21428
  39   39711.5    251.8    -22.86009   0.82279   0.40221  -1.30566
  40   39992.6    250.0      4.11335   0.26458  -0.01258   0.11478

sTD-DFT done

Total run time:        4.308 sec

           *** ORCA-CIS/TD-DFT FINISHED WITHOUT ERROR ***

-------------------------   --------------------
FINAL SINGLE POINT ENERGY     -5523.456568414505
-------------------------   --------------------


                            ***************************************
                            *     ORCA property calculations      *
                            ***************************************

                                    ---------------------
                                    Active property flags
                                    ---------------------
   (+) Dipole Moment


------------------------------------------------------------------------------
                       ORCA ELECTRIC PROPERTIES CALCULATION
------------------------------------------------------------------------------

Dipole Moment Calculation                       ... on
Quadrupole Moment Calculation                   ... off
Polarizability Calculation                      ... off
GBWName                                         ... BTTPC.gbw
Electron density file                           ... BTTPC.scfp
The origin for moment calculation is the CENTER OF MASS  = (-7.826635, 14.942703 -0.313916)

-------------
DIPOLE MOMENT
-------------
                                X             Y             Z
Electronic contribution:      4.45828       1.20819      -8.50322
Nuclear contribution   :     -1.13952      -0.03402       8.29736
                        -----------------------------------------
Total Dipole Moment    :      3.31876       1.17418      -0.20586
                        -----------------------------------------
Magnitude (a.u.)       :      3.52636
Magnitude (Debye)      :      8.96329



--------------------
Rotational spectrum 
--------------------
 
Rotational constants in cm-1:     0.002015     0.000211     0.000204 
Rotational constants in MHz :    60.410535     6.335785     6.120096 

 Dipole components along the rotational axes: 
x,y,z [a.u.] :     1.172315     1.649127     2.888126 
x,y,z [Debye]:     2.979789     4.191747     7.341033 

 

Timings for individual modules:

Sum of individual times         ...     4083.620 sec (=  68.060 min)
GTO integral calculation        ...        3.631 sec (=   0.061 min)   0.1 %
SCF iterations                  ...     4075.620 sec (=  67.927 min)  99.8 %
CIS module                      ...        4.369 sec (=   0.073 min)   0.1 %
                             ****ORCA TERMINATED NORMALLY****
TOTAL RUN TIME: 0 days 1 hours 8 minutes 4 seconds 167 msec
