
                                 *****************
                                 * O   R   C   A *
                                 *****************

           --- An Ab Initio, DFT and Semiempirical electronic structure package ---

                  #######################################################
                  #                        -***-                        #
                  #          Department of theory and spectroscopy      #
                  #               Directorship: Frank Neese             #
                  #        Max Planck Institute fuer Kohlenforschung    #
                  #                Kaiser Wilhelm Platz 1               #
                  #                 D-45470 Muelheim/Ruhr               #
                  #                      Germany                        #
                  #                                                     #
                  #                  All rights reserved                #
                  #                        -***-                        #
                  #######################################################


                         Program Version 4.2.0 -  RELEASE  -


 With contributions from (in alphabetic order):
   Daniel Aravena         : Magnetic Suceptibility
   Michael Atanasov       : Ab Initio Ligand Field Theory (pilot matlab implementation)
   Alexander A. Auer      : GIAO ZORA, VPT2
   Ute Becker             : Parallelization
   Giovanni Bistoni       : ED, misc. LED, open-shell LED, HFLED
   Martin Brehm           : Molecular dynamics
   Dmytro Bykov           : SCF Hessian
   Vijay G. Chilkuri      : MRCI spin determinant printing, contributions to CSF-ICE
   Dipayan Datta          : RHF DLPNO-CCSD density
   Achintya Kumar Dutta   : EOM-CC, STEOM-CC
   Dmitry Ganyushin       : Spin-Orbit,Spin-Spin,Magnetic field MRCI
   Miquel Garcia          : C-PCM Hessian, Gaussian charge scheme
   Yang Guo               : DLPNO-NEVPT2, CIM, IAO-localization
   Andreas Hansen         : Spin unrestricted coupled pair/coupled cluster methods
   Benjamin Helmich-Paris : CASSCF linear response (MC-RPA)
   Lee Huntington         : MR-EOM, pCC
   Robert Izsak           : Overlap fitted RIJCOSX, COSX-SCS-MP3, EOM
   Christian Kollmar      : KDIIS, OOCD, Brueckner-CCSD(T), CCSD density
   Simone Kossmann        : Meta GGA functionals, TD-DFT gradient, OOMP2, MP2 Hessian
   Martin Krupicka        : AUTO-CI
   Lucas Lang             : DCDCAS
   Dagmar Lenk            : GEPOL surface, SMD
   Dimitrios Liakos       : Extrapolation schemes; Compound Job, initial MDCI parallelization
   Dimitrios Manganas     : Further ROCIS development; embedding schemes
   Dimitrios Pantazis     : SARC Basis sets
   Taras Petrenko         : DFT Hessian,TD-DFT gradient, ASA, ECA, R-Raman, ABS, FL, XAS/XES, NRVS
   Peter Pinski           : DLPNO-MP2, DLPNO-MP2 Gradient
   Christoph Reimann      : Effective Core Potentials
   Marius Retegan         : Local ZFS, SOC
   Christoph Riplinger    : Optimizer, TS searches, QM/MM, DLPNO-CCSD(T), (RO)-DLPNO pert. Triples
   Tobias Risthaus        : Range-separated hybrids, TD-DFT gradient, RPA, STAB
   Michael Roemelt        : Original ROCIS implementation
   Masaaki Saitow         : Open-shell DLPNO-CCSD energy and density
   Barbara Sandhoefer     : DKH picture change effects
   Avijit Sen             : IP-ROCIS
   Kantharuban Sivalingam : CASSCF convergence, NEVPT2, FIC-MRCI
   Bernardo de Souza      : ESD, SOC TD-DFT
   Georgi Stoychev        : AutoAux, RI-MP2 NMR
   Willem Van den Heuvel  : Paramagnetic NMR
   Boris Wezisla          : Elementary symmetry handling
   Frank Wennmohs         : Technical directorship


 We gratefully acknowledge several colleagues who have allowed us to
 interface, adapt or use parts of their codes:
   Stefan Grimme, W. Hujo, H. Kruse,             : VdW corrections, initial TS optimization,
                  C. Bannwarth                     DFT functionals, gCP, sTDA/sTD-DF
   Ed Valeev, F. Pavosevic, A. Kumar             : LibInt (2-el integral package), F12 methods
   Garnet Chan, S. Sharma, J. Yang, R. Olivares  : DMRG
   Ulf Ekstrom                                   : XCFun DFT Library
   Mihaly Kallay                                 : mrcc  (arbitrary order and MRCC methods)
   Andreas Klamt, Michael Diedenhofen            : otool_cosmo (COSMO solvation model)
   Jiri Pittner, Ondrej Demel                    : Mk-CCSD
   Frank Weinhold                                : gennbo (NPA and NBO analysis)
   Christopher J. Cramer and Donald G. Truhlar   : smd solvation model
   Lars Goerigk                                  : TD-DFT with DH, B97 family of functionals
   V. Asgeirsson, H. Jonsson                     : NEB implementation
   FAccTs GmbH                                   : IRC, NEB, NEB-TS, Multilevel, MM, QM/MM, CI optimization
   S Lehtola, MJT Oliveira, MAL Marques          : LibXC Library


 Your calculation uses the libint2 library for the computation of 2-el integrals
 For citations please refer to: http://libint.valeyev.net

 Your ORCA version has been built with support for libXC version: 4.2.3
 For citations please refer to: https://tddft.org/programs/libxc/

 This ORCA versions uses:
   CBLAS   interface :  Fast vector & matrix operations
   LAPACKE interface :  Fast linear algebra routines
   SCALAPACK package :  Parallel linear algebra routines


XCFun DFT library Copyright 2009-2010 Ulf Ekstrom and contributors.
See http://admol.org/xcfun for more information. This is free soft-
ware; see the source code for copying conditions. There is ABSOLUTELY
NO WARRANTY; not even for MERCHANTABILITY or FITNESS FOR A PARTICULAR
PURPOSE. For details see the documentation. Scientific users of this 
library should cite U. Ekstrom, L. Visscher, R. Bast, A. J. Thorvald-
sen and K. Ruud; J.Chem.Theor.Comp. 2010, DOI: 10.1021/ct100117s
XCFun Version 0.99 
----- Orbital basis set information -----
Your calculation utilizes the basis: def2-SVP
   F. Weigend and R. Ahlrichs, Phys. Chem. Chem. Phys. 7, 3297 (2005).

----- AuxJ basis set information -----
Your calculation utilizes the auxiliary basis: def2/J
   F. Weigend, Phys. Chem. Chem. Phys. 8, 1057 (2006).

================================================================================
                                        WARNINGS
                       Please study these warnings very carefully!
================================================================================

INFO   : Checking CIS options ...

WARNING: CIS/ROCIS methods need fully converged wavefunctions
  ===> : Setting SCFConvForced true
         You can overwrite this default with %scf ConvForced false 


INFO   : the flag for use of LIBINT has been found!

================================================================================
                                       INPUT FILE
================================================================================
NAME = CH1007.inp
|  1> # ORCA input file
|  2> # CH1007.out
|  3> ! CAM-B3LYP def2-SVP def2/J RIJCOSX Grid4 TightSCF
|  4> %maxcore 5000
|  5> %tddft
|  6>     Mode sTDDFT
|  7>     Ethresh 5.0
|  8>     maxcore 5000
|  9> end
| 10> * xyz 0 1
| 11>    C        5.54516         2.90251        -1.76395
| 12>    O        6.65977         2.39299        -1.76954
| 13>    C        5.01277         3.82663        -2.78320
| 14>    C        5.62726         4.30199        -3.92398
| 15>    C        4.90344         5.16802        -4.72857
| 16>    F        5.45905         5.65451        -5.84548
| 17>    C        3.60299         5.53633        -4.38620
| 18>    F        2.92654         6.37230        -5.18240
| 19>    C        2.98687         5.05872        -3.23759
| 20>    C        3.70333         4.19385        -2.42704
| 21>    C        3.35343         3.52334        -1.17134
| 22>    C        2.14910         3.64487        -0.52564
| 23>    C        1.79043         3.00320         0.67802
| 24>    N        1.41519         2.52056         1.65117
| 25>    C        1.08122         4.44332        -0.98705
| 26>    N        0.17336         5.07104        -1.30213
| 27>    C        4.49779         2.73225        -0.77436
| 28>    C        4.57918         1.94862         0.36100
| 29>    C        5.59666         1.12882         0.84274
| 30>   Se        7.30024         0.83239         0.03046
| 31>    C        7.64617        -0.34213         1.43672
| 32>    C        6.55488        -0.40724         2.32700
| 33>    C        5.45329         0.37967         2.03045
| 34>    C        4.22597         0.34706         2.88427
| 35>    C        3.20760        -0.65614         2.33489
| 36>    S        6.79986        -1.51781         3.66768
| 37>    C        8.35701        -1.89483         3.02850
| 38>    C        8.67094        -1.19206         1.85866
| 39>    N        9.91742        -1.55674         1.41803
| 40>    C       10.32738        -1.21168         0.07548
| 41>    C       10.33093        -2.42984        -0.84348
| 42>    C       10.41534        -2.50956         2.28519
| 43>    C        9.43213        -2.74973         3.29566
| 44>    C        9.58103        -3.76914         4.25968
| 45>    N        8.75477        -4.12446         5.23181
| 46>    S        9.36906        -5.41788         5.98388
| 47>    N       10.71504        -5.57873         5.10072
| 48>    C       10.73137        -4.61904         4.18797
| 49>    C       11.73356        -4.33291         3.23822
| 50>    C       11.63582        -3.22973         2.33368
| 51>    N       12.82933        -3.13445         1.60182
| 52>    C       13.40109        -2.01295         0.88201
| 53>    C       13.45225        -0.76264         1.75289
| 54>    C       13.60812        -4.16580         1.98925
| 55>    C       12.95861        -4.94128         2.95394
| 56>    S       16.50450        -3.59119         0.06649
| 57>    C       16.02416        -4.83459         1.06862
| 58>    C       14.84468        -4.84323         1.77091
| 59>   Se       14.46333        -6.10319         3.26037
| 60>    C       15.97093        -7.13001         0.96213
| 61>    C       16.77616        -6.11911         1.17998
| 62>    C       18.22526        -6.13081         1.52313
| 63>    C       18.80471        -7.53758         1.53557
| 64>    C       14.98845        -7.83661         0.47071
| 65>    C       13.78776        -8.29624         1.23989
| 66>    C       13.26114        -9.71747         0.96880
| 67>    C       13.81236       -10.92998         1.18414
| 68>    C       13.14335       -12.12596         0.83523
| 69>    N       12.59230       -13.08776         0.54706
| 70>    C       15.09750       -11.03302         1.76739
| 71>    N       16.14262       -11.07661         2.23436
| 72>    C       12.03163        -9.17653         0.42274
| 73>    C       10.80625        -9.48760        -0.13502
| 74>    C       10.02296        -8.38690        -0.46697
| 75>    F        8.81596        -8.59050        -1.00456
| 76>    C       10.44727        -7.06938        -0.26309
| 77>    F        9.63578        -6.06261        -0.60756
| 78>    C       11.68962        -6.75909         0.29539
| 79>    C       12.44533        -7.84763         0.62734
| 80>    C       13.73726        -7.94416         2.68454
| 81>    O       13.26450        -8.55868         3.57753
| 82>    H        6.63286         4.01362        -4.18530
| 83>    H        1.98021         5.37540        -3.01972
| 84>    H        3.69900         1.95991         0.99005
| 85>    H        3.76361         1.33261         2.95291
| 86>    H        4.51808         0.03867         3.89048
| 87>    H        2.90075        -0.38355         1.32774
| 88>    H        2.32679        -0.66916         2.97017
| 89>    H        3.63682        -1.65509         2.30963
| 90>    H        9.59541        -0.48526        -0.29696
| 91>    H       11.29561        -0.71025         0.08606
| 92>    H        9.33680        -2.86887        -0.88894
| 93>    H       11.02003        -3.19225        -0.48798
| 94>    H       10.62391        -2.13307        -1.84672
| 95>    H       12.86303        -1.83552        -0.04899
| 96>    H       14.41956        -2.31566         0.61524
| 97>    H       12.46011        -0.46446         2.08532
| 98>    H       13.89606         0.05428         1.19073
| 99>    H       14.06522        -0.94746         2.63224
|100>    H       18.35906        -5.65265         2.49898
|101>    H       18.74095        -5.50516         0.78813
|102>    H       18.28411        -8.16059         2.26023
|103>    H       19.85868        -7.50769         1.79821
|104>    H       18.70355        -7.99921         0.55606
|105>    H       14.97401        -8.10619        -0.57885
|106>    H       10.45099       -10.49012        -0.30907
|107>    H       11.98891        -5.73379         0.43458
|108> *
|109> 
|110>                          ****END OF INPUT****
================================================================================

                       ****************************
                       * Single Point Calculation *
                       ****************************

---------------------------------
CARTESIAN COORDINATES (ANGSTROEM)
---------------------------------
  C      5.545160    2.902510   -1.763950
  O      6.659770    2.392990   -1.769540
  C      5.012770    3.826630   -2.783200
  C      5.627260    4.301990   -3.923980
  C      4.903440    5.168020   -4.728570
  F      5.459050    5.654510   -5.845480
  C      3.602990    5.536330   -4.386200
  F      2.926540    6.372300   -5.182400
  C      2.986870    5.058720   -3.237590
  C      3.703330    4.193850   -2.427040
  C      3.353430    3.523340   -1.171340
  C      2.149100    3.644870   -0.525640
  C      1.790430    3.003200    0.678020
  N      1.415190    2.520560    1.651170
  C      1.081220    4.443320   -0.987050
  N      0.173360    5.071040   -1.302130
  C      4.497790    2.732250   -0.774360
  C      4.579180    1.948620    0.361000
  C      5.596660    1.128820    0.842740
  Se     7.300240    0.832390    0.030460
  C      7.646170   -0.342130    1.436720
  C      6.554880   -0.407240    2.327000
  C      5.453290    0.379670    2.030450
  C      4.225970    0.347060    2.884270
  C      3.207600   -0.656140    2.334890
  S      6.799860   -1.517810    3.667680
  C      8.357010   -1.894830    3.028500
  C      8.670940   -1.192060    1.858660
  N      9.917420   -1.556740    1.418030
  C     10.327380   -1.211680    0.075480
  C     10.330930   -2.429840   -0.843480
  C     10.415340   -2.509560    2.285190
  C      9.432130   -2.749730    3.295660
  C      9.581030   -3.769140    4.259680
  N      8.754770   -4.124460    5.231810
  S      9.369060   -5.417880    5.983880
  N     10.715040   -5.578730    5.100720
  C     10.731370   -4.619040    4.187970
  C     11.733560   -4.332910    3.238220
  C     11.635820   -3.229730    2.333680
  N     12.829330   -3.134450    1.601820
  C     13.401090   -2.012950    0.882010
  C     13.452250   -0.762640    1.752890
  C     13.608120   -4.165800    1.989250
  C     12.958610   -4.941280    2.953940
  S     16.504500   -3.591190    0.066490
  C     16.024160   -4.834590    1.068620
  C     14.844680   -4.843230    1.770910
  Se    14.463330   -6.103190    3.260370
  C     15.970930   -7.130010    0.962130
  C     16.776160   -6.119110    1.179980
  C     18.225260   -6.130810    1.523130
  C     18.804710   -7.537580    1.535570
  C     14.988450   -7.836610    0.470710
  C     13.787760   -8.296240    1.239890
  C     13.261140   -9.717470    0.968800
  C     13.812360  -10.929980    1.184140
  C     13.143350  -12.125960    0.835230
  N     12.592300  -13.087760    0.547060
  C     15.097500  -11.033020    1.767390
  N     16.142620  -11.076610    2.234360
  C     12.031630   -9.176530    0.422740
  C     10.806250   -9.487600   -0.135020
  C     10.022960   -8.386900   -0.466970
  F      8.815960   -8.590500   -1.004560
  C     10.447270   -7.069380   -0.263090
  F      9.635780   -6.062610   -0.607560
  C     11.689620   -6.759090    0.295390
  C     12.445330   -7.847630    0.627340
  C     13.737260   -7.944160    2.684540
  O     13.264500   -8.558680    3.577530
  H      6.632860    4.013620   -4.185300
  H      1.980210    5.375400   -3.019720
  H      3.699000    1.959910    0.990050
  H      3.763610    1.332610    2.952910
  H      4.518080    0.038670    3.890480
  H      2.900750   -0.383550    1.327740
  H      2.326790   -0.669160    2.970170
  H      3.636820   -1.655090    2.309630
  H      9.595410   -0.485260   -0.296960
  H     11.295610   -0.710250    0.086060
  H      9.336800   -2.868870   -0.888940
  H     11.020030   -3.192250   -0.487980
  H     10.623910   -2.133070   -1.846720
  H     12.863030   -1.835520   -0.048990
  H     14.419560   -2.315660    0.615240
  H     12.460110   -0.464460    2.085320
  H     13.896060    0.054280    1.190730
  H     14.065220   -0.947460    2.632240
  H     18.359060   -5.652650    2.498980
  H     18.740950   -5.505160    0.788130
  H     18.284110   -8.160590    2.260230
  H     19.858680   -7.507690    1.798210
  H     18.703550   -7.999210    0.556060
  H     14.974010   -8.106190   -0.578850
  H     10.450990  -10.490120   -0.309070
  H     11.988910   -5.733790    0.434580

----------------------------
CARTESIAN COORDINATES (A.U.)
----------------------------
  NO LB      ZA    FRAG     MASS         X           Y           Z
   0 C     6.0000    0    12.011   10.478834    5.484949   -3.333382
   1 O     8.0000    0    15.999   12.585141    4.522096   -3.343946
   2 C     6.0000    0    12.011    9.472762    7.231283   -5.259486
   3 C     6.0000    0    12.011   10.633980    8.129583   -7.415248
   4 C     6.0000    0    12.011    9.266159    9.766142   -8.935702
   5 F     9.0000    0    18.998   10.316109   10.685475  -11.046356
   6 C     6.0000    0    12.011    6.808664   10.462147   -8.288717
   7 F     9.0000    0    18.998    5.530359   12.041902   -9.793317
   8 C     6.0000    0    12.011    5.644366    9.559595   -6.118158
   9 C     6.0000    0    12.011    6.998279    7.925228   -4.586441
  10 C     6.0000    0    12.011    6.337064    6.658148   -2.213512
  11 C     6.0000    0    12.011    4.061210    6.887806   -0.993316
  12 C     6.0000    0    12.011    3.383422    5.675226    1.281272
  13 N     7.0000    0    14.007    2.674322    4.763168    3.120259
  14 C     6.0000    0    12.011    2.043210    8.396658   -1.865254
  15 N     7.0000    0    14.007    0.327603    9.582877   -2.460669
  16 C     6.0000    0    12.011    8.499591    5.163204   -1.463328
  17 C     6.0000    0    12.011    8.653396    3.682358    0.682191
  18 C     6.0000    0    12.011   10.576155    2.133161    1.592548
  19 Se   34.0000    0    78.960   13.795454    1.572989    0.057561
  20 C     6.0000    0    12.011   14.449167   -0.646532    2.715007
  21 C     6.0000    0    12.011   12.386928   -0.769572    4.397393
  22 C     6.0000    0    12.011   10.305225    0.717472    3.836994
  23 C     6.0000    0    12.011    7.985926    0.655848    5.450480
  24 C     6.0000    0    12.011    6.061486   -1.239925    4.412303
  25 S    16.0000    0    32.060   12.849873   -2.868245    6.930911
  26 C     6.0000    0    12.011   15.792460   -3.580710    5.723036
  27 C     6.0000    0    12.011   16.385702   -2.252667    3.512358
  28 N     7.0000    0    14.007   18.741208   -2.941812    2.679688
  29 C     6.0000    0    12.011   19.515920   -2.289743    0.142637
  30 C     6.0000    0    12.011   19.522628   -4.591732   -1.593946
  31 C     6.0000    0    12.011   19.682140   -4.742381    4.318383
  32 C     6.0000    0    12.011   17.824143   -5.196237    6.227895
  33 C     6.0000    0    12.011   18.105523   -7.122642    8.049629
  34 N     7.0000    0    14.007   16.544118   -7.794100    9.886688
  35 S    16.0000    0    32.060   17.704958  -10.238309   11.307894
  36 N     7.0000    0    14.007   20.248491  -10.542272    9.638964
  37 C     6.0000    0    12.011   20.279350   -8.728721    7.914116
  38 C     6.0000    0    12.011   22.173215   -8.188013    6.119349
  39 C     6.0000    0    12.011   21.988513   -6.103305    4.410016
  40 N     7.0000    0    14.007   24.243920   -5.923252    3.027001
  41 C     6.0000    0    12.011   25.324390   -3.803924    1.666757
  42 C     6.0000    0    12.011   25.421068   -1.441181    3.312482
  43 C     6.0000    0    12.011   25.715620   -7.872221    3.759138
  44 C     6.0000    0    12.011   24.488224   -9.337666    5.582138
  45 S    16.0000    0    32.060   31.188985   -6.786366    0.125648
  46 C     6.0000    0    12.011   30.281274   -9.136051    2.019399
  47 C     6.0000    0    12.011   28.052380   -9.152378    3.346535
  48 Se   34.0000    0    78.960   27.331733  -11.533358    6.161206
  49 C     6.0000    0    12.011   30.180684  -13.473766    1.818162
  50 C     6.0000    0    12.011   31.702348  -11.563442    2.229839
  51 C     6.0000    0    12.011   34.440750  -11.585552    2.878299
  52 C     6.0000    0    12.011   35.535752  -14.243962    2.901807
  53 C     6.0000    0    12.011   28.324066  -14.809047    0.889513
  54 C     6.0000    0    12.011   26.055090  -15.677622    2.343053
  55 C     6.0000    0    12.011   25.059923  -18.363357    1.830767
  56 C     6.0000    0    12.011   26.101578  -20.654669    2.237700
  57 C     6.0000    0    12.011   24.837332  -22.914744    1.578356
  58 N     7.0000    0    14.007   23.795998  -24.732282    1.033794
  59 C     6.0000    0    12.011   28.530140  -20.849386    3.339883
  60 N     7.0000    0    14.007   30.505131  -20.931759    4.222328
  61 C     6.0000    0    12.011   22.736486  -17.341129    0.798863
  62 C     6.0000    0    12.011   20.420853  -17.928966   -0.255151
  63 C     6.0000    0    12.011   18.940649  -15.848944   -0.882445
  64 F     9.0000    0    18.998   16.659750  -16.233692   -1.898343
  65 C     6.0000    0    12.011   19.742479  -13.359192   -0.497168
  66 F     9.0000    0    18.998   18.208985  -11.456673   -1.148122
  67 C     6.0000    0    12.011   22.090180  -12.772829    0.558206
  68 C     6.0000    0    12.011   23.518265  -14.829872    1.185501
  69 C     6.0000    0    12.011   25.959659  -15.012287    5.073045
  70 O     8.0000    0    15.999   25.066272  -16.173561    6.760552
  71 H     1.0000    0     1.008   12.534289    7.584643   -7.909071
  72 H     1.0000    0     1.008    3.742055   10.158034   -5.706444
  73 H     1.0000    0     1.008    6.990097    3.703693    1.870923
  74 H     1.0000    0     1.008    7.112192    2.518268    5.580191
  75 H     1.0000    0     1.008    8.537934    0.073076    7.351942
  76 H     1.0000    0     1.008    5.481623   -0.724804    2.509065
  77 H     1.0000    0     1.008    4.396996   -1.264529    5.612808
  78 H     1.0000    0     1.008    6.872594   -3.127667    4.364568
  79 H     1.0000    0     1.008   18.132697   -0.917009   -0.561173
  80 H     1.0000    0     1.008   21.345609   -1.342178    0.162630
  81 H     1.0000    0     1.008   17.643995   -5.421379   -1.679853
  82 H     1.0000    0     1.008   20.824839   -6.032478   -0.922149
  83 H     1.0000    0     1.008   20.076280   -4.030918   -3.489795
  84 H     1.0000    0     1.008   24.307604   -3.468630   -0.092578
  85 H     1.0000    0     1.008   27.249019   -4.375963    1.162635
  86 H     1.0000    0     1.008   23.546195   -0.877702    3.940684
  87 H     1.0000    0     1.008   26.259748    0.102574    2.250154
  88 H     1.0000    0     1.008   26.579414   -1.790440    4.974213
  89 H     1.0000    0     1.008   34.693595  -10.681960    4.722388
  90 H     1.0000    0     1.008   35.415263  -10.403245    1.489350
  91 H     1.0000    0     1.008   34.551961  -15.421280    4.271216
  92 H     1.0000    0     1.008   37.527467  -14.187478    3.398124
  93 H     1.0000    0     1.008   35.344587  -15.116316    1.050801
  94 H     1.0000    0     1.008   28.296778  -15.318479   -1.093868
  95 H     1.0000    0     1.008   19.749509  -19.823454   -0.584058
  96 H     1.0000    0     1.008   22.655757  -10.835293    0.821237

--------------------------------
INTERNAL COORDINATES (ANGSTROEM)
--------------------------------
 C      0   0   0     0.000000000000     0.00000000     0.00000000
 O      1   0   0     1.225560006936     0.00000000     0.00000000
 C      1   2   0     1.475231320505   125.83801972     0.00000000
 C      3   1   2     1.380197122914   128.76560037     0.06677113
 C      4   3   1     1.386105487111   117.54678445   179.86787071
 F      5   4   3     1.338978319578   119.63796195   180.00121002
 C      5   4   3     1.394288232576   120.63454382   359.96678978
 F      7   5   4     1.338045172406   119.37005300   180.10657163
 C      7   5   4     1.388171494665   121.75283333     0.11770175
 C      9   7   5     1.385029368281   118.00059637   359.94855464
 C     10   9   7     1.465877266384   131.56469116   179.99896458
 C     11  10   9     1.371899697427   124.90372393     0.13403320
 C     12  11  10     1.410383619233   125.77593280   179.62738464
 N     13  12  11     1.149246426882   175.38564462   181.48878569
 C     12  11  10     1.410953324884   124.09863497   359.71555822
 N     15  12  11     1.147831688184   176.25013504   180.28399238
 C     11  10   9     1.446712244401   107.23963183   179.88050332
 C     17  11  10     1.381934382885   125.59860956   179.75530117
 C     18  17  11     1.392627379452   131.37909548   178.64019097
 Se    19  18  17     1.910459201265   126.56710367     0.47207161
 C     20  19  18     1.864599684356    86.70422899   181.65720068
 C     21  20  19     1.409876467851   111.20630171   359.75811016
 C     22  21  20     1.385882310552   116.99484939   359.76953277
 C     23  22  21     1.495455244031   121.18442533   177.83347344
 C     24  23  22     1.531439218938   110.80650453   266.45494654
 S     22  21  20     1.758068197682   113.75691683   179.06991904
 C     26  22  21     1.724938049699    88.92757512   359.77988531
 C     21  20  19     1.396627338054   138.35815458   178.79962252
 N     28  21  20     1.371444016247   137.02440358   359.96423539
 C     29  28  21     1.445535924043   119.51735327   347.09953399
 C     30  29  28     1.525914109542   111.68023191   253.78017993
 C     29  28  21     1.381215676279   108.02119790   182.46161137
 C     27  26  22     1.399325369598   139.14472868   183.60777592
 C     33  27  26     1.410922577075   130.76367822     4.61288334
 N     34  33  27     1.324384621966   129.01533811   355.09251913
 S     35  34  33     1.617373421755   108.59734420   176.24199582
 N     36  35  34     1.617870967815    98.14366220     0.00000000
 C     37  36  35     1.324531663457   108.32413262     0.24467118
 C     38  37  36     1.410063911849   128.31175974   177.08036444
 C     32  29  28     1.417944829463   133.01028200   180.32880833
 N     40  32  29     1.403268847406   132.82456280     7.80262576
 C     41  40  32     1.450102818320   130.29688778    24.25147314
 C     42  41  40     1.524573519415   111.34268189    50.79143801
 C     41  40  32     1.349184454217   106.81477305   185.96832663
 C     39  38  37     1.397024222338   132.21715601     0.85063100
 S     44  41  40     3.523662834906   101.13500161   181.49102288
 C     46  44  41     1.667643430863    46.66572073   186.70660158
 C     47  46  44     1.372755973981   124.02832664   357.90697079
 Se    45  39  38     1.925647026690   156.29064369   346.42091223
 C     47  46  44     2.298505281569   136.33854157   132.59139267
 C     50  47  46     1.310638312198    37.60867828    79.18387469
 C     51  50  47     1.489221146271   129.05516547   178.70564521
 C     52  51  50     1.521485750508   112.31711881     3.46011308
 C     50  47  46     1.306156241343   125.10671117   272.24486465
 C     54  50  47     1.498183595358   125.14410877   272.56135361
 C     55  54  50     1.539712026776   117.83322216   219.97993724
 C     56  55  54     1.349220257816   131.42865895    65.14257243
 C     57  56  55     1.414100678382   121.82951718   180.86922198
 N     58  57  56     1.145319733262   179.36173164     6.30555931
 C     57  56  55     1.415055696324   120.14974475     0.52072686
 N     60  57  56     1.145529084485   177.97712836   348.91617733
 C     56  55  54     1.449997395618    90.68563747   245.53650454
 C     62  56  55     1.381816524326   145.08181054   180.36938918
 C     63  62  56     1.391141443779   114.67752151   179.83908853
 F     64  63  62     1.336901255927   118.93392388   180.44015669
 C     64  63  62     1.399094343102   122.65342263     0.53830787
 F     66  64  63     1.338193346979   119.14694480   180.04978145
 C     66  64  63     1.397001545096   122.48768863   359.72716393
 C     68  66  64     1.366092141182   114.33733295   359.74438359
 C     55  54  50     1.487791718924   116.94422286   358.36326233
 O     70  55  54     1.182610666323   128.59456403   212.92765479
 H      4   3   1     1.078274899689   121.56148114   359.89711580
 H      9   7   5     1.077551815413   118.73888753   179.98093661
 H     18  17  11     1.081918758041   115.07779976   359.23879839
 H     24  23  22     1.090778172545   111.35249063   144.41184880
 H     24  23  22     1.092195590680   108.21922130    25.74772996
 H     25  24  23     1.087572228912   110.83253150   299.40551547
 H     25  24  23     1.086083079189   109.71322798   179.71337189
 H     25  24  23     1.087551827960   110.34002625    59.82217445
 H     30  29  28     1.096438621584   106.51703119    12.70622735
 H     30  29  28     1.090418870985   110.64536603   128.58981736
 H     31  30  29     1.087707869513   110.19806075    59.37364215
 H     31  30  29     1.087431868257   111.36452227   299.47757343
 H     31  30  29     1.086462245501   109.79589192   178.89031981
 H     42  41  40     1.089839882047   110.81108312   285.71545308
 H     42  41  40     1.095481956903   105.88701690   169.77947076
 H     43  42  41     1.088008638247   111.63492186   300.04108885
 H     43  42  41     1.086438892943   109.55988777   179.28213858
 H     43  42  41     1.087725643625   109.95983680    60.22577533
 H     52  51  50     1.094907597973   108.71407753   240.88109034
 H     52  51  50     1.094348709781   107.41459389   125.50006743
 H     53  52  51     1.088254536264   110.64504143   300.65938051
 H     53  52  51     1.086612139910   110.23960657   180.52515537
 H     53  52  51     1.087554799815   110.46736589    60.44629469
 H     54  50  47     1.083724173210   120.59493196    90.07250201
 H     63  62  56     1.077752021803   124.53440740     0.12812445
 H     68  66  64     1.077120443683   120.67628042   179.68046698

---------------------------
INTERNAL COORDINATES (A.U.)
---------------------------
 C      0   0   0     0.000000000000     0.00000000     0.00000000
 O      1   0   0     2.315972773795     0.00000000     0.00000000
 C      1   2   0     2.787783179938   125.83801972     0.00000000
 C      3   1   2     2.608194573133   128.76560037     0.06677113
 C      4   3   1     2.619359763366   117.54678445   179.86787071
 F      5   4   3     2.530302323261   119.63796195   180.00121002
 C      5   4   3     2.634822911318   120.63454382   359.96678978
 F      7   5   4     2.528538930663   119.37005300   180.10657163
 C      7   5   4     2.623263951833   121.75283333     0.11770175
 C      9   7   5     2.617326193488   118.00059637   359.94855464
 C     10   9   7     2.770106579406   131.56469116   179.99896458
 C     11  10   9     2.592514711346   124.90372393     0.13403320
 C     12  11  10     2.665238784119   125.77593280   179.62738464
 N     13  12  11     2.171761007194   175.38564462   181.48878569
 C     12  11  10     2.666315371776   124.09863497   359.71555822
 N     15  12  11     2.169087538505   176.25013504   180.28399238
 C     11  10   9     2.733889936509   107.23963183   179.88050332
 C     17  11  10     2.611477518702   125.59860956   179.75530117
 C     18  17  11     2.631684353765   131.37909548   178.64019097
 Se    19  18  17     3.610244680422   126.56710367     0.47207161
 C     20  19  18     3.523582752829    86.70422899   181.65720068
 C     21  20  19     2.664280406899   111.20630171   359.75811016
 C     22  21  20     2.618938020789   116.99484939   359.76953277
 C     23  22  21     2.826000856755   121.18442533   177.83347344
 C     24  23  22     2.894000714538   110.80650453   266.45494654
 S     22  21  20     3.322267418375   113.75691683   179.06991904
 C     26  22  21     3.259660511912    88.92757512   359.77988531
 C     21  20  19     2.639243180070   138.35815458   178.79962252
 N     28  21  20     2.591653598712   137.02440358   359.96423539
 C     29  28  21     2.731667013187   119.51735327   347.09953399
 C     30  29  28     2.883559770921   111.68023191   253.78017993
 C     29  28  21     2.610119360047   108.02119790   182.46161137
 C     27  26  22     2.644341720788   139.14472868   183.60777592
 C     33  27  26     2.666257266838   130.76367822     4.61288334
 N     34  33  27     2.502724231493   129.01533811   355.09251913
 S     35  34  33     3.056392823400   108.59734420   176.24199582
 N     36  35  34     3.057333049193    98.14366220     0.00000000
 C     37  36  35     2.503002099641   108.32413262     0.24467118
 C     38  37  36     2.664634624721   128.31175974   177.08036444
 C     32  29  28     2.679527400694   133.01028200   180.32880833
 N     40  32  29     2.651793813861   132.82456280     7.80262576
 C     41  40  32     2.740297192652   130.29688778    24.25147314
 C     42  41  40     2.881026422722   111.34268189    50.79143801
 C     41  40  32     2.549589122614   106.81477305   185.96832663
 C     39  38  37     2.639993182674   132.21715601     0.85063100
 S     44  41  40     6.658757746250   101.13500161   181.49102288
 C     46  44  41     3.151389373364    46.66572073   186.70660158
 C     47  46  44     2.594132839528   124.02832664   357.90697079
 Se    45  39  38     3.638945511044   156.29064369   346.42091223
 C     47  46  44     4.343545499537   136.33854157   132.59139267
 C     50  47  46     2.476747470678    37.60867828    79.18387469
 C     51  50  47     2.814220119296   129.05516547   178.70564521
 C     52  51  50     2.875191385124   112.31711881     3.46011308
 C     50  47  46     2.468277584251   125.10671117   272.24486465
 C     54  50  47     2.831156693560   125.14410877   272.56135361
 C     55  54  50     2.909634055712   117.83322216   219.97993724
 C     56  55  54     2.549656781610   131.42865895    65.14257243
 C     57  56  55     2.672263007934   121.82951718   180.86922198
 N     58  57  56     2.164340631641   179.36173164     6.30555931
 C     57  56  55     2.674067730298   120.14974475     0.52072686
 N     60  57  56     2.164736248117   177.97712836   348.91617733
 C     56  55  54     2.740097972618    90.68563747   245.53650454
 C     62  56  55     2.611254798303   145.08181054   180.36938918
 C     63  62  56     2.628876342290   114.67752151   179.83908853
 F     64  63  62     2.526377241798   118.93392388   180.44015669
 C     64  63  62     2.643905143981   122.65342263     0.53830787
 F     66  64  63     2.528818940027   119.14694480   180.04978145
 C     66  64  63     2.639950328896   122.48768863   359.72716393
 C     68  66  64     2.581540020537   114.33733295   359.74438359
 C     55  54  50     2.811518893083   116.94422286   358.36326233
 O     70  55  54     2.234810282404   128.59456403   212.92765479
 H      4   3   1     2.037644257494   121.56148114   359.89711580
 H      9   7   5     2.036277826240   118.73888753   179.98093661
 H     18  17  11     2.044530151849   115.07779976   359.23879839
 H     24  23  22     2.061272018969   111.35249063   144.41184880
 H     24  23  22     2.063950551061   108.21922130    25.74772996
 H     25  24  23     2.055213663501   110.83253150   299.40551547
 H     25  24  23     2.052399578353   109.71322798   179.71337189
 H     25  24  23     2.055175111291   110.34002625    59.82217445
 H     30  29  28     2.071968717447   106.51703119    12.70622735
 H     30  29  28     2.060593037421   110.64536603   128.58981736
 H     31  30  29     2.055469987090   110.19806075    59.37364215
 H     31  30  29     2.054948420303   111.36452227   299.47757343
 H     31  30  29     2.053116098843   109.79589192   178.89031981
 H     42  41  40     2.059498906894   110.81108312   285.71545308
 H     42  41  40     2.070160883199   105.88701690   169.77947076
 H     43  42  41     2.056038357627   111.63492186   300.04108885
 H     43  42  41     2.053071968904   109.55988777   179.28213858
 H     43  42  41     2.055503575295   109.95983680    60.22577533
 H     52  51  50     2.069075502119   108.71407753   240.88109034
 H     52  51  50     2.068019356497   107.41459389   125.50006743
 H     53  52  51     2.056503037537   110.64504143   300.65938051
 H     53  52  51     2.053399358224   110.23960657   180.52515537
 H     53  52  51     2.055180727281   110.46736589    60.44629469
 H     54  50  47     2.047941892077   120.59493196    90.07250201
 H     63  62  56     2.036656161487   124.53440740     0.12812445
 H     68  66  64     2.035462651809   120.67628042   179.68046698

---------------------
BASIS SET INFORMATION
---------------------
There are 7 groups of distinct atoms

 Group   1 Type C   : 7s4p1d contracted to 3s2p1d pattern {511/31/1}
 Group   2 Type O   : 7s4p1d contracted to 3s2p1d pattern {511/31/1}
 Group   3 Type F   : 7s4p1d contracted to 3s2p1d pattern {511/31/1}
 Group   4 Type N   : 7s4p1d contracted to 3s2p1d pattern {511/31/1}
 Group   5 Type Se  : 14s10p6d contracted to 5s4p3d pattern {63311/5311/411}
 Group   6 Type S   : 10s7p1d contracted to 4s3p1d pattern {5311/511/1}
 Group   7 Type H   : 4s1p contracted to 2s1p pattern {31/1}

Atom   0C    basis set group =>   1
Atom   1O    basis set group =>   2
Atom   2C    basis set group =>   1
Atom   3C    basis set group =>   1
Atom   4C    basis set group =>   1
Atom   5F    basis set group =>   3
Atom   6C    basis set group =>   1
Atom   7F    basis set group =>   3
Atom   8C    basis set group =>   1
Atom   9C    basis set group =>   1
Atom  10C    basis set group =>   1
Atom  11C    basis set group =>   1
Atom  12C    basis set group =>   1
Atom  13N    basis set group =>   4
Atom  14C    basis set group =>   1
Atom  15N    basis set group =>   4
Atom  16C    basis set group =>   1
Atom  17C    basis set group =>   1
Atom  18C    basis set group =>   1
Atom  19Se   basis set group =>   5
Atom  20C    basis set group =>   1
Atom  21C    basis set group =>   1
Atom  22C    basis set group =>   1
Atom  23C    basis set group =>   1
Atom  24C    basis set group =>   1
Atom  25S    basis set group =>   6
Atom  26C    basis set group =>   1
Atom  27C    basis set group =>   1
Atom  28N    basis set group =>   4
Atom  29C    basis set group =>   1
Atom  30C    basis set group =>   1
Atom  31C    basis set group =>   1
Atom  32C    basis set group =>   1
Atom  33C    basis set group =>   1
Atom  34N    basis set group =>   4
Atom  35S    basis set group =>   6
Atom  36N    basis set group =>   4
Atom  37C    basis set group =>   1
Atom  38C    basis set group =>   1
Atom  39C    basis set group =>   1
Atom  40N    basis set group =>   4
Atom  41C    basis set group =>   1
Atom  42C    basis set group =>   1
Atom  43C    basis set group =>   1
Atom  44C    basis set group =>   1
Atom  45S    basis set group =>   6
Atom  46C    basis set group =>   1
Atom  47C    basis set group =>   1
Atom  48Se   basis set group =>   5
Atom  49C    basis set group =>   1
Atom  50C    basis set group =>   1
Atom  51C    basis set group =>   1
Atom  52C    basis set group =>   1
Atom  53C    basis set group =>   1
Atom  54C    basis set group =>   1
Atom  55C    basis set group =>   1
Atom  56C    basis set group =>   1
Atom  57C    basis set group =>   1
Atom  58N    basis set group =>   4
Atom  59C    basis set group =>   1
Atom  60N    basis set group =>   4
Atom  61C    basis set group =>   1
Atom  62C    basis set group =>   1
Atom  63C    basis set group =>   1
Atom  64F    basis set group =>   3
Atom  65C    basis set group =>   1
Atom  66F    basis set group =>   3
Atom  67C    basis set group =>   1
Atom  68C    basis set group =>   1
Atom  69C    basis set group =>   1
Atom  70O    basis set group =>   2
Atom  71H    basis set group =>   7
Atom  72H    basis set group =>   7
Atom  73H    basis set group =>   7
Atom  74H    basis set group =>   7
Atom  75H    basis set group =>   7
Atom  76H    basis set group =>   7
Atom  77H    basis set group =>   7
Atom  78H    basis set group =>   7
Atom  79H    basis set group =>   7
Atom  80H    basis set group =>   7
Atom  81H    basis set group =>   7
Atom  82H    basis set group =>   7
Atom  83H    basis set group =>   7
Atom  84H    basis set group =>   7
Atom  85H    basis set group =>   7
Atom  86H    basis set group =>   7
Atom  87H    basis set group =>   7
Atom  88H    basis set group =>   7
Atom  89H    basis set group =>   7
Atom  90H    basis set group =>   7
Atom  91H    basis set group =>   7
Atom  92H    basis set group =>   7
Atom  93H    basis set group =>   7
Atom  94H    basis set group =>   7
Atom  95H    basis set group =>   7
Atom  96H    basis set group =>   7
---------------------------------
AUXILIARY/J BASIS SET INFORMATION
---------------------------------
There are 7 groups of distinct atoms

 Group   1 Type C   : 12s5p4d2f1g contracted to 6s4p3d1f1g pattern {711111/2111/211/2/1}
 Group   2 Type O   : 12s5p4d2f1g contracted to 6s4p3d1f1g pattern {711111/2111/211/2/1}
 Group   3 Type F   : 12s5p4d2f1g contracted to 6s4p3d1f1g pattern {711111/2111/211/2/1}
 Group   4 Type N   : 12s5p4d2f1g contracted to 6s4p3d1f1g pattern {711111/2111/211/2/1}
 Group   5 Type Se  : 19s5p5d3f1g contracted to 8s4p3d2f1g pattern {121111111/2111/311/21/1}
 Group   6 Type S   : 14s5p5d2f1g contracted to 8s4p3d1f1g pattern {71111111/2111/311/2/1}
 Group   7 Type H   : 5s2p1d contracted to 3s1p1d pattern {311/2/1}

Atom   0C    basis set group =>   1
Atom   1O    basis set group =>   2
Atom   2C    basis set group =>   1
Atom   3C    basis set group =>   1
Atom   4C    basis set group =>   1
Atom   5F    basis set group =>   3
Atom   6C    basis set group =>   1
Atom   7F    basis set group =>   3
Atom   8C    basis set group =>   1
Atom   9C    basis set group =>   1
Atom  10C    basis set group =>   1
Atom  11C    basis set group =>   1
Atom  12C    basis set group =>   1
Atom  13N    basis set group =>   4
Atom  14C    basis set group =>   1
Atom  15N    basis set group =>   4
Atom  16C    basis set group =>   1
Atom  17C    basis set group =>   1
Atom  18C    basis set group =>   1
Atom  19Se   basis set group =>   5
Atom  20C    basis set group =>   1
Atom  21C    basis set group =>   1
Atom  22C    basis set group =>   1
Atom  23C    basis set group =>   1
Atom  24C    basis set group =>   1
Atom  25S    basis set group =>   6
Atom  26C    basis set group =>   1
Atom  27C    basis set group =>   1
Atom  28N    basis set group =>   4
Atom  29C    basis set group =>   1
Atom  30C    basis set group =>   1
Atom  31C    basis set group =>   1
Atom  32C    basis set group =>   1
Atom  33C    basis set group =>   1
Atom  34N    basis set group =>   4
Atom  35S    basis set group =>   6
Atom  36N    basis set group =>   4
Atom  37C    basis set group =>   1
Atom  38C    basis set group =>   1
Atom  39C    basis set group =>   1
Atom  40N    basis set group =>   4
Atom  41C    basis set group =>   1
Atom  42C    basis set group =>   1
Atom  43C    basis set group =>   1
Atom  44C    basis set group =>   1
Atom  45S    basis set group =>   6
Atom  46C    basis set group =>   1
Atom  47C    basis set group =>   1
Atom  48Se   basis set group =>   5
Atom  49C    basis set group =>   1
Atom  50C    basis set group =>   1
Atom  51C    basis set group =>   1
Atom  52C    basis set group =>   1
Atom  53C    basis set group =>   1
Atom  54C    basis set group =>   1
Atom  55C    basis set group =>   1
Atom  56C    basis set group =>   1
Atom  57C    basis set group =>   1
Atom  58N    basis set group =>   4
Atom  59C    basis set group =>   1
Atom  60N    basis set group =>   4
Atom  61C    basis set group =>   1
Atom  62C    basis set group =>   1
Atom  63C    basis set group =>   1
Atom  64F    basis set group =>   3
Atom  65C    basis set group =>   1
Atom  66F    basis set group =>   3
Atom  67C    basis set group =>   1
Atom  68C    basis set group =>   1
Atom  69C    basis set group =>   1
Atom  70O    basis set group =>   2
Atom  71H    basis set group =>   7
Atom  72H    basis set group =>   7
Atom  73H    basis set group =>   7
Atom  74H    basis set group =>   7
Atom  75H    basis set group =>   7
Atom  76H    basis set group =>   7
Atom  77H    basis set group =>   7
Atom  78H    basis set group =>   7
Atom  79H    basis set group =>   7
Atom  80H    basis set group =>   7
Atom  81H    basis set group =>   7
Atom  82H    basis set group =>   7
Atom  83H    basis set group =>   7
Atom  84H    basis set group =>   7
Atom  85H    basis set group =>   7
Atom  86H    basis set group =>   7
Atom  87H    basis set group =>   7
Atom  88H    basis set group =>   7
Atom  89H    basis set group =>   7
Atom  90H    basis set group =>   7
Atom  91H    basis set group =>   7
Atom  92H    basis set group =>   7
Atom  93H    basis set group =>   7
Atom  94H    basis set group =>   7
Atom  95H    basis set group =>   7
Atom  96H    basis set group =>   7
------------------------------------------------------------------------------
                           ORCA GTO INTEGRAL CALCULATION
                           -- RI-GTO INTEGRALS CHOSEN --
------------------------------------------------------------------------------

                         BASIS SET STATISTICS AND STARTUP INFO

Gaussian basis set:
 # of primitive gaussian shells          ... 1036
 # of primitive gaussian functions       ... 2022
 # of contracted shells                  ...  522
 # of contracted basis functions         ... 1172
 Highest angular momentum                ...    2
 Maximum contraction depth               ...    6
Auxiliary gaussian basis set:
 # of primitive gaussian shells          ... 1939
 # of primitive gaussian functions       ... 5445
 # of contracted shells                  ... 1207
 # of contracted aux-basis functions     ... 3789
 Highest angular momentum                ...    4
 Maximum contraction depth               ...   12
Ratio of auxiliary to basis functions    ...  3.23
Integral package used                  ... LIBINT
 One Electron integrals                  ... done
 Ordering auxiliary basis shells         ... done
 Integral threshhold             Thresh  ...  2.500e-11
 Primitive cut-off               TCut    ...  2.500e-12
 Pre-screening matrix                    ... done
 Shell pair data                         ... 
 Ordering of the shell pairs             ... done (   0.011 sec) 52359 of 136503 pairs
 Determination of significant pairs      ... done (   0.000 sec)
 Creation of shell pair data             ... done (   0.008 sec)
 Storage of shell pair data              ... done (   0.010 sec)
 Shell pair data done in (   0.030 sec)
 Computing two index integrals           ... done
 Cholesky decomposition of the V-matrix  ... done


Timings:
 Total evaluation time                   ...   2.369 sec (  0.039 min)
 One electron matrix time                ...   0.631 sec (  0.011 min) = 26.7%
 Schwartz matrix evaluation time         ...   0.780 sec (  0.013 min) = 32.9%
 Two index repulsion integral time       ...   0.372 sec (  0.006 min) = 15.7%
 Cholesky decomposition of V             ...   0.538 sec (  0.009 min) = 22.7%
 Three index repulsion integral time     ...   0.000 sec (  0.000 min) =  0.0%

-------------------------------------------------------------------------------
                                 ORCA SCF
-------------------------------------------------------------------------------

------------
SCF SETTINGS
------------
Hamiltonian:
 Density Functional     Method          .... DFT(GTOs)
 Exchange Functional    Exchange        .... WB88
 Correlation Functional Correlation     .... LYP
 LDA part of GGA corr.  LDAOpt          .... VWN-5
 Gradients option       PostSCFGGA      .... off
 Hybrid DFT is turned on
   Fraction HF Exchange ScalHFX         ....  0.190000
   Scaling of DF-GGA-X  ScalDFX         ....  0.350000
   Scaling of DF-GGA-C  ScalDFC         ....  0.810000
   Scaling of DF-LDA-C  ScalLDAC        ....  1.000000
   Perturbative correction              ....  0.000000
   Density functional embedding theory  .... OFF
 Long-range corrected/Screened/Range-Separated Hybrid DFT is turned on
   Amount of maximum screened exact exchange              ....  0.460000
   Range separation parameter mu (erf(mu*r12)/r12)        ....  0.330000
 RI-approximation to the Coulomb term is turned on
   Number of auxiliary basis functions  .... 3789
   RIJ-COSX (HFX calculated with COS-X)).... on


General Settings:
 Integral files         IntName         .... CH1007
 Hartree-Fock type      HFTyp           .... RHF
 Total Charge           Charge          ....    0
 Multiplicity           Mult            ....    1
 Number of Electrons    NEL             ....  562
 Basis Dimension        Dim             .... 1172
 Nuclear Repulsion      ENuc            ....  13245.2694775749 Eh

Convergence Acceleration:
 DIIS                   CNVDIIS         .... on
   Start iteration      DIISMaxIt       ....    12
   Startup error        DIISStart       ....  0.200000
   # of expansion vecs  DIISMaxEq       ....     5
   Bias factor          DIISBfac        ....   1.050
   Max. coefficient     DIISMaxC        ....  10.000
 Newton-Raphson         CNVNR           .... off
 SOSCF                  CNVSOSCF        .... on
   Start iteration      SOSCFMaxIt      ....   150
   Startup grad/error   SOSCFStart      ....  0.003300
 Level Shifting         CNVShift        .... on
   Level shift para.    LevelShift      ....    0.2500
   Turn off err/grad.   ShiftErr        ....    0.0010
 Zerner damping         CNVZerner       .... off
 Static damping         CNVDamp         .... on
   Fraction old density DampFac         ....    0.7000
   Max. Damping (<1)    DampMax         ....    0.9800
   Min. Damping (>=0)   DampMin         ....    0.0000
   Turn off err/grad.   DampErr         ....    0.1000
 Fernandez-Rico         CNVRico         .... off

SCF Procedure:
 Maximum # iterations   MaxIter         ....   125
 SCF integral mode      SCFMode         .... Direct
   Integral package                     .... LIBINT
 Reset frequency        DirectResetFreq ....    20
 Integral Threshold     Thresh          ....  2.500e-11 Eh
 Primitive CutOff       TCut            ....  2.500e-12 Eh

Convergence Tolerance:
 Convergence Check Mode ConvCheckMode   .... Total+1el-Energy
 Convergence forced     ConvForced      .... 1
 Energy Change          TolE            ....  1.000e-08 Eh
 1-El. energy change                    ....  1.000e-05 Eh
 Orbital Gradient       TolG            ....  1.000e-05
 Orbital Rotation angle TolX            ....  1.000e-05
 DIIS Error             TolErr          ....  5.000e-07


Diagonalization of the overlap matrix:
Smallest eigenvalue                        ... 8.870e-05
Time for diagonalization                   ...    0.399 sec
Threshold for overlap eigenvalues          ... 1.000e-08
Number of eigenvalues below threshold      ... 0
Time for construction of square roots      ...    0.148 sec
Total time needed                          ...    0.551 sec

-------------------
DFT GRID GENERATION
-------------------

General Integration Accuracy     IntAcc      ...  4.670
Radial Grid Type                 RadialGrid  ... Gauss-Chebyshev
Angular Grid (max. acc.)         AngularGrid ... Lebedev-302
Angular grid pruning method      GridPruning ... 3 (G Style)
Weight generation scheme         WeightScheme... Becke
Basis function cutoff            BFCut       ...    1.0000e-11
Integration weight cutoff        WCut        ...    1.0000e-14
Grids for H and He will be reduced by one unit

# of grid points (after initial pruning)     ... 538294 (   1.1 sec)
# of grid points (after weights+screening)   ... 457044 (  22.0 sec)
nearest neighbour list constructed           ...    0.0 sec
Grid point re-assignment to atoms done       ...    0.1 sec
Grid point division into batches done        ...    1.7 sec
Reduced shell lists constructed in    9.1 sec

Total number of grid points                  ...   457044
Total number of batches                      ...     7203
Average number of points per batch           ...       63
Average number of grid points per atom       ...     4712
Average number of shells per batch           ...   105.98 (20.30%)
Average number of basis functions per batch  ...   219.98 (18.77%)
Average number of large shells per batch     ...    61.18 (57.72%)
Average number of large basis fcns per batch ...   129.00 (58.64%)
Maximum spatial batch extension              ...  19.43, 21.64, 25.10 au
Average spatial batch extension              ...   2.07,  2.12,  2.16 au

Time for grid setup =   32.222 sec

------------------------------
INITIAL GUESS: MODEL POTENTIAL
------------------------------
Loading Hartree-Fock densities                     ... done
Calculating cut-offs                               ... done
Setting up the integral package                    ... done
Initializing the effective Hamiltonian             ... done
Starting the Coulomb interaction                   ... done (   9.8 sec)
Reading the grid                                   ... done
Mapping shells                                     ... done
Starting the XC term evaluation                    ... done (   9.4 sec)
  promolecular density results
     # of electrons  =    561.987731728
     EX              =   -627.661484102
     EC              =    -20.445099926
     EX+EC           =   -648.106584028
Transforming the Hamiltonian                       ... done (   0.1 sec)
Diagonalizing the Hamiltonian                      ... done (   0.3 sec)
Back transforming the eigenvectors                 ... done (   0.1 sec)
Now organizing SCF variables                       ... done
                      ------------------
                      INITIAL GUESS DONE (  52.2 sec)
                      ------------------
--------------------
COSX GRID GENERATION
--------------------

General Integration Accuracy     IntAcc      ...  3.340
Radial Grid Type                 RadialGrid  ... Gauss-Chebyshev
Angular Grid (max. acc.)         AngularGrid ... Lebedev-50
Angular grid pruning method      GridPruning ... 3 (G Style)
Weight generation scheme         WeightScheme... Becke
Basis function cutoff            BFCut       ...    1.0000e-11
Integration weight cutoff        WCut        ...    1.0000e-14
Grids for H and He will be reduced by one unit

# of grid points (after initial pruning)     ...  50690 (   0.1 sec)
# of grid points (after weights+screening)   ...  45112 (   2.0 sec)
nearest neighbour list constructed           ...    0.0 sec
Grid point re-assignment to atoms done       ...    0.0 sec
Grid point division into batches done        ...    0.0 sec
Reduced shell lists constructed in    0.9 sec

Total number of grid points                  ...    45112
Total number of batches                      ...      759
Average number of points per batch           ...       59
Average number of grid points per atom       ...      465
Average number of shells per batch           ...   129.62 (24.83%)
Average number of basis functions per batch  ...   272.48 (23.25%)
Average number of large shells per batch     ...    75.02 (57.88%)
Average number of large basis fcns per batch ...   160.19 (58.79%)
Maximum spatial batch extension              ...  20.01, 25.32, 24.05 au
Average spatial batch extension              ...   4.15,  4.46,  4.55 au

Overlap Fitting                  UseSFitting ... on
Constructing numerical overlap ... done (      0.7 sec)
Inverting numerical overlap    ... done (      0.0 sec)
Obtaining analytic overlap     ... done (      0.0 sec)
Final contraction and storage  ... done (      0.1 sec)


General Integration Accuracy     IntAcc      ...  3.670
Radial Grid Type                 RadialGrid  ... Gauss-Chebyshev
Angular Grid (max. acc.)         AngularGrid ... Lebedev-50
Angular grid pruning method      GridPruning ... 3 (G Style)
Weight generation scheme         WeightScheme... Becke
Basis function cutoff            BFCut       ...    1.0000e-11
Integration weight cutoff        WCut        ...    1.0000e-14
Grids for H and He will be reduced by one unit

# of grid points (after initial pruning)     ...  63050 (   0.1 sec)
# of grid points (after weights+screening)   ...  55877 (   2.5 sec)
nearest neighbour list constructed           ...    0.0 sec
Grid point re-assignment to atoms done       ...    0.0 sec
Grid point division into batches done        ...    0.0 sec
Reduced shell lists constructed in    1.1 sec

Total number of grid points                  ...    55877
Total number of batches                      ...      921
Average number of points per batch           ...       60
Average number of grid points per atom       ...      576
Average number of shells per batch           ...   127.04 (24.34%)
Average number of basis functions per batch  ...   266.67 (22.75%)
Average number of large shells per batch     ...    73.44 (57.81%)
Average number of large basis fcns per batch ...   156.66 (58.74%)
Maximum spatial batch extension              ...  19.96, 26.68, 26.22 au
Average spatial batch extension              ...   3.97,  4.19,  4.19 au

Overlap Fitting                  UseSFitting ... on
Constructing numerical overlap ... done (      0.8 sec)
Inverting numerical overlap    ... done (      0.0 sec)
Obtaining analytic overlap     ... done (      0.0 sec)
Final contraction and storage  ... done (      0.1 sec)


General Integration Accuracy     IntAcc      ...  4.010
Radial Grid Type                 RadialGrid  ... Gauss-Chebyshev
Angular Grid (max. acc.)         AngularGrid ... Lebedev-110
Angular grid pruning method      GridPruning ... 3 (G Style)
Weight generation scheme         WeightScheme... Becke
Basis function cutoff            BFCut       ...    1.0000e-11
Integration weight cutoff        WCut        ...    1.0000e-14
Grids for H and He will be reduced by one unit

# of grid points (after initial pruning)     ... 124208 (   0.2 sec)
# of grid points (after weights+screening)   ... 108976 (   5.1 sec)
nearest neighbour list constructed           ...    0.0 sec
Grid point re-assignment to atoms done       ...    0.0 sec
Grid point division into batches done        ...    0.1 sec
Reduced shell lists constructed in    2.1 sec

Total number of grid points                  ...   108976
Total number of batches                      ...     1758
Average number of points per batch           ...       61
Average number of grid points per atom       ...     1123
Average number of shells per batch           ...   119.55 (22.90%)
Average number of basis functions per batch  ...   250.26 (21.35%)
Average number of large shells per batch     ...    69.62 (58.23%)
Average number of large basis fcns per batch ...   148.04 (59.16%)
Maximum spatial batch extension              ...  22.20, 20.68, 20.32 au
Average spatial batch extension              ...   3.26,  3.43,  3.47 au

Overlap Fitting                  UseSFitting ... on
Constructing numerical overlap ... done (      1.4 sec)
Inverting numerical overlap    ... done (      0.0 sec)
Obtaining analytic overlap     ... done (      0.0 sec)
Final contraction and storage  ... done (      0.1 sec)

Time for X-Grid setup             =   17.576 sec
--------------
SCF ITERATIONS
--------------
ITER       Energy         Delta-E        Max-DP      RMS-DP      [F,P]     Damp
               ***  Starting incremental Fock matrix formation  ***
  0  -8976.5996033159   0.000000000000 0.13814204  0.00101882  0.2460434 0.7000
  1  -8977.2219446609  -0.622341345008 0.08184127  0.00070126  0.1056028 0.7000
                               ***Turning on DIIS***
  2  -8977.4826997944  -0.260755133448 0.09824874  0.00124685  0.0430590 0.0000
  3  -8977.9084372293  -0.425737434922 0.10385908  0.00054383  0.0539149 0.0000
  4  -8977.9922337829  -0.083796553654 0.01751875  0.00017227  0.0219368 0.0000
  5  -8977.9983053155  -0.006071532569 0.00634761  0.00006910  0.0086142 0.0000
                      *** Initiating the SOSCF procedure ***
                           *** Shutting down DIIS ***
                      *** Re-Reading the Fockian *** 
                      *** Removing any level shift *** 
ITER      Energy       Delta-E        Grad      Rot      Max-DP    RMS-DP
  6  -8977.99950651  -0.0012011960  0.002444  0.002444  0.004384  0.000038
               *** Restarting incremental Fock matrix formation ***
  7  -8977.99989139  -0.0003848740  0.001639  0.012092  0.002840  0.000041
  8  -8978.00016492  -0.0002735388  0.000562  0.010962  0.003527  0.000042
  9  -8978.00017537  -0.0000104498  0.001183  0.003569  0.001580  0.000015
 10  -8978.00023355  -0.0000581790  0.000257  0.001616  0.001268  0.000008
 11  -8978.00023313   0.0000004232  0.000169  0.000883  0.000617  0.000004
 12  -8978.00023753  -0.0000043987  0.000030  0.000145  0.000201  0.000002
 13  -8978.00023752   0.0000000127  0.000028  0.000075  0.000120  0.000001
 14  -8978.00023782  -0.0000003020  0.000008  0.000030  0.000033  0.000000
 15  -8978.00023779   0.0000000231  0.000007  0.000017  0.000038  0.000000
 16  -8978.00023780  -0.0000000052  0.000003  0.000010  0.000026  0.000000
 17  -8978.00023777   0.0000000266  0.000003  0.000004  0.000018  0.000000
                  ***Gradient check signals convergence***
              ***Rediagonalizing the Fockian in SOSCF/NRSCF***

               *****************************************************
               *                     SUCCESS                       *
               *           SCF CONVERGED AFTER  18 CYCLES          *
               *****************************************************

Setting up the final grid:

General Integration Accuracy     IntAcc      ...  5.010
Radial Grid Type                 RadialGrid  ... Gauss-Chebyshev
Angular Grid (max. acc.)         AngularGrid ... Lebedev-434
Angular grid pruning method      GridPruning ... 3 (G Style)
Weight generation scheme         WeightScheme... Becke
Basis function cutoff            BFCut       ...    1.0000e-11
Integration weight cutoff        WCut        ...    1.0000e-14
Grids for H and He will be reduced by one unit

# of grid points (after initial pruning)     ... 946892 (   1.5 sec)
# of grid points (after weights+screening)   ... 800847 (  38.6 sec)
nearest neighbour list constructed           ...    0.0 sec
Grid point re-assignment to atoms done       ...    0.1 sec
Grid point division into batches done        ...    5.5 sec
Reduced shell lists constructed in   17.7 sec

Total number of grid points                  ...   800847
Total number of batches                      ...    12568
Average number of points per batch           ...       63
Average number of grid points per atom       ...     8256
Average number of shells per batch           ...   102.26 (19.59%)
Average number of basis functions per batch  ...   211.55 (18.05%)
Average number of large shells per batch     ...    58.90 (57.59%)
Average number of large basis fcns per batch ...   123.84 (58.54%)
Maximum spatial batch extension              ...  21.94, 20.92, 24.64 au
Average spatial batch extension              ...   1.70,  1.73,  1.76 au

Final grid set up in   57.8 sec
Final integration                            ... done (  23.3 sec)
Change in XC energy                          ...     0.000120592
Integrated number of electrons               ...   561.999710712
Previous integrated no of electrons          ...   562.000192786
Old exchange energy                            =   -164.910142684 Eh
New exchange energy                            =   -164.910148090 Eh
Exchange energy change after final integration =     -0.000005406 Eh
Total energy after final integration           =  -8978.000122654 Eh
Final COS-X integration done in                =   447.347 sec

----------------
TOTAL SCF ENERGY
----------------

Total Energy       :        -8978.00012265 Eh         -244303.80350 eV

Components:
Nuclear Repulsion  :        13245.26947757 Eh          360422.10599 eV
Electronic Energy  :       -22223.26960023 Eh         -604725.90949 eV
One Electron Energy:       -38797.01860903 Eh        -1055720.54815 eV
Two Electron Energy:        16573.74900880 Eh          450994.63865 eV

Virial components:
Potential Energy   :       -17920.32679147 Eh         -487636.88298 eV
Kinetic Energy     :         8942.32666881 Eh          243333.07947 eV
Virial Ratio       :            2.00398928


DFT components:
N(Alpha)           :      280.999855355926 electrons
N(Beta)            :      280.999855355926 electrons
N(Total)           :      561.999710711852 electrons
E(XC)              :     -491.473382134253 Eh       
DFET-embed. en.    :        0.000000000000 Eh       

---------------
SCF CONVERGENCE
---------------

  Last Energy change         ...   -6.6097e-08  Tolerance :   1.0000e-08
  Last MAX-Density change    ...    7.9936e-15  Tolerance :   1.0000e-07
  Last RMS-Density change    ...    3.7889e-17  Tolerance :   5.0000e-09
  Last Orbital Gradient      ...    8.1544e-07  Tolerance :   1.0000e-05
  Last Orbital Rotation      ...    2.7844e-06  Tolerance :   1.0000e-05

             **** THE GBW FILE WAS UPDATED (CH1007.gbw) ****
             **** DENSITY FILE WAS UPDATED (CH1007.scfp) ****
             **** ENERGY FILE WAS UPDATED (CH1007.en.tmp) ****
             **** THE GBW FILE WAS UPDATED (CH1007.gbw) ****
             **** DENSITY FILE WAS UPDATED (CH1007.scfp) ****
----------------
ORBITAL ENERGIES
----------------

  NO   OCC          E(Eh)            E(eV) 
   0   2.0000    -454.012540    -12354.3093 
   1   2.0000    -453.932896    -12352.1421 
   2   2.0000     -89.017190     -2422.2809 
   3   2.0000     -88.964933     -2420.8589 
   4   2.0000     -88.861093     -2418.0333 
   5   2.0000     -58.224573     -1584.3712 
   6   2.0000     -58.146106     -1582.2360 
   7   2.0000     -52.294244     -1422.9987 
   8   2.0000     -52.293911     -1422.9897 
   9   2.0000     -52.292899     -1422.9621 
  10   2.0000     -52.216417     -1420.8809 
  11   2.0000     -52.215092     -1420.8449 
  12   2.0000     -52.214065     -1420.8169 
  13   2.0000     -24.825757      -675.5432 
  14   2.0000     -24.818590      -675.3482 
  15   2.0000     -24.800910      -674.8671 
  16   2.0000     -24.799114      -674.8182 
  17   2.0000     -19.302127      -525.2376 
  18   2.0000     -19.226225      -523.1722 
  19   2.0000     -14.499281      -394.5455 
  20   2.0000     -14.487767      -394.2322 
  21   2.0000     -14.441457      -392.9720 
  22   2.0000     -14.438319      -392.8866 
  23   2.0000     -14.437625      -392.8677 
  24   2.0000     -14.437404      -392.8617 
  25   2.0000     -14.419774      -392.3820 
  26   2.0000     -14.413266      -392.2049 
  27   2.0000     -10.448949      -284.3304 
  28   2.0000     -10.413354      -283.3618 
  29   2.0000     -10.408327      -283.2250 
  30   2.0000     -10.385321      -282.5989 
  31   2.0000     -10.384831      -282.5856 
  32   2.0000     -10.375534      -282.3326 
  33   2.0000     -10.373068      -282.2655 
  34   2.0000     -10.373010      -282.2640 
  35   2.0000     -10.372208      -282.2421 
  36   2.0000     -10.347566      -281.5716 
  37   2.0000     -10.347088      -281.5586 
  38   2.0000     -10.344179      -281.4794 
  39   2.0000     -10.343545      -281.4622 
  40   2.0000     -10.343051      -281.4487 
  41   2.0000     -10.341170      -281.3975 
  42   2.0000     -10.338923      -281.3364 
  43   2.0000     -10.338116      -281.3144 
  44   2.0000     -10.337204      -281.2896 
  45   2.0000     -10.337065      -281.2858 
  46   2.0000     -10.336632      -281.2740 
  47   2.0000     -10.334921      -281.2275 
  48   2.0000     -10.327762      -281.0327 
  49   2.0000     -10.327016      -281.0124 
  50   2.0000     -10.325703      -280.9767 
  51   2.0000     -10.323166      -280.9076 
  52   2.0000     -10.322304      -280.8842 
  53   2.0000     -10.321449      -280.8609 
  54   2.0000     -10.320798      -280.8432 
  55   2.0000     -10.318747      -280.7874 
  56   2.0000     -10.317035      -280.7408 
  57   2.0000     -10.316761      -280.7333 
  58   2.0000     -10.315322      -280.6942 
  59   2.0000     -10.314667      -280.6764 
  60   2.0000     -10.314494      -280.6717 
  61   2.0000     -10.313972      -280.6574 
  62   2.0000     -10.312578      -280.6195 
  63   2.0000     -10.312482      -280.6169 
  64   2.0000     -10.311141      -280.5804 
  65   2.0000     -10.310707      -280.5686 
  66   2.0000     -10.309902      -280.5467 
  67   2.0000     -10.309095      -280.5247 
  68   2.0000     -10.307305      -280.4760 
  69   2.0000     -10.306815      -280.4627 
  70   2.0000     -10.302025      -280.3324 
  71   2.0000     -10.294375      -280.1242 
  72   2.0000     -10.292010      -280.0598 
  73   2.0000     -10.286154      -279.9005 
  74   2.0000     -10.282835      -279.8102 
  75   2.0000     -10.282560      -279.8027 
  76   2.0000     -10.279103      -279.7086 
  77   2.0000     -10.262677      -279.2616 
  78   2.0000     -10.261899      -279.2405 
  79   2.0000      -8.109381      -220.6675 
  80   2.0000      -8.059150      -219.3006 
  81   2.0000      -7.998355      -217.6463 
  82   2.0000      -7.957146      -216.5249 
  83   2.0000      -7.919939      -215.5125 
  84   2.0000      -6.080849      -165.4683 
  85   2.0000      -6.073166      -165.2592 
  86   2.0000      -6.071096      -165.2029 
  87   2.0000      -6.028959      -164.0563 
  88   2.0000      -6.025008      -163.9488 
  89   2.0000      -6.020176      -163.8173 
  90   2.0000      -5.945241      -161.7782 
  91   2.0000      -5.944037      -161.7455 
  92   2.0000      -5.939066      -161.6102 
  93   2.0000      -5.927413      -161.2931 
  94   2.0000      -5.922296      -161.1539 
  95   2.0000      -5.918351      -161.0465 
  96   2.0000      -5.869511      -159.7175 
  97   2.0000      -5.864792      -159.5891 
  98   2.0000      -5.858809      -159.4263 
  99   2.0000      -2.300196       -62.5915 
 100   2.0000      -2.299963       -62.5852 
 101   2.0000      -2.296106       -62.4802 
 102   2.0000      -2.295021       -62.4507 
 103   2.0000      -2.293722       -62.4153 
 104   2.0000      -2.224277       -60.5257 
 105   2.0000      -2.223362       -60.5007 
 106   2.0000      -2.217945       -60.3534 
 107   2.0000      -2.214174       -60.2508 
 108   2.0000      -2.213601       -60.2351 
 109   2.0000      -1.346904       -36.6511 
 110   2.0000      -1.330055       -36.1926 
 111   2.0000      -1.323596       -36.0169 
 112   2.0000      -1.308373       -35.6026 
 113   2.0000      -1.222625       -33.2693 
 114   2.0000      -1.138553       -30.9816 
 115   2.0000      -1.126050       -30.6414 
 116   2.0000      -1.119256       -30.4565 
 117   2.0000      -1.108700       -30.1693 
 118   2.0000      -1.063258       -28.9327 
 119   2.0000      -1.028922       -27.9984 
 120   2.0000      -1.021598       -27.7991 
 121   2.0000      -1.015409       -27.6307 
 122   2.0000      -1.004207       -27.3259 
 123   2.0000      -1.001705       -27.2578 
 124   2.0000      -0.996489       -27.1158 
 125   2.0000      -0.994561       -27.0634 
 126   2.0000      -0.981896       -26.7187 
 127   2.0000      -0.979042       -26.6411 
 128   2.0000      -0.967356       -26.3231 
 129   2.0000      -0.959125       -26.0991 
 130   2.0000      -0.952064       -25.9070 
 131   2.0000      -0.944368       -25.6976 
 132   2.0000      -0.937364       -25.5070 
 133   2.0000      -0.912200       -24.8222 
 134   2.0000      -0.905330       -24.6353 
 135   2.0000      -0.903289       -24.5797 
 136   2.0000      -0.893938       -24.3253 
 137   2.0000      -0.893104       -24.3026 
 138   2.0000      -0.887059       -24.1381 
 139   2.0000      -0.877833       -23.8871 
 140   2.0000      -0.873807       -23.7775 
 141   2.0000      -0.867332       -23.6013 
 142   2.0000      -0.863034       -23.4844 
 143   2.0000      -0.848293       -23.0832 
 144   2.0000      -0.837470       -22.7887 
 145   2.0000      -0.828988       -22.5579 
 146   2.0000      -0.827596       -22.5200 
 147   2.0000      -0.817258       -22.2387 
 148   2.0000      -0.806662       -21.9504 
 149   2.0000      -0.795851       -21.6562 
 150   2.0000      -0.789350       -21.4793 
 151   2.0000      -0.776507       -21.1298 
 152   2.0000      -0.774126       -21.0650 
 153   2.0000      -0.762679       -20.7535 
 154   2.0000      -0.758544       -20.6410 
 155   2.0000      -0.757871       -20.6227 
 156   2.0000      -0.756427       -20.5834 
 157   2.0000      -0.736547       -20.0425 
 158   2.0000      -0.732171       -19.9234 
 159   2.0000      -0.720886       -19.6163 
 160   2.0000      -0.720533       -19.6067 
 161   2.0000      -0.713235       -19.4081 
 162   2.0000      -0.709904       -19.3175 
 163   2.0000      -0.708708       -19.2849 
 164   2.0000      -0.704035       -19.1578 
 165   2.0000      -0.701101       -19.0779 
 166   2.0000      -0.695466       -18.9246 
 167   2.0000      -0.686592       -18.6831 
 168   2.0000      -0.672146       -18.2900 
 169   2.0000      -0.668179       -18.1821 
 170   2.0000      -0.663057       -18.0427 
 171   2.0000      -0.660779       -17.9807 
 172   2.0000      -0.656779       -17.8719 
 173   2.0000      -0.648890       -17.6572 
 174   2.0000      -0.644154       -17.5283 
 175   2.0000      -0.641069       -17.4444 
 176   2.0000      -0.632977       -17.2242 
 177   2.0000      -0.622727       -16.9453 
 178   2.0000      -0.620333       -16.8801 
 179   2.0000      -0.619106       -16.8467 
 180   2.0000      -0.615187       -16.7401 
 181   2.0000      -0.613442       -16.6926 
 182   2.0000      -0.609823       -16.5941 
 183   2.0000      -0.606654       -16.5079 
 184   2.0000      -0.602283       -16.3889 
 185   2.0000      -0.594188       -16.1687 
 186   2.0000      -0.591691       -16.1007 
 187   2.0000      -0.591279       -16.0895 
 188   2.0000      -0.588803       -16.0221 
 189   2.0000      -0.585146       -15.9226 
 190   2.0000      -0.583185       -15.8693 
 191   2.0000      -0.578763       -15.7490 
 192   2.0000      -0.575560       -15.6618 
 193   2.0000      -0.570240       -15.5170 
 194   2.0000      -0.569477       -15.4963 
 195   2.0000      -0.559983       -15.2379 
 196   2.0000      -0.557197       -15.1621 
 197   2.0000      -0.555748       -15.1227 
 198   2.0000      -0.551583       -15.0093 
 199   2.0000      -0.549047       -14.9403 
 200   2.0000      -0.548687       -14.9305 
 201   2.0000      -0.546449       -14.8696 
 202   2.0000      -0.546215       -14.8633 
 203   2.0000      -0.540425       -14.7057 
 204   2.0000      -0.540053       -14.6956 
 205   2.0000      -0.536819       -14.6076 
 206   2.0000      -0.535419       -14.5695 
 207   2.0000      -0.530598       -14.4383 
 208   2.0000      -0.528705       -14.3868 
 209   2.0000      -0.527195       -14.3457 
 210   2.0000      -0.526871       -14.3369 
 211   2.0000      -0.523208       -14.2372 
 212   2.0000      -0.521600       -14.1935 
 213   2.0000      -0.515544       -14.0287 
 214   2.0000      -0.509756       -13.8712 
 215   2.0000      -0.509411       -13.8618 
 216   2.0000      -0.505955       -13.7677 
 217   2.0000      -0.501349       -13.6424 
 218   2.0000      -0.498102       -13.5540 
 219   2.0000      -0.496888       -13.5210 
 220   2.0000      -0.496124       -13.5002 
 221   2.0000      -0.493930       -13.4405 
 222   2.0000      -0.490982       -13.3603 
 223   2.0000      -0.488980       -13.3058 
 224   2.0000      -0.484990       -13.1973 
 225   2.0000      -0.483487       -13.1564 
 226   2.0000      -0.481576       -13.1043 
 227   2.0000      -0.479461       -13.0468 
 228   2.0000      -0.471330       -12.8255 
 229   2.0000      -0.470077       -12.7915 
 230   2.0000      -0.467610       -12.7243 
 231   2.0000      -0.465418       -12.6647 
 232   2.0000      -0.464823       -12.6485 
 233   2.0000      -0.463454       -12.6112 
 234   2.0000      -0.462459       -12.5841 
 235   2.0000      -0.459872       -12.5138 
 236   2.0000      -0.457786       -12.4570 
 237   2.0000      -0.456590       -12.4244 
 238   2.0000      -0.455265       -12.3884 
 239   2.0000      -0.451699       -12.2914 
 240   2.0000      -0.448947       -12.2165 
 241   2.0000      -0.448608       -12.2072 
 242   2.0000      -0.448490       -12.2040 
 243   2.0000      -0.445745       -12.1293 
 244   2.0000      -0.443138       -12.0584 
 245   2.0000      -0.442581       -12.0432 
 246   2.0000      -0.438184       -11.9236 
 247   2.0000      -0.436441       -11.8762 
 248   2.0000      -0.435287       -11.8448 
 249   2.0000      -0.433561       -11.7978 
 250   2.0000      -0.430322       -11.7097 
 251   2.0000      -0.429387       -11.6842 
 252   2.0000      -0.425588       -11.5808 
 253   2.0000      -0.422230       -11.4895 
 254   2.0000      -0.420313       -11.4373 
 255   2.0000      -0.415806       -11.3147 
 256   2.0000      -0.411256       -11.1908 
 257   2.0000      -0.410557       -11.1718 
 258   2.0000      -0.406489       -11.0611 
 259   2.0000      -0.403511       -10.9801 
 260   2.0000      -0.398915       -10.8550 
 261   2.0000      -0.398014       -10.8305 
 262   2.0000      -0.392948       -10.6927 
 263   2.0000      -0.389944       -10.6109 
 264   2.0000      -0.377654       -10.2765 
 265   2.0000      -0.371684       -10.1140 
 266   2.0000      -0.365698        -9.9511 
 267   2.0000      -0.361607        -9.8398 
 268   2.0000      -0.351801        -9.5730 
 269   2.0000      -0.347380        -9.4527 
 270   2.0000      -0.341194        -9.2844 
 271   2.0000      -0.340940        -9.2774 
 272   2.0000      -0.336040        -9.1441 
 273   2.0000      -0.333041        -9.0625 
 274   2.0000      -0.318568        -8.6687 
 275   2.0000      -0.309362        -8.4182 
 276   2.0000      -0.304568        -8.2877 
 277   2.0000      -0.279831        -7.6146 
 278   2.0000      -0.268454        -7.3050 
 279   2.0000      -0.263393        -7.1673 
 280   2.0000      -0.229867        -6.2550 
 281   0.0000      -0.097066        -2.6413 
 282   0.0000      -0.093660        -2.5486 
 283   0.0000      -0.068190        -1.8555 
 284   0.0000      -0.064532        -1.7560 
 285   0.0000      -0.050096        -1.3632 
 286   0.0000      -0.043302        -1.1783 
 287   0.0000      -0.018659        -0.5077 
 288   0.0000      -0.014108        -0.3839 
 289   0.0000      -0.009792        -0.2665 
 290   0.0000      -0.007677        -0.2089 
 291   0.0000       0.016266         0.4426 
 292   0.0000       0.022846         0.6217 
 293   0.0000       0.024595         0.6693 
 294   0.0000       0.032023         0.8714 
 295   0.0000       0.034266         0.9324 
 296   0.0000       0.036356         0.9893 
 297   0.0000       0.042861         1.1663 
 298   0.0000       0.044453         1.2096 
 299   0.0000       0.050874         1.3844 
 300   0.0000       0.056947         1.5496 
 301   0.0000       0.062349         1.6966 
 302   0.0000       0.066716         1.8154 
 303   0.0000       0.069290         1.8855 
 304   0.0000       0.071723         1.9517 
[...]
  32   4.260     291.0   0.246738   0.225121  -27.694637  -33.677757     0.39 (  83->  89)    0.18 (  81->  89)    0.10 (  80->  89)
  33   4.275     290.0   0.080210   0.072935  -79.953678  -73.699903     0.35 (  88->  97)    0.13 (  88->  96)    0.07 (  88->  95)
  34   4.309     287.7   0.176220   0.153938  92.582257  67.452073     0.21 (  80->  89)    0.15 (  75->  89)    0.13 (  79->  89)
  35   4.356     284.6   0.040128   0.037302  16.057245   4.315916     0.42 (  88->  99)    0.08 (  87->  91)    0.07 (  88-> 102)
  36   4.359     284.4   0.035901   0.032912   8.761063  15.245353     0.19 (  87->  91)    0.14 (  86->  91)    0.12 (  88->  99)
  37   4.392     282.3   0.008824   0.007870  -65.408592  -62.642558     0.20 (  87->  96)    0.13 (  87->  91)    0.11 (  86->  93)
  38   4.408     281.2   0.216948   0.196211  603.638407  583.927498     0.25 (  81->  92)    0.15 (  85->  92)    0.14 (  82->  91)
  39   4.420     280.5   0.366409   0.333938  -329.079749  -314.010089     0.33 (  82->  91)    0.11 (  84->  91)    0.09 (  81->  92)
  40   4.479     276.8   0.004524   0.004356   5.752476   1.166241     0.24 (  87->  95)    0.18 (  87->  96)    0.12 (  86->  93)
  41   4.560     271.9   0.013541   0.012816  26.718574   8.605582     0.18 (  84->  92)    0.14 (  88-> 102)    0.11 (  79->  92)
  42   4.598     269.7   0.050028   0.043142  -58.587651  -54.184790     0.38 (  85->  94)    0.12 (  83->  94)    0.12 (  80->  92)
  43   4.613     268.8   0.090683   0.081159  49.803840  50.557193     0.35 (  75->  89)    0.13 (  80->  92)    0.09 (  80->  89)
  44   4.656     266.3   0.097958   0.080200  99.428010  77.650763     0.23 (  80->  90)    0.15 (  81->  90)    0.09 (  83->  93)
  45   4.662     265.9   0.097755   0.084576  48.258426  45.566810     0.13 (  79->  89)    0.13 (  85->  94)    0.09 (  81->  92)
  46   4.697     264.0   0.068750   0.061763  -31.017291  -46.206815     0.17 (  88-> 102)    0.12 (  84->  91)    0.05 (  88-> 106)
  47   4.722     262.6   0.055066   0.047095   0.557675  -2.786318     0.14 (  84->  91)    0.09 (  82->  91)    0.08 (  84->  92)
  48   4.745     261.3   0.138197   0.125409  -71.352893  -65.842066     0.31 (  80->  89)    0.09 (  80->  92)    0.08 (  79->  89)
  49   4.774     259.7   0.072140   0.061083  28.555387  26.526650     0.24 (  76->  90)    0.22 (  77->  90)    0.16 (  84->  91)
  50   4.784     259.2   0.007242   0.005166   7.556512   4.496883     0.18 (  83->  92)    0.16 (  79->  92)    0.16 (  87->  98)
  51   4.800     258.3   0.003158   0.003206   0.456822   1.168303     0.40 (  87->  98)    0.14 (  86->  98)    0.10 (  79->  92)
  52   4.875     254.3   0.106222   0.091261  31.633393  37.574891     0.13 (  88-> 100)    0.08 (  86->  96)    0.08 (  86->  97)
  53   4.909     252.6   0.028391   0.021854  19.531374  15.686136     0.29 (  83->  91)    0.15 (  88-> 100)    0.07 (  86->  95)
  54   4.922     251.9   0.000559   0.000212   2.726778   2.135118     0.14 (  83->  91)    0.12 (  88-> 101)    0.10 (  88-> 100)
  55   4.945     250.7   0.022648   0.017047  -27.730818  -20.022975     0.15 (  88-> 100)    0.14 (  86->  95)    0.10 (  87->  95)
  56   4.973     249.3   0.004069   0.003324  -11.947355  -10.895039     0.22 (  84->  93)    0.22 (  83->  93)    0.08 (  88-> 101)

-----------------------------------------------------------------------------
         ABSORPTION SPECTRUM VIA TRANSITION ELECTRIC DIPOLE MOMENTS
-----------------------------------------------------------------------------
State   Energy  Wavelength   fosc         T2         TX        TY        TZ  
        (cm-1)    (nm)                  (au**2)     (au)      (au)      (au) 
-----------------------------------------------------------------------------
   0   14103.6    709.0   0.001530026   0.03571   0.04812   0.17719  -0.04474
   1   16101.6    621.1   1.055547864  21.58160   3.47280  -2.84985   1.18304
   2   16741.6    597.3   0.531323671  10.44811   2.24533  -2.09995   0.99841
   3   21199.7    471.7   0.011153027   0.17320   0.29872   0.03224  -0.28796
   4   21688.0    461.1   0.013265871   0.20137   0.11486   0.05611   0.43015
   5   22009.4    454.4   0.009202314   0.13765   0.32103   0.05288  -0.17830
   6   22824.8    438.1   0.110674557   1.59631   0.19349  -0.76092   0.98988
   7   23536.7    424.9   0.071525056   1.00044  -0.77908   0.02012   0.62694
   8   23707.9    421.8   0.086867144   1.20625   1.00966  -0.35494  -0.24668
   9   24487.5    408.4   0.232470829   3.12536  -0.51937   1.14545  -1.24240
  10   24844.1    402.5   0.003780387   0.05009   0.02777   0.22185   0.01022
  11   26147.9    382.4   0.000855765   0.01077   0.06955   0.07705  -0.00004
  12   27256.6    366.9   0.038267317   0.46220   0.42859  -0.45716  -0.26367
  13   28010.9    357.0   0.000841316   0.00989   0.02575   0.00515  -0.09591
  14   28115.7    355.7   0.018165685   0.21271   0.33292  -0.04819  -0.31551
  15   28651.2    349.0   0.000865753   0.00995   0.07271  -0.05467  -0.04090
  16   29452.9    339.5   0.035204654   0.39350   0.12473   0.35215  -0.50392
  17   30007.5    333.2   0.116701395   1.28033  -0.86042   0.00888   0.73480
  18   30254.6    330.5   0.084452946   0.91896   0.90493  -0.29137  -0.12319
  19   30380.2    329.2   0.086189163   0.93398   0.85325  -0.02625  -0.45305
  20   30887.8    323.8   0.038704613   0.41253  -0.15289  -0.23082   0.57955
  21   31123.1    321.3   0.010682772   0.11300   0.02009   0.28113  -0.18320
  22   31327.7    319.2   0.184512377   1.93898  -0.00360   0.92494  -1.04089
  23   31660.6    315.8   0.069444179   0.72209  -0.78769   0.21548   0.23494
  24   31969.5    312.8   0.013457305   0.13858   0.07846  -0.02470  -0.36306
  25   32253.1    310.0   0.026806617   0.27362   0.38709  -0.35007   0.03511
  26   32536.9    307.3   0.133951640   1.35534   0.58847   0.24190  -0.97495
  27   32982.3    303.2   0.019743639   0.19707  -0.01425   0.23413  -0.37689
  28   33003.4    303.0   0.110308228   1.10033  -0.00840  -0.64240   0.82920
  29   33081.1    302.3   0.004553893   0.04532   0.16392  -0.01125  -0.13536
  30   33654.5    297.1   0.001457290   0.01426   0.07620  -0.06329   0.06665
  31   33912.0    294.9   0.012746898   0.12374   0.13148  -0.32609   0.01110
  32   34359.1    291.0   0.246737697   2.36412   0.88243  -1.16854   0.46900
  33   34478.1    290.0   0.080210347   0.76588  -0.19432  -0.44934   0.72541
  34   34755.8    287.7   0.176220174   1.66918   0.51452  -1.17458   0.15755
  35   35136.1    284.6   0.040127724   0.37598  -0.23675  -0.45885   0.33074
  36   35157.6    284.4   0.035900529   0.33617  -0.21472   0.53789   0.02710
  37   35426.9    282.3   0.008824332   0.08200  -0.19950  -0.16782   0.11849
  38   35555.6    281.2   0.216947774   2.00874  -0.82966  -0.01209   1.14902
  39   35646.2    280.5   0.366408668   3.38398   1.62195  -0.05690  -0.86604
  40   36124.8    276.8   0.004524163   0.04123   0.12988   0.04929   0.14809
  41   36776.3    271.9   0.013541107   0.12122  -0.26892  -0.01564   0.22057
  42   37083.4    269.7   0.050028131   0.44413  -0.26850   0.59798   0.12021
  43   37203.3    268.8   0.090683300   0.80246  -0.50508   0.71227  -0.20006
  44   37552.9    266.3   0.097957551   0.85876   0.05271   0.54578  -0.74706
  45   37601.1    265.9   0.097755140   0.85588  -0.64277   0.57020  -0.34293
  46   37879.9    264.0   0.068750246   0.59750  -0.71567   0.03417   0.29008
  47   38081.7    262.6   0.055065700   0.47604  -0.15340  -0.19647   0.64335
  48   38274.8    261.3   0.138197262   1.18867   0.92111  -0.57705   0.08506
  49   38504.3    259.7   0.072140088   0.61680   0.73158  -0.12880  -0.25496
  50   38582.2    259.2   0.007241653   0.06179   0.19785   0.06348   0.13644
  51   38716.1    258.3   0.003157651   0.02685  -0.13708  -0.02881   0.08502
  52   39318.7    254.3   0.106222401   0.88939  -0.74797   0.16916   0.54892
  53   39592.9    252.6   0.028391418   0.23607   0.13883   0.12324  -0.44901
  54   39694.6    251.9   0.000559093   0.00464   0.06447   0.01326  -0.01744
  55   39882.4    250.7   0.022648492   0.18695  -0.13496   0.40703  -0.05535
  56   40113.5    249.3   0.004069029   0.03339   0.10455  -0.03896  -0.14472

-----------------------------------------------------------------------------
         ABSORPTION SPECTRUM VIA TRANSITION VELOCITY DIPOLE MOMENTS
-----------------------------------------------------------------------------
State   Energy  Wavelength   fosc         P2         PX        PY        PZ  
        (cm-1)    (nm)                  (au**2)     (au)      (au)      (au) 
-----------------------------------------------------------------------------
   0   14103.6    709.0   0.002164318   0.00021   0.00474   0.01343  -0.00241
   1   16101.6    621.1   1.282962082   0.14119   0.28016  -0.23070   0.09732
   2   16741.6    597.3   0.645233785   0.07383   0.19110  -0.17316   0.08558
   3   21199.7    471.7   0.011663712   0.00169   0.03045   0.00117  -0.02760
   4   21688.0    461.1   0.015133220   0.00224   0.01364   0.00286   0.04527
   5   22009.4    454.4   0.009105559   0.00137   0.03098   0.00598  -0.01934
   6   22824.8    438.1   0.119404350   0.01863   0.02348  -0.08065   0.10757
   7   23536.7    424.9   0.081693513   0.01314  -0.09284   0.00341   0.06716
   8   23707.9    421.8   0.086755165   0.01406   0.10898  -0.04200  -0.02041
   9   24487.5    408.4   0.249921862   0.04183  -0.06505   0.13373  -0.14040
  10   24844.1    402.5   0.004437136   0.00075   0.00297   0.02721   0.00205
  11   26147.9    382.4   0.001130404   0.00020   0.01106   0.00825  -0.00338
  12   27256.6    366.9   0.035213457   0.00656   0.04798  -0.05493  -0.03522
  13   28010.9    357.0   0.000794716   0.00015   0.00184  -0.00221  -0.01199
  14   28115.7    355.7   0.016044215   0.00308   0.03820  -0.00596  -0.03986
  15   28651.2    349.0   0.000535054   0.00010   0.00680  -0.00391  -0.00658
  16   29452.9    339.5   0.031993587   0.00644   0.02142   0.04354  -0.06392
  17   30007.5    333.2   0.109490981   0.02246  -0.11615  -0.00194   0.09466
  18   30254.6    330.5   0.084654839   0.01750   0.12617  -0.03750  -0.01341
  19   30380.2    329.2   0.082526930   0.01714   0.11577  -0.00390  -0.06097
  20   30887.8    323.8   0.036945388   0.00780  -0.02448  -0.03083   0.07905
  21   31123.1    321.3   0.010184251   0.00217   0.00451   0.03873  -0.02541
  22   31327.7    319.2   0.164010882   0.03512   0.00492   0.12235  -0.14186
  23   31660.6    315.8   0.066414862   0.01437  -0.11277   0.02606   0.03124
  24   31969.5    312.8   0.010685576   0.00233   0.00675  -0.00506  -0.04758
  25   32253.1    310.0   0.025006758   0.00551   0.05825  -0.04531   0.00815
  26   32536.9    307.3   0.125838713   0.02798   0.08193   0.03607  -0.14132
  27   32982.3    303.2   0.017529666   0.00395  -0.00153   0.03350  -0.05317
  28   33003.4    303.0   0.091293076   0.02059  -0.00211  -0.08761   0.11363
  29   33081.1    302.3   0.004151241   0.00094   0.02483   0.00121  -0.01790
  30   33654.5    297.1   0.001099365   0.00025   0.00858  -0.01072   0.00802
  31   33912.0    294.9   0.010857489   0.00252   0.01919  -0.04634   0.00099
  32   34359.1    291.0   0.225121437   0.05286   0.13427  -0.17235   0.07164
  33   34478.1    290.0   0.072935443   0.01719  -0.02887  -0.06831   0.10811
  34   34755.8    287.7   0.153938353   0.03657   0.07996  -0.17173   0.02611
  35   35136.1    284.6   0.037301776   0.00896  -0.03670  -0.06834   0.05423
  36   35157.6    284.4   0.032911876   0.00791  -0.03580   0.08113   0.00663
  37   35426.9    282.3   0.007870147   0.00191  -0.02926  -0.02854   0.01532
  38   35555.6    281.2   0.196211029   0.04768  -0.12482  -0.00317   0.17914
  39   35646.2    280.5   0.333938387   0.08136   0.25129  -0.00776  -0.13472
  40   36124.8    276.8   0.004356270   0.00108   0.02211   0.01084   0.02166
  41   36776.3    271.9   0.012815768   0.00322  -0.04087   0.00568   0.03897
  42   37083.4    269.7   0.043141825   0.01093  -0.04290   0.09355   0.01849
  43   37203.3    268.8   0.081158719   0.02064  -0.08037   0.11500  -0.03085
  44   37552.9    266.3   0.080199966   0.02058   0.01032   0.08198  -0.11729
  45   37601.1    265.9   0.084575772   0.02173  -0.10157   0.09127  -0.05557
  46   37879.9    264.0   0.061762708   0.01599  -0.11700   0.01221   0.04640
  47   38081.7    262.6   0.047095260   0.01226  -0.03060  -0.02928   0.10229
  48   38274.8    261.3   0.125409238   0.03281   0.15072  -0.09944   0.01421
  49   38504.3    259.7   0.061082992   0.01607   0.11814  -0.02038  -0.04124
  50   38582.2    259.2   0.005166140   0.00136   0.02911   0.01133   0.01965
  51   38716.1    258.3   0.003205895   0.00085  -0.02544  -0.00399   0.01361
  52   39318.7    254.3   0.091260832   0.02452  -0.12527   0.02600   0.09031
  53   39592.9    252.6   0.021853835   0.00591   0.02508   0.01810  -0.07041
  54   39694.6    251.9   0.000212290   0.00006   0.00508   0.00452  -0.00336
  55   39882.4    250.7   0.017046822   0.00465  -0.01828   0.06556  -0.00384
  56   40113.5    249.3   0.003323807   0.00091   0.02031  -0.00883  -0.02051

-------------------------------------------------------------------
                             CD SPECTRUM
-------------------------------------------------------------------
State   Energy Wavelength       R         MX        MY        MZ   
        (cm-1)   (nm)       (1e40*cgs)   (au)      (au)      (au)  
-------------------------------------------------------------------
   0   14103.6    709.0      4.62049   0.07324  -0.21070  -0.31755
   1   16101.6    621.1     48.68926  -1.18224  -0.24164   2.71376
   2   16741.6    597.3    -89.19356  -0.62627   0.17035   2.14572
   3   21199.7    471.7     31.05030  -0.27745  -0.91859   0.06677
   4   21688.0    461.1      2.56688   0.36712   1.25815  -0.28746
   5   22009.4    454.4      9.15110  -0.40196  -1.01434  -0.80685
   6   22824.8    438.1     90.71749  -0.16208   1.42235   0.73625
   7   23536.7    424.9    -37.16532   0.19490   1.35083   0.45034
   8   23707.9    421.8     23.05970  -0.54660  -1.34173   0.08990
   9   24487.5    408.4    -105.42763   0.19985  -1.95263  -2.24379
  10   24844.1    402.5     -0.01095   0.19775   0.01302  -0.81521
  11   26147.9    382.4      8.62069  -0.10027  -0.38424  -0.21997
  12   27256.6    366.9     36.23588  -0.30027  -0.71440   1.33363
  13   28010.9    357.0      6.95726  -0.17811  -0.33392   0.24198
  14   28115.7    355.7     20.57690  -0.38862  -1.29244   0.06400
  15   28651.2    349.0     -0.09847  -0.04465  -0.15291   0.11480
  16   29452.9    339.5    -10.38902   0.00465  -1.15155  -0.89105
  17   30007.5    333.2    -41.83562   0.62448   2.78598   0.93911
  18   30254.6    330.5      8.13139  -0.63044  -1.57367  -0.62895
  19   30380.2    329.2     -5.72101  -0.23512  -1.29729  -0.42120
  20   30887.8    323.8    -21.47492   0.74407   2.54656   1.36774
  21   31123.1    321.3     -0.48987   0.33367  -0.36317  -0.53204
  22   31327.7    319.2    -89.14075   0.43022  -1.43532  -1.64022
  23   31660.6    315.8    -98.35498  -0.08149   0.93532   0.64494
  24   31969.5    312.8     71.93632  -0.06782  -0.31749   0.84751
  25   32253.1    310.0     -9.97541   0.71166   0.69276   0.26655
  26   32536.9    307.3    149.68561   0.06905  -1.82293   0.24072
  27   32982.3    303.2      6.80251   0.34384  -1.06118  -0.59565
  28   33003.4    303.0    -19.86228   0.09250   1.90029   1.57476
  29   33081.1    302.3    -17.79851   0.09124  -0.40751  -0.41347
  30   33654.5    297.1     -5.45694   0.74093   0.86405   0.32073
  31   33912.0    294.9     47.87066   0.20933   0.76243   1.62370
  32   34359.1    291.0    -27.69464   0.26176   0.74163   1.60582
  33   34478.1    290.0    -79.95368  -0.70615   1.01992   0.91019
  34   34755.8    287.7     92.58226   0.75649   1.03708   2.76831
  35   35136.1    284.6     16.05725   0.18924   1.13557   1.50491
  36   35157.6    284.4      8.76106  -0.07134   0.00132  -1.96250
  37   35426.9    282.3    -65.40859  -0.62007  -0.71155   0.29005
  38   35555.6    281.2    603.63841   0.12515   2.05161  -2.11673
  39   35646.2    280.5    -329.07975   1.77587   0.90685   1.65432
  40   36124.8    276.8      5.75248   0.26371   0.53279  -0.57341
  41   36776.3    271.9     26.71857   0.43185   1.30833   0.10541
  42   37083.4    269.7    -58.58765   0.75246   1.14714  -1.95811
  43   37203.3    268.8     49.80384  -0.61977  -1.02908  -1.04300
  44   37552.9    266.3     99.42801  -0.73794  -3.06249  -1.72481
  45   37601.1    265.9     48.25843  -0.51886  -1.23402  -0.48234
  46   37879.9    264.0    -31.01729   0.45723   2.06661   1.33822
  47   38081.7    262.6      0.55767   0.31970   2.25189   0.76026
  48   38274.8    261.3    -71.35289   0.39914   0.19562   0.56353
  49   38504.3    259.7     28.55539   0.06223  -0.30064   0.80557
  50   38582.2    259.2      7.55651   0.26674   0.50254  -0.85556
  51   38716.1    258.3      0.45682   0.29900   0.76908   0.72000
  52   39318.7    254.3     31.63339   0.72074   2.67174  -0.08572
  53   39592.9    252.6     19.53137  -0.27162  -1.53779  -0.32153
  54   39694.6    251.9      2.72678  -0.15017  -0.25964  -0.08928
  55   39882.4    250.7    -27.73082   0.71281   0.36514  -1.17842
  56   40113.5    249.3    -11.94735  -0.78086  -1.68091  -0.46181

sTD-DFT done

Total run time:        4.092 sec

           *** ORCA-CIS/TD-DFT FINISHED WITHOUT ERROR ***

-------------------------   --------------------
FINAL SINGLE POINT ENERGY     -8978.000122654035
-------------------------   --------------------


                            ***************************************
                            *     ORCA property calculations      *
                            ***************************************

                                    ---------------------
                                    Active property flags
                                    ---------------------
   (+) Dipole Moment


------------------------------------------------------------------------------
                       ORCA ELECTRIC PROPERTIES CALCULATION
------------------------------------------------------------------------------

Dipole Moment Calculation                       ... on
Quadrupole Moment Calculation                   ... off
Polarizability Calculation                      ... off
GBWName                                         ... CH1007.gbw
Electron density file                           ... CH1007.scfp
The origin for moment calculation is the CENTER OF MASS  = (18.350284, -5.223732  1.732257)

-------------
DIPOLE MOMENT
-------------
                                X             Y             Z
Electronic contribution:    -10.86311       2.23139       5.79107
Nuclear contribution   :     13.09535      -3.11091      -5.76826
                        -----------------------------------------
Total Dipole Moment    :      2.23224      -0.87951       0.02281
                        -----------------------------------------
Magnitude (a.u.)       :      2.39937
Magnitude (Debye)      :      6.09870



--------------------
Rotational spectrum 
--------------------
 
Rotational constants in cm-1:     0.001724     0.000334     0.000321 
Rotational constants in MHz :    51.688977    10.010354     9.623701 

 Dipole components along the rotational axes: 
x,y,z [a.u.] :     2.106542    -1.071231    -0.414609 
x,y,z [Debye]:     5.354405    -2.722854    -1.053851 

 

Timings for individual modules:

Sum of individual times         ...     4301.949 sec (=  71.699 min)
GTO integral calculation        ...        3.647 sec (=   0.061 min)   0.1 %
SCF iterations                  ...     4294.150 sec (=  71.569 min)  99.8 %
CIS module                      ...        4.151 sec (=   0.069 min)   0.1 %
                             ****ORCA TERMINATED NORMALLY****
TOTAL RUN TIME: 0 days 1 hours 11 minutes 42 seconds 459 msec
