
                                 *****************
                                 * O   R   C   A *
                                 *****************

           --- An Ab Initio, DFT and Semiempirical electronic structure package ---

                  #######################################################
                  #                        -***-                        #
                  #          Department of theory and spectroscopy      #
                  #               Directorship: Frank Neese             #
                  #        Max Planck Institute fuer Kohlenforschung    #
                  #                Kaiser Wilhelm Platz 1               #
                  #                 D-45470 Muelheim/Ruhr               #
                  #                      Germany                        #
                  #                                                     #
                  #                  All rights reserved                #
                  #                        -***-                        #
                  #######################################################


                         Program Version 4.2.0 -  RELEASE  -


 With contributions from (in alphabetic order):
   Daniel Aravena         : Magnetic Suceptibility
   Michael Atanasov       : Ab Initio Ligand Field Theory (pilot matlab implementation)
   Alexander A. Auer      : GIAO ZORA, VPT2
   Ute Becker             : Parallelization
   Giovanni Bistoni       : ED, misc. LED, open-shell LED, HFLED
   Martin Brehm           : Molecular dynamics
   Dmytro Bykov           : SCF Hessian
   Vijay G. Chilkuri      : MRCI spin determinant printing, contributions to CSF-ICE
   Dipayan Datta          : RHF DLPNO-CCSD density
   Achintya Kumar Dutta   : EOM-CC, STEOM-CC
   Dmitry Ganyushin       : Spin-Orbit,Spin-Spin,Magnetic field MRCI
   Miquel Garcia          : C-PCM Hessian, Gaussian charge scheme
   Yang Guo               : DLPNO-NEVPT2, CIM, IAO-localization
   Andreas Hansen         : Spin unrestricted coupled pair/coupled cluster methods
   Benjamin Helmich-Paris : CASSCF linear response (MC-RPA)
   Lee Huntington         : MR-EOM, pCC
   Robert Izsak           : Overlap fitted RIJCOSX, COSX-SCS-MP3, EOM
   Christian Kollmar      : KDIIS, OOCD, Brueckner-CCSD(T), CCSD density
   Simone Kossmann        : Meta GGA functionals, TD-DFT gradient, OOMP2, MP2 Hessian
   Martin Krupicka        : AUTO-CI
   Lucas Lang             : DCDCAS
   Dagmar Lenk            : GEPOL surface, SMD
   Dimitrios Liakos       : Extrapolation schemes; Compound Job, initial MDCI parallelization
   Dimitrios Manganas     : Further ROCIS development; embedding schemes
   Dimitrios Pantazis     : SARC Basis sets
   Taras Petrenko         : DFT Hessian,TD-DFT gradient, ASA, ECA, R-Raman, ABS, FL, XAS/XES, NRVS
   Peter Pinski           : DLPNO-MP2, DLPNO-MP2 Gradient
   Christoph Reimann      : Effective Core Potentials
   Marius Retegan         : Local ZFS, SOC
   Christoph Riplinger    : Optimizer, TS searches, QM/MM, DLPNO-CCSD(T), (RO)-DLPNO pert. Triples
   Tobias Risthaus        : Range-separated hybrids, TD-DFT gradient, RPA, STAB
   Michael Roemelt        : Original ROCIS implementation
   Masaaki Saitow         : Open-shell DLPNO-CCSD energy and density
   Barbara Sandhoefer     : DKH picture change effects
   Avijit Sen             : IP-ROCIS
   Kantharuban Sivalingam : CASSCF convergence, NEVPT2, FIC-MRCI
   Bernardo de Souza      : ESD, SOC TD-DFT
   Georgi Stoychev        : AutoAux, RI-MP2 NMR
   Willem Van den Heuvel  : Paramagnetic NMR
   Boris Wezisla          : Elementary symmetry handling
   Frank Wennmohs         : Technical directorship


 We gratefully acknowledge several colleagues who have allowed us to
 interface, adapt or use parts of their codes:
   Stefan Grimme, W. Hujo, H. Kruse,             : VdW corrections, initial TS optimization,
                  C. Bannwarth                     DFT functionals, gCP, sTDA/sTD-DF
   Ed Valeev, F. Pavosevic, A. Kumar             : LibInt (2-el integral package), F12 methods
   Garnet Chan, S. Sharma, J. Yang, R. Olivares  : DMRG
   Ulf Ekstrom                                   : XCFun DFT Library
   Mihaly Kallay                                 : mrcc  (arbitrary order and MRCC methods)
   Andreas Klamt, Michael Diedenhofen            : otool_cosmo (COSMO solvation model)
   Jiri Pittner, Ondrej Demel                    : Mk-CCSD
   Frank Weinhold                                : gennbo (NPA and NBO analysis)
   Christopher J. Cramer and Donald G. Truhlar   : smd solvation model
   Lars Goerigk                                  : TD-DFT with DH, B97 family of functionals
   V. Asgeirsson, H. Jonsson                     : NEB implementation
   FAccTs GmbH                                   : IRC, NEB, NEB-TS, Multilevel, MM, QM/MM, CI optimization
   S Lehtola, MJT Oliveira, MAL Marques          : LibXC Library


 Your calculation uses the libint2 library for the computation of 2-el integrals
 For citations please refer to: http://libint.valeyev.net

 Your ORCA version has been built with support for libXC version: 4.2.3
 For citations please refer to: https://tddft.org/programs/libxc/

 This ORCA versions uses:
   CBLAS   interface :  Fast vector & matrix operations
   LAPACKE interface :  Fast linear algebra routines
   SCALAPACK package :  Parallel linear algebra routines


XCFun DFT library Copyright 2009-2010 Ulf Ekstrom and contributors.
See http://admol.org/xcfun for more information. This is free soft-
ware; see the source code for copying conditions. There is ABSOLUTELY
NO WARRANTY; not even for MERCHANTABILITY or FITNESS FOR A PARTICULAR
PURPOSE. For details see the documentation. Scientific users of this 
library should cite U. Ekstrom, L. Visscher, R. Bast, A. J. Thorvald-
sen and K. Ruud; J.Chem.Theor.Comp. 2010, DOI: 10.1021/ct100117s
XCFun Version 0.99 
----- Orbital basis set information -----
Your calculation utilizes the basis: def2-SVP
   F. Weigend and R. Ahlrichs, Phys. Chem. Chem. Phys. 7, 3297 (2005).

----- AuxJ basis set information -----
Your calculation utilizes the auxiliary basis: def2/J
   F. Weigend, Phys. Chem. Chem. Phys. 8, 1057 (2006).

================================================================================
                                        WARNINGS
                       Please study these warnings very carefully!
================================================================================

INFO   : Checking CIS options ...

WARNING: CIS/ROCIS methods need fully converged wavefunctions
  ===> : Setting SCFConvForced true
         You can overwrite this default with %scf ConvForced false 


INFO   : the flag for use of LIBINT has been found!

================================================================================
                                       INPUT FILE
================================================================================
NAME = DTG-IW.inp
|  1> # ORCA input file
|  2> # DTG-IW.out: Geometry 135
|  3> ! CAM-B3LYP def2-SVP def2/J RIJCOSX Grid4 TightSCF
|  4> %maxcore 5000
|  5> %tddft
|  6>     Mode sTDDFT
|  7>     Ethresh 5.0
|  8>     maxcore 5000
|  9> end
| 10> * xyz 0 1
| 11>    C       -0.82337         0.49674        -0.34886
| 12>    C        0.41620        -0.14161        -0.16585
| 13>    S        0.23869        -1.67408         0.65404
| 14>    C       -1.49393        -1.47880         0.77053
| 15>    C       -1.87201        -0.26322         0.20513
| 16>    C       -2.41157        -2.36976         1.39687
| 17>    C       -2.35014        -3.69159         1.75588
| 18>    C       -1.45047        -4.78923         1.43121
| 19>    C       -0.73787        -4.94498         0.25546
| 20>    C        0.16160        -6.03264         0.03496
| 21>    N        0.91747        -6.89633        -0.14863
| 22>    C       -0.94736        -4.09595        -0.87494
| 23>    N       -1.15274        -3.44991        -1.81849
| 24>    C       -1.65594        -5.84029         2.45929
| 25>    C       -1.00093        -7.05606         2.69245
| 26>    C       -1.50015        -7.88316         3.69596
| 27>    F       -0.90866        -9.04692         3.95063
| 28>    C       -2.63079        -7.53280         4.45766
| 29>    F       -3.05486        -8.37821         5.39414
| 30>    C       -3.29070        -6.33083         4.22875
| 31>    C       -2.78848        -5.50171         3.23127
| 32>    C       -3.32018        -4.18557         2.78767
| 33>    O       -4.30605        -3.61261         3.20217
| 34>    C        8.28804         3.33401        -5.81734
| 35>    C        7.10072         3.59355        -5.10712
| 36>    S        6.30853         5.02787        -5.67676
| 37>    C        7.56396         5.32411        -6.86763
| 38>    C        8.53556         4.32130        -6.79259
| 39>    C        7.39959         6.47939        -7.67892
| 40>    C        8.25092         7.14653        -8.53528
| 41>    C        7.91615         8.37866        -9.26057
| 42>    C        6.66850         8.94351        -9.45980
| 43>    C        6.48093        10.15254       -10.20105
| 44>    N        6.32083        11.13638       -10.79875
| 45>    C        5.44837         8.37903        -8.97290
| 46>    N        4.44100         7.94582        -8.58773
| 47>    C        9.17829         8.92791        -9.80643
| 48>    C        9.45552        10.11233       -10.50007
| 49>    C       10.77248        10.36025       -10.86956
| 50>    F       11.06861        11.47893       -11.52396
| 51>    C       11.81015         9.45818       -10.57076
| 52>    F       13.04719         9.76304       -10.95136
| 53>    C       11.54275         8.27526        -9.88970
| 54>    C       10.22515         8.03302        -9.51601
| 55>    C        9.69464         6.86133        -8.77087
| 56>    O       10.35226         5.89120        -8.43435
| 57>    C       -1.00971         1.81519        -1.06016
| 58>    C       -2.33743         2.56973        -0.82486
| 59>    C       -2.33825         3.38836         0.47813
| 60>    C       -2.18453         2.61372         1.78788
| 61>    C       -2.63136         3.46516        -2.04573
| 62>    C       -3.98555         4.17419        -2.02264
| 63>    C        1.74570         0.27419        -0.55226
| 64>    S        2.03252         1.24773        -1.99207
| 65>    C        3.74548         1.16633        -1.75456
| 66>    C        4.09575         0.43382        -0.61585
| 67>    C        2.95641        -0.06702         0.05353
| 68>    C        4.80936         1.78421        -2.51563
| 69>    C        6.11564         1.66442        -2.03319
| 70>   Ge        6.02641         0.72319        -0.29997
| 71>    S        4.73421         2.63902        -4.01920
| 72>    C        6.48385         2.84470        -4.03173
| 73>    C        7.05535         2.26741        -2.90270
| 74>    C        9.09205         2.05928        -5.66803
| 75>    C       10.50065         2.03359        -6.29649
| 76>    C       11.57342         2.66451        -5.39008
| 77>    C       11.32025         4.10394        -4.93748
| 78>    C       10.86025         0.58179        -6.67523
| 79>    C       12.23335         0.39649        -7.32254
| 80>    C        6.08565         1.98636         1.21481
| 81>    C        7.28627        -0.76605        -0.11986
| 82>    C        5.45789         3.34474         0.83895
| 83>    C        4.73417         4.00443         2.02833
| 84>    C        3.37677         3.37227         2.33983
| 85>    C        6.51158         4.27279         0.20704
| 86>    C        5.91376         5.34598        -0.69925
| 87>    C        8.74059        -0.30730        -0.40413
| 88>    C        9.74478        -0.94523         0.57046
| 89>    C        9.60146        -0.48697         2.02065
| 90>    C        9.10230        -0.58620        -1.87478
| 91>    C       10.42076         0.02507        -2.34850
| 92>    H       -2.91474         0.04862         0.20161
| 93>    H       -3.34394        -1.88935         1.72294
| 94>    H       -0.12654        -7.38727         2.13436
| 95>    H       -4.17495        -6.05630         4.80632
| 96>    H        9.39338         4.33702        -7.45688
| 97>    H        6.41891         6.93939        -7.55253
| 98>    H        8.70396        10.85178       -10.76542
| 99>    H       12.34080         7.57031        -9.65095
|100>    H       -0.90795         1.62252        -2.14289
|101>    H       -0.17080         2.48606        -0.80860
|102>    H       -3.15972         1.83415        -0.77117
|103>    H       -3.27861         3.95957         0.52725
|104>    H       -1.53439         4.14481         0.40250
|105>    H       -2.97529         1.85577         1.90802
|106>    H       -2.25850         3.30016         2.64618
|107>    H       -1.21794         2.09198         1.86038
|108>    H       -2.57353         2.83585        -2.95078
|109>    H       -1.82257         4.21162        -2.14817
|110>    H       -4.80935         3.45086        -1.90078
|111>    H       -4.16087         4.72215        -2.96187
|112>    H       -4.06342         4.90539        -1.20361
|113>    H        2.98734        -0.65426         0.97310
|114>    H        8.12500         2.33111        -2.70184
|115>    H        8.48643         1.25970        -6.13161
|116>    H        9.16994         1.77355        -4.60865
|117>    H       10.47641         2.60308        -7.24100
|118>    H       12.53637         2.63578        -5.92427
|119>    H       11.70219         2.01672        -4.50349
|120>    H       11.21670         4.78360        -5.79737
|121>    H       12.15847         4.46811        -4.32221
|122>    H       10.40551         4.19836        -4.33217
|123>    H       10.08518         0.20729        -7.36566
|124>    H       10.78696        -0.05506        -5.77457
|125>    H       12.38311         1.10989        -8.14956
|126>    H       12.34098        -0.61776        -7.73818
|127>    H       13.05338         0.54512        -6.60442
|128>    H        7.11740         2.11425         1.58129
|129>    H        5.52573         1.49059         2.02462
|130>    H        6.99685        -1.58936        -0.79095
|131>    H        7.17778        -1.14760         0.90697
|132>    H        4.68212         3.17217         0.07139
|133>    H        4.58006         5.07426         1.80618
|134>    H        5.39112         3.96829         2.91613
|135>    H        2.69818         3.46604         1.47507
|136>    H        2.89147         3.85801         3.20088
|137>    H        3.46215         2.29731         2.56787
|138>    H        7.21533         3.66560        -0.38494
|139>    H        7.11330         4.73521         1.01140
|140>    H        5.36998         4.88399        -1.53956
|141>    H        6.69136         5.99819        -1.12583
|142>    H        5.20176         5.98834        -0.15615
|143>    H        8.81634         0.78916        -0.25372
|144>    H       10.76684        -0.70796         0.23290
|145>    H        9.64550        -2.04451         0.50760
|146>    H        9.76104         0.60081         2.11209
|147>    H       10.33693        -0.98564         2.66955
|148>    H        8.60427        -0.71154         2.43174
|149>    H        8.28448        -0.21704        -2.51377
|150>    H        9.12604        -1.68083        -2.02344
|151>    H       10.42552         1.12319        -2.23441
|152>    H       10.59853        -0.19986        -3.41133
|153>    H       11.28328        -0.36580        -1.78805
|154> *
|155> 
|156>                          ****END OF INPUT****
================================================================================

                       ****************************
                       * Single Point Calculation *
                       ****************************

---------------------------------
CARTESIAN COORDINATES (ANGSTROEM)
---------------------------------
  C     -0.823370    0.496740   -0.348860
  C      0.416200   -0.141610   -0.165850
  S      0.238690   -1.674080    0.654040
  C     -1.493930   -1.478800    0.770530
  C     -1.872010   -0.263220    0.205130
  C     -2.411570   -2.369760    1.396870
  C     -2.350140   -3.691590    1.755880
  C     -1.450470   -4.789230    1.431210
  C     -0.737870   -4.944980    0.255460
  C      0.161600   -6.032640    0.034960
  N      0.917470   -6.896330   -0.148630
  C     -0.947360   -4.095950   -0.874940
  N     -1.152740   -3.449910   -1.818490
  C     -1.655940   -5.840290    2.459290
  C     -1.000930   -7.056060    2.692450
  C     -1.500150   -7.883160    3.695960
  F     -0.908660   -9.046920    3.950630
  C     -2.630790   -7.532800    4.457660
  F     -3.054860   -8.378210    5.394140
  C     -3.290700   -6.330830    4.228750
  C     -2.788480   -5.501710    3.231270
  C     -3.320180   -4.185570    2.787670
  O     -4.306050   -3.612610    3.202170
  C      8.288040    3.334010   -5.817340
  C      7.100720    3.593550   -5.107120
  S      6.308530    5.027870   -5.676760
  C      7.563960    5.324110   -6.867630
  C      8.535560    4.321300   -6.792590
  C      7.399590    6.479390   -7.678920
  C      8.250920    7.146530   -8.535280
  C      7.916150    8.378660   -9.260570
  C      6.668500    8.943510   -9.459800
  C      6.480930   10.152540  -10.201050
  N      6.320830   11.136380  -10.798750
  C      5.448370    8.379030   -8.972900
  N      4.441000    7.945820   -8.587730
  C      9.178290    8.927910   -9.806430
  C      9.455520   10.112330  -10.500070
  C     10.772480   10.360250  -10.869560
  F     11.068610   11.478930  -11.523960
  C     11.810150    9.458180  -10.570760
  F     13.047190    9.763040  -10.951360
  C     11.542750    8.275260   -9.889700
  C     10.225150    8.033020   -9.516010
  C      9.694640    6.861330   -8.770870
  O     10.352260    5.891200   -8.434350
  C     -1.009710    1.815190   -1.060160
  C     -2.337430    2.569730   -0.824860
  C     -2.338250    3.388360    0.478130
  C     -2.184530    2.613720    1.787880
  C     -2.631360    3.465160   -2.045730
  C     -3.985550    4.174190   -2.022640
  C      1.745700    0.274190   -0.552260
  S      2.032520    1.247730   -1.992070
  C      3.745480    1.166330   -1.754560
  C      4.095750    0.433820   -0.615850
  C      2.956410   -0.067020    0.053530
  C      4.809360    1.784210   -2.515630
  C      6.115640    1.664420   -2.033190
  Ge     6.026410    0.723190   -0.299970
  S      4.734210    2.639020   -4.019200
  C      6.483850    2.844700   -4.031730
  C      7.055350    2.267410   -2.902700
  C      9.092050    2.059280   -5.668030
  C     10.500650    2.033590   -6.296490
  C     11.573420    2.664510   -5.390080
  C     11.320250    4.103940   -4.937480
  C     10.860250    0.581790   -6.675230
  C     12.233350    0.396490   -7.322540
  C      6.085650    1.986360    1.214810
  C      7.286270   -0.766050   -0.119860
  C      5.457890    3.344740    0.838950
  C      4.734170    4.004430    2.028330
  C      3.376770    3.372270    2.339830
  C      6.511580    4.272790    0.207040
  C      5.913760    5.345980   -0.699250
  C      8.740590   -0.307300   -0.404130
  C      9.744780   -0.945230    0.570460
  C      9.601460   -0.486970    2.020650
  C      9.102300   -0.586200   -1.874780
  C     10.420760    0.025070   -2.348500
  H     -2.914740    0.048620    0.201610
  H     -3.343940   -1.889350    1.722940
  H     -0.126540   -7.387270    2.134360
  H     -4.174950   -6.056300    4.806320
  H      9.393380    4.337020   -7.456880
  H      6.418910    6.939390   -7.552530
  H      8.703960   10.851780  -10.765420
  H     12.340800    7.570310   -9.650950
  H     -0.907950    1.622520   -2.142890
  H     -0.170800    2.486060   -0.808600
  H     -3.159720    1.834150   -0.771170
  H     -3.278610    3.959570    0.527250
  H     -1.534390    4.144810    0.402500
  H     -2.975290    1.855770    1.908020
  H     -2.258500    3.300160    2.646180
  H     -1.217940    2.091980    1.860380
  H     -2.573530    2.835850   -2.950780
  H     -1.822570    4.211620   -2.148170
  H     -4.809350    3.450860   -1.900780
  H     -4.160870    4.722150   -2.961870
  H     -4.063420    4.905390   -1.203610
  H      2.987340   -0.654260    0.973100
  H      8.125000    2.331110   -2.701840
  H      8.486430    1.259700   -6.131610
  H      9.169940    1.773550   -4.608650
  H     10.476410    2.603080   -7.241000
  H     12.536370    2.635780   -5.924270
  H     11.702190    2.016720   -4.503490
  H     11.216700    4.783600   -5.797370
  H     12.158470    4.468110   -4.322210
  H     10.405510    4.198360   -4.332170
  H     10.085180    0.207290   -7.365660
  H     10.786960   -0.055060   -5.774570
  H     12.383110    1.109890   -8.149560
  H     12.340980   -0.617760   -7.738180
  H     13.053380    0.545120   -6.604420
  H      7.117400    2.114250    1.581290
  H      5.525730    1.490590    2.024620
  H      6.996850   -1.589360   -0.790950
  H      7.177780   -1.147600    0.906970
  H      4.682120    3.172170    0.071390
  H      4.580060    5.074260    1.806180
  H      5.391120    3.968290    2.916130
  H      2.698180    3.466040    1.475070
  H      2.891470    3.858010    3.200880
  H      3.462150    2.297310    2.567870
  H      7.215330    3.665600   -0.384940
  H      7.113300    4.735210    1.011400
  H      5.369980    4.883990   -1.539560
  H      6.691360    5.998190   -1.125830
  H      5.201760    5.988340   -0.156150
  H      8.816340    0.789160   -0.253720
  H     10.766840   -0.707960    0.232900
  H      9.645500   -2.044510    0.507600
  H      9.761040    0.600810    2.112090
  H     10.336930   -0.985640    2.669550
  H      8.604270   -0.711540    2.431740
  H      8.284480   -0.217040   -2.513770
  H      9.126040   -1.680830   -2.023440
  H     10.425520    1.123190   -2.234410
  H     10.598530   -0.199860   -3.411330
  H     11.283280   -0.365800   -1.788050

----------------------------
CARTESIAN COORDINATES (A.U.)
----------------------------
  NO LB      ZA    FRAG     MASS         X           Y           Z
   0 C     6.0000    0    12.011   -1.555944    0.938703   -0.659250
   1 C     6.0000    0    12.011    0.786504   -0.267604   -0.313411
   2 S    16.0000    0    32.060    0.451059   -3.163553    1.235956
   3 C     6.0000    0    12.011   -2.823119   -2.794527    1.456091
   4 C     6.0000    0    12.011   -3.537586   -0.497414    0.387640
   5 C     6.0000    0    12.011   -4.557207   -4.478197    2.639702
   6 C     6.0000    0    12.011   -4.441121   -6.976094    3.318132
   7 C     6.0000    0    12.011   -2.740991   -9.050333    2.704595
   8 C     6.0000    0    12.011   -1.394372   -9.344658    0.482749
   9 C     6.0000    0    12.011    0.305380  -11.400037    0.066065
  10 N     7.0000    0    14.007    1.733767  -13.032175   -0.280870
  11 C     6.0000    0    12.011   -1.790251   -7.740224   -1.653397
  12 N     7.0000    0    14.007   -2.178363   -6.519385   -3.436448
  13 C     6.0000    0    12.011   -3.129273  -11.036549    4.647385
  14 C     6.0000    0    12.011   -1.891484  -13.334021    5.087993
  15 C     6.0000    0    12.011   -2.834873  -14.897013    6.984352
  16 F     9.0000    0    18.998   -1.717119  -17.096201    7.465609
  17 C     6.0000    0    12.011   -4.971473  -14.234929    8.423757
  18 F     9.0000    0    18.998   -5.772849  -15.832522   10.193447
  19 C     6.0000    0    12.011   -6.218522  -11.963535    7.991179
  20 C     6.0000    0    12.011   -5.269464  -10.396725    6.106215
  21 C     6.0000    0    12.011   -6.274231   -7.909581    5.267933
  22 O     8.0000    0    15.999   -8.137255   -6.826844    6.051224
  23 C     6.0000    0    12.011   15.662126    6.300366  -10.993179
  24 C     6.0000    0    12.011   13.418416    6.790825   -9.651058
  25 S    16.0000    0    32.060   11.921394    9.501297  -10.727522
  26 C     6.0000    0    12.011   14.293813   10.061110  -12.977940
  27 C     6.0000    0    12.011   16.129871    8.166074  -12.836135
  28 C     6.0000    0    12.011   13.983199   12.244273  -14.511056
  29 C     6.0000    0    12.011   15.591979   13.504985  -16.129342
  30 C     6.0000    0    12.011   14.959356   15.833373  -17.499941
  31 C     6.0000    0    12.011   12.601639   16.900785  -17.876431
  32 C     6.0000    0    12.011   12.247183   19.185520  -19.277191
  33 N     7.0000    0    14.007   11.944638   21.044708  -20.406680
  34 C     6.0000    0    12.011   10.295927   15.834072  -16.956324
  35 N     7.0000    0    14.007    8.392274   15.015424  -16.228458
  36 C     6.0000    0    12.011   17.344454   16.871305  -18.531467
  37 C     6.0000    0    12.011   17.868343   19.109534  -19.842257
  38 C     6.0000    0    12.011   20.357037   19.578035  -20.540492
  39 F     9.0000    0    18.998   20.916642   21.692034  -21.777128
  40 C     6.0000    0    12.011   22.317949   17.873370  -19.975841
  41 F     9.0000    0    18.998   24.655616   18.449472  -20.695071
  42 C     6.0000    0    12.011   21.812636   15.637975  -18.688825
  43 C     6.0000    0    12.011   19.322733   15.180208  -17.982653
  44 C     6.0000    0    12.011   18.320215   12.966035  -16.574542
  45 O     8.0000    0    15.999   19.562936   11.132755  -15.938612
  46 C     6.0000    0    12.011   -1.908075    3.430212   -2.003412
  47 C     6.0000    0    12.011   -4.417103    4.856086   -1.558759
  48 C     6.0000    0    12.011   -4.418652    6.403072    0.903535
  49 C     6.0000    0    12.011   -4.128163    4.939215    3.378604
  50 C     6.0000    0    12.011   -4.972550    6.548203   -3.865869
  51 C     6.0000    0    12.011   -7.531598    7.888076   -3.822236
  52 C     6.0000    0    12.011    3.298895    0.518144   -1.043620
  53 S    16.0000    0    32.060    3.840906    2.357868   -3.764467
  54 C     6.0000    0    12.011    7.077931    2.204044   -3.315638
  55 C     6.0000    0    12.011    7.739846    0.819801   -1.163788
  56 C     6.0000    0    12.011    5.586805   -0.126649    0.101157
  57 C     6.0000    0    12.011    9.088373    3.371668   -4.753852
  58 C     6.0000    0    12.011   11.556885    3.145298   -3.842172
  59 Ge   32.0000    0    72.590   11.388264    1.366631   -0.566861
  60 S    16.0000    0    32.060    8.946360    4.987025   -7.595187
  61 C     6.0000    0    12.011   12.252701    5.375704   -7.618866
  62 C     6.0000    0    12.011   13.332679    4.284784   -5.485308
  63 C     6.0000    0    12.011   17.181484    3.891475  -10.711024
  64 C     6.0000    0    12.011   19.843353    3.842928  -11.898642
  65 C     6.0000    0    12.011   21.870594    5.035194  -10.185775
  66 C     6.0000    0    12.011   21.392172    7.755323   -9.330485
  67 C     6.0000    0    12.011   20.522898    1.099424  -12.614357
  68 C     6.0000    0    12.011   23.117681    0.749258  -13.837595
  69 C     6.0000    0    12.011   11.500212    3.753676    2.295658
  70 C     6.0000    0    12.011   13.769055   -1.447625   -0.226503
  71 C     6.0000    0    12.011   10.313917    6.320643    1.585386
  72 C     6.0000    0    12.011    8.946285    7.567276    3.832988
  73 C     6.0000    0    12.011    6.381171    6.372667    4.421638
  74 C     6.0000    0    12.011   12.305103    8.074403    0.391249
  75 C     6.0000    0    12.011   11.175387   10.102438   -1.321391
  76 C     6.0000    0    12.011   16.517321   -0.580713   -0.763695
  77 C     6.0000    0    12.011   18.414965   -1.786226    1.078013
  78 C     6.0000    0    12.011   18.144130   -0.920240    3.818475
  79 C     6.0000    0    12.011   17.200854   -1.107757   -3.542821
  80 C     6.0000    0    12.011   19.692383    0.047375   -4.438022
  81 H     1.0000    0     1.008   -5.508060    0.091878    0.380988
  82 H     1.0000    0     1.008   -6.319131   -3.570354    3.255885
  83 H     1.0000    0     1.008   -0.239126  -13.959917    4.033356
  84 H     1.0000    0     1.008   -7.889512  -11.444748    9.082629
  85 H     1.0000    0     1.008   17.750916    8.195780  -14.091461
  86 H     1.0000    0     1.008   12.129982   13.113547  -14.272213
  87 H     1.0000    0     1.008   16.448101   20.506892  -20.343696
  88 H     1.0000    0     1.008   23.320732   14.305813  -18.237652
  89 H     1.0000    0     1.008   -1.715777    3.066118   -4.049475
  90 H     1.0000    0     1.008   -0.322765    4.697973   -1.528033
  91 H     1.0000    0     1.008   -5.971005    3.466041   -1.457300
  92 H     1.0000    0     1.008   -6.195675    7.482503    0.996358
  93 H     1.0000    0     1.008   -2.899577    7.832556    0.760615
  94 H     1.0000    0     1.008   -5.622483    3.506897    3.605635
  95 H     1.0000    0     1.008   -4.267946    6.236399    5.000556
  96 H     1.0000    0     1.008   -2.301573    3.953269    3.515609
  97 H     1.0000    0     1.008   -4.863267    5.358980   -5.576166
  98 H     1.0000    0     1.008   -3.444158    7.958808   -4.059453
  99 H     1.0000    0     1.008   -9.088354    6.521180   -3.591954
 100 H     1.0000    0     1.008   -7.862905    8.923570   -5.597123
 101 H     1.0000    0     1.008   -7.678751    9.269844   -2.274493
 102 H     1.0000    0     1.008    5.645254   -1.236372    1.838893
 103 H     1.0000    0     1.008   15.354025    4.405159   -5.105738
 104 H     1.0000    0     1.008   16.037029    2.380488  -11.587064
 105 H     1.0000    0     1.008   17.328675    3.351524   -8.709086
 106 H     1.0000    0     1.008   19.797546    4.919108  -13.683507
 107 H     1.0000    0     1.008   23.690306    4.980902  -11.195248
 108 H     1.0000    0     1.008   22.113934    3.811048   -8.510363
 109 H     1.0000    0     1.008   21.196491    9.039694  -10.955442
 110 H     1.0000    0     1.008   22.976179    8.443504   -8.167793
 111 H     1.0000    0     1.008   19.663564    7.933751   -8.186615
 112 H     1.0000    0     1.008   19.058228    0.391721  -13.919080
 113 H     1.0000    0     1.008   20.384400   -0.104048  -10.912356
 114 H     1.0000    0     1.008   23.400687    2.097388  -15.400437
 115 H     1.0000    0     1.008   23.321072   -1.167397  -14.623041
 116 H     1.0000    0     1.008   24.667313    1.030128  -12.480545
 117 H     1.0000    0     1.008   13.449937    3.995353    2.988205
 118 H     1.0000    0     1.008   10.442116    2.816807    3.825977
 119 H     1.0000    0     1.008   13.222130   -3.003455   -1.494679
 120 H     1.0000    0     1.008   13.564038   -2.168650    1.713925
 121 H     1.0000    0     1.008    8.847925    5.994533    0.134908
 122 H     1.0000    0     1.008    8.655059    9.588962    3.413186
 123 H     1.0000    0     1.008   10.187740    7.498981    5.510687
 124 H     1.0000    0     1.008    5.098821    6.549866    2.787478
 125 H     1.0000    0     1.008    5.464086    7.290582    6.048787
 126 H     1.0000    0     1.008    6.542515    4.341287    4.852571
 127 H     1.0000    0     1.008   13.634998    6.926980   -0.727431
 128 H     1.0000    0     1.008   13.442189    8.948250    1.911269
 129 H     1.0000    0     1.008   10.147792    9.229404   -2.909347
 130 H     1.0000    0     1.008   12.644838   11.334936   -2.127510
 131 H     1.0000    0     1.008    9.829902   11.316323   -0.295081
 132 H     1.0000    0     1.008   16.660468    1.491296   -0.479461
 133 H     1.0000    0     1.008   20.346379   -1.337851    0.440117
 134 H     1.0000    0     1.008   18.227353   -3.863564    0.959225
 135 H     1.0000    0     1.008   18.445692    1.135366    3.991272
 136 H     1.0000    0     1.008   19.533967   -1.862590    5.044718
 137 H     1.0000    0     1.008   16.259714   -1.344616    4.595323
 138 H     1.0000    0     1.008   15.655398   -0.410146   -4.750337
 139 H     1.0000    0     1.008   17.245716   -3.176308   -3.823747
 140 H     1.0000    0     1.008   19.701378    2.122521   -4.222423
 141 H     1.0000    0     1.008   20.028319   -0.377681   -6.446479
 142 H     1.0000    0     1.008   21.322309   -0.691262   -3.378925

--------------------------------
INTERNAL COORDINATES (ANGSTROEM)
--------------------------------
 C      0   0   0     0.000000000000     0.00000000     0.00000000
 C      1   0   0     1.406242215090     0.00000000     0.00000000
 S      2   1   0     1.747052864999   111.69693711     0.00000000
 C      3   2   1     1.747477113698    91.94854158   359.73546200
 C      4   3   2     1.392930860739   109.85146972   359.24326504
 C      4   3   2     1.424139981462   126.74641892   182.08684746
 C      6   4   3     1.371093131009   133.58454583   340.51120224
 C      7   6   4     1.455895012492   134.11766181   345.97191133
 C      8   7   6     1.383634664570   126.34327303   330.53101425
 C      9   8   7     1.428520495653   122.76223279   177.79828751
 N     10   9   8     1.162327475843   178.40469788   239.61793603
 C      9   8   7     1.429175342986   121.98826420   351.70129353
 N     12   9   8     1.161824095335   176.96496825   260.42199342
 C      8   7   6     1.484551626216   107.08666334   162.13968086
 C     14   8   7     1.400535032978   131.69426973   185.10733734
 C     15  14   8     1.392963509393   117.88890480   184.70183818
 F     16  15  14     1.330058106475   119.87384569   179.99140855
 C     16  15  14     1.407581553303   122.00038072     0.42716967
 F     18  16  15     1.330995200367   118.59191206   179.57386074
 C     18  16  15     1.390184475924   120.49089442   359.86068193
 C     20  18  16     1.390910224709   117.52149298   359.82142527
 C     21  20  18     1.487182016298   127.76036486   179.16434110
 O     22  21  20     1.213273698924   127.33952709   358.42201516
 C      2   1   3    10.294908381822   116.69957383   163.91020672
 C     24   2   1     1.407658425329    30.72014238    34.68521583
 S     25  24   2     1.734741648805   111.83601017   204.93862326
 C     26  25  24     1.755572265502    92.04604421   359.30370900
 C     27  26  25     1.398308069668   109.84456295     0.21245870
 C     27  26  25     1.421225119184   116.21128572   180.17395952
 C     29  27  26     1.379561886289   132.53760929   167.48741207
 C     30  29  27     1.468421218146   124.86801460   182.68561085
 C     31  30  29     1.383972050982   128.24956343   345.39441799
 C     32  31  30     1.430520048199   122.53006089   180.49736099
 N     33  32  31     1.162247153406   179.55256248   204.85616006
 C     32  31  30     1.429834430030   123.99595598   359.48281251
 N     35  32  31     1.162248316798   178.43151616   175.07148163
 C     31  30  29     1.480755240308   107.39728127   167.12941940
 C     37  31  30     1.400301274333   131.68958843   184.50600515
 C     38  37  31     1.390097416766   118.03944327   179.00011693
 F     39  38  37     1.329427425360   119.46842502   180.29425594
 C     39  38  37     1.407043266499   121.86336891     0.29083944
 F     41  39  38     1.329685655033   118.57608439   180.22045031
 C     41  39  38     1.390915241846   120.49362218     0.11642873
 C     43  41  39     1.390825004700   117.50401708   359.60023012
 C     44  43  41     1.486449439369   127.59555345   180.90110135
 O     45  44  43     1.219369505810   124.95937527   355.98459714
 C      1   2   3     1.509629321423   124.51187911   181.90242437
 C     47   1   2     1.545165719268   117.43838166   197.30626986
 C     48  47   1     1.538810803640   112.90377875    82.01132853
 C     49  48  47     1.529425392263   117.10542304   297.65622999
 C     48  47   1     1.542307779498   109.07007916   206.14111396
 C     51  48  47     1.528753493896   115.22223697   174.24958661
 C      2   1   3     1.445604571831   130.19017802   179.57359764
 S     53   2   1     1.761561432395   121.81530209   328.57621403
 C     54  53   2     1.731262233661    91.31701878   183.80925240
 C     55  54  53     1.398542254313   112.58993508   359.57675168
 C     53   2   1     1.396146300464   127.68028647   152.72214408
 C     55  54  53     1.446666476317   129.44758148   182.65421967
 C     58  55  54     1.397664278752   117.97717689   173.86361857
 Ge    59  58  55     1.974316963965   107.55635143   356.25683233
 S     58  55  54     1.731204899340   129.48514025   351.43570821
 C     25  24   2     1.448367554007   129.68191798    24.09680689
 C     62  25  24     1.390893502393   129.96281803    44.09099649
 C     24   2   1     1.514484113188    93.87892530   200.93792772
 C     64  24   2     1.542652231613   117.29690236   183.24569042
 C     65  64  24     1.539634569435   112.92715125    83.29035927
 C     66  65  64     1.530000174444   116.38404042   303.91761557
 C     65  64  24     1.542880224645   109.17725525   208.02804760
 C     68  65  64     1.529297203326   115.28890860   179.60667118
 C     60  59  58     1.973237511021   111.55396531   261.74265001
 C     60  59  58     1.958959573166   114.46093014   131.32529790
 C     70  60  59     1.542902972192   111.36884846    30.13748368
 C     72  70  60     1.540644773755   112.33646963   146.00555612
 C     73  72  70     1.529442145228   113.40078030   283.85970401
 C     72  70  60     1.539756366020   110.62116701   272.43252190
 C     75  72  70     1.526593296396   113.53877094   155.73107645
 C     71  60  59     1.551227790429   111.17874333    54.42108665
 C     77  71  60     1.537913492073   111.92321179   139.58970544
 C     78  77  71     1.527610515184   114.57586815   292.91534733
 C     77  71  60     1.539945049864   109.97801910   264.92601427
 C     80  77  71     1.528528188455   115.22348588   170.33422177
 H      5   4   3     1.088366863195   120.75710666   181.31881932
 H      6   4   3     1.098375723466   113.82172314   155.81254984
 H     15  14   8     1.088908804400   123.66012916     4.73227736
 H     20  18  16     1.091261603970   120.99778095   179.27124667
 H     28  27  26     1.085073027450   120.40251332   179.93397250
 H     29  27  26     1.090553847593   112.37819733   350.68225767
 H     38  37  31     1.087216334774   124.00860184   359.16342612
 H     43  41  39     1.091256096203   121.05974016   180.15787570
 H     47   1   2     1.104436996573   107.34851887    75.13566614
 H     47   1   2     1.103231153748   109.25588592   321.73402995
 H     48  47   1     1.104591054010   108.77674504   321.86583309
 H     49  48  47     1.101349430517   108.30851463   175.20733733
 H     49  48  47     1.106402909884   107.78545357    61.41115535
 H     50  49  48     1.101917964143   111.69273441   302.27218789
 H     50  49  48     1.101521822072   110.17541673   183.26072279
 H     50  49  48     1.100802028387   112.62596260    63.07004331
 H     51  48  47     1.103852747200   107.94168981    52.37615073
 H     51  48  47     1.105367698687   109.02512368   298.00779241
 H     52  51  48     1.103042423708   111.04455802   304.55191913
 H     52  51  48     1.101431004149   111.03003576   184.94132061
 H     52  51  48     1.100694016428   112.45826355    65.05195683
 H     57  53   2     1.091520255149   121.43999167   355.03771823
 H     63  62  25     1.090208031570   121.90018194     0.02783939
 H     64  24   2     1.104993292830   106.06516362    61.88615126
 H     64  24   2     1.099997486088   110.55906990   308.85081109
 H     65  64  24     1.103179757700   108.67105653   323.57375408
 H     66  65  64     1.101570275334   108.23476370   181.85334656
 H     66  65  64     1.105556613250   108.24993616    67.65146020
 H     67  66  65     1.100941020309   111.42701902   301.41897472
 H     67  66  65     1.101721257941   110.50489535   181.74476241
 H     67  66  65     1.100938054615   112.38420198    61.96498665
 H     68  65  64     1.103484181944   108.01282326    57.51734511
 H     68  65  64     1.105503406689   109.06394029   303.30163023
 H     69  68  65     1.102419928158   111.16748391   310.47954552
 H     69  68  65     1.101382716861   111.04231623   190.93246675
 H     69  68  65     1.100107454842   112.12350373    70.86820703
 H     70  60  59     1.102348177755   110.95159636   265.84853610
 H     70  60  59     1.102311451179   105.11755415   151.15656387
 H     71  60  59     1.100892856095   110.08498985   291.18446406
 H     71  60  59     1.100786233335   106.61171409   176.09110064
 H     72  70  60     1.104874586277   108.50577923    29.31480422
 H     73  72  70     1.103465787191   108.98524834   162.85789108
 H     73  72  70     1.105024091185   109.08470507    47.49024487
 H     74  73  72     1.103216687057   110.55658773   299.20216290
 H     74  73  72     1.101302201986   111.59403667   179.33614224
 H     74  73  72     1.102193716005   112.11722403    58.53398648
 H     75  72  70     1.101990961397   108.98880364    34.57830980
 H     75  72  70     1.105845479441   109.01909718   279.44498526
 H     76  75  72     1.102384844145   110.55389155   299.10381588
 H     76  75  72     1.100913321066   111.70997559   179.38984405
 H     76  75  72     1.102056250651   111.72775684    58.82244400
 H     77  71  60     1.109317701202   109.35850504    22.15562904
 H     78  77  71     1.102202544953   108.79029273   171.62741881
 H     78  77  71     1.105542589139   108.52894388    56.42205742
 H     79  78  77     1.103219098094   111.15546368   299.07285085
 H     79  78  77     1.100299550032   111.17335197   179.31354735
 H     79  78  77     1.101732530653   112.20924808    59.50960840
 H     80  77  71     1.101552031499   108.59636963    47.69131787
 H     80  77  71     1.104933581760   108.23746049   293.44208423
 H     81  80  77     1.104041086237   111.68201898   301.18249995
 H     81  80  77     1.100819370605   110.90416311   181.17551991
 H     81  80  77     1.100374622481   112.09937041    61.62937901

---------------------------
INTERNAL COORDINATES (A.U.)
---------------------------
 C      0   0   0     0.000000000000     0.00000000     0.00000000
 C      1   0   0     2.657412664478     0.00000000     0.00000000
 S      2   1   0     3.301451456330   111.69693711     0.00000000
 C      3   2   1     3.302253170185    91.94854158   359.73546200
 C      4   3   2     2.632257850285   109.85146972   359.24326504
 C      4   3   2     2.691234541332   126.74641892   182.08684746
 C      6   4   3     2.590990521708   133.58454583   340.51120224
 C      7   6   4     2.751242853352   134.11766181   345.97191133
 C      8   7   6     2.614690585437   126.34327303   330.53101425
 C      9   8   7     2.699512513477   122.76223279   177.79828751
 N     10   9   8     2.196480607276   178.40469788   239.61793603
 C      9   8   7     2.700749995597   121.98826420   351.70129353
 N     12   9   8     2.195529355973   176.96496825   260.42199342
 C      8   7   6     2.805396005215   107.08666334   162.13968086
 C     14   8   7     2.646627653292   131.69426973   185.10733734
 C     15  14   8     2.632319547298   117.88890480   184.70183818
 F     16  15  14     2.513445563440   119.87384569   179.99140855
 C     16  15  14     2.659943646903   122.00038072     0.42716967
 F     18  16  15     2.515216414257   118.59191206   179.57386074
 C     18  16  15     2.627067935125   120.49089442   359.86068193
 C     20  18  16     2.628439401571   117.52149298   359.82142527
 C     21  20  18     2.810366722096   127.76036486   179.16434110
 O     22  21  20     2.292755016455   127.33952709   358.42201516
 C      2   1   3    19.454557415453   116.69957383   163.91020672
 C     24   2   1     2.660088913979    30.72014238    34.68521583
 S     25  24   2     3.278186629349   111.83601017   204.93862326
 C     26  25  24     3.317550790107    92.04604421   359.30370900
 C     27  26  25     2.642419302526   109.84456295     0.21245870
 C     27  26  25     2.685726249908   116.21128572   180.17395952
 C     29  27  26     2.606994149881   132.53760929   167.48741207
 C     30  29  27     2.774913951534   124.86801460   182.68561085
 C     31  30  29     2.615328153358   128.24956343   345.39441799
 C     32  31  30     2.703291120180   122.53006089   180.49736099
 N     33  32  31     2.196328819867   179.55256248   204.85616006
 C     32  31  30     2.701995489609   123.99595598   359.48281251
 N     35  32  31     2.196331018359   178.43151616   175.07148163
 C     31  30  29     2.798221875551   107.39728127   167.12941940
 C     37  31  30     2.646185913471   131.68958843   184.50600515
 C     38  37  31     2.626903417159   118.03944327   179.00011693
 F     39  38  37     2.512253748855   119.46842502   180.29425594
 C     39  38  37     2.658926432261   121.86336891     0.29083944
 F     41  39  38     2.512741732216   118.57608439   180.22045031
 C     41  39  38     2.628448882586   120.49362218     0.11642873
 C     43  41  39     2.628278359094   117.50401708   359.60023012
 C     44  43  41     2.808982352328   127.59555345   180.90110135
 O     45  44  43     2.304274422036   124.95937527   355.98459714
 C      1   2   3     2.852785981227   124.51187911   181.90242437
 C     47   1   2     2.919940040939   117.43838166   197.30626986
 C     48  47   1     2.907930990799   112.90377875    82.01132853
 C     49  48  47     2.890195133643   117.10542304   297.65622999
 C     48  47   1     2.914539317467   109.07007916   206.14111396
 C     51  48  47     2.888925429739   115.22223697   174.24958661
 C      2   1   3     2.731796738706   130.19017802   179.57359764
 S     53   2   1     3.328868675304   121.81530209   328.57621403
 C     54  53   2     3.271611487620    91.31701878   183.80925240
 C     55  54  53     2.642861847369   112.58993508   359.57675168
 C     53   2   1     2.638334150765   127.68028647   152.72214408
 C     55  54  53     2.733803447364   129.44758148   182.65421967
 C     58  55  54     2.641202714006   117.97717689   173.86361857
 Ge    59  58  55     3.730918363449   107.55635143   356.25683233
 S     58  55  54     3.271503141456   129.48514025   351.43570821
 C     25  24   2     2.737018018330   129.68191798    24.09680689
 C     62  25  24     2.628407800974   129.96281803    44.09099649
 C     24   2   1     2.861960208101    93.87892530   200.93792772
 C     64  24   2     2.915190237631   117.29690236   183.24569042
 C     65  64  24     2.909487682550   112.92715125    83.29035927
 C     66  65  64     2.891281314552   116.38404042   303.91761557
 C     65  64  24     2.915621082022   109.17725525   208.02804760
 C     68  65  64     2.889952891657   115.28890860   179.60667118
 C     60  59  58     3.728878493010   111.55396531   261.74265001
 C     60  59  58     3.701897100708   114.46093014   131.32529790
 C     70  60  59     2.915664068657   111.36884846    30.13748368
 C     72  70  60     2.911396692055   112.33646963   146.00555612
 C     73  72  70     2.890226792158   113.40078030   283.85970401
 C     72  70  60     2.909717844740   110.62116701   272.43252190
 C     75  72  70     2.884843248068   113.53877094   155.73107645
 C     71  60  59     2.931395695239   111.17874333    54.42108665
 C     77  71  60     2.906235317680   111.92321179   139.58970544
 C     78  77  71     2.886765512996   114.57586815   292.91534733
 C     77  71  60     2.910074405530   109.97801910   264.92601427
 C     80  77  71     2.888499664158   115.22348588   170.33422177
 H      5   4   3     2.056715304673   120.75710666   181.31881932
 H      6   4   3     2.075629309499   113.82172314   155.81254984
 H     15  14   8     2.057739425132   123.66012916     4.73227736
 H     20  18  16     2.062185571968   120.99778095   179.27124667
 H     28  27  26     2.050490857186   120.40251332   179.93397250
 H     29  27  26     2.060848106245   112.37819733   350.68225767
 H     38  37  31     2.054541121049   124.00860184   359.16342612
 H     43  41  39     2.062175163796   121.05974016   180.15787570
 H     47   1   2     2.087083455694   107.34851887    75.13566614
 H     47   1   2     2.084804742994   109.25588592   321.73402995
 H     48  47   1     2.087374582059   108.77674504   321.86583309
 H     49  48  47     2.081248801427   108.30851463   175.20733733
 H     49  48  47     2.090798493454   107.78545357    61.41115535
 H     50  49  48     2.082323174277   111.69273441   302.27218789
 H     50  49  48     2.081574574253   110.17541673   183.26072279
 H     50  49  48     2.080214361316   112.62596260    63.07004331
 H     51  48  47     2.085979384384   107.94168981    52.37615073
 H     51  48  47     2.088842227801   109.02512368   298.00779241
 H     52  51  48     2.084448094905   111.04455802   304.55191913
 H     52  51  48     2.081402953251   111.03003576   184.94132061
 H     52  51  48     2.080010248294   112.45826355    65.05195683
 H     57  53   2     2.062674351859   121.43999167   355.03771823
 H     63  62  25     2.060194608669   121.90018194     0.02783939
 H     64  24   2     2.088134703269   106.06516362    61.88615126
 H     64  24   2     2.078693996708   110.55906990   308.85081109
 H     65  64  24     2.084707618539   108.67105653   323.57375408
 H     66  65  64     2.081666137650   108.23476370   181.85334656
 H     66  65  64     2.089199224587   108.24993616    67.65146020
 H     67  66  65     2.080477017985   111.42701902   301.41897472
 H     67  66  65     2.081951453428   110.50489535   181.74476241
 H     67  66  65     2.080471413635   112.38420198    61.96498665
 H     68  65  64     2.085282896988   108.01282326    57.51734511
 H     68  65  64     2.089098678758   109.06394029   303.30163023
 H     69  68  65     2.083271748796   111.16748391   310.47954552
 H     69  68  65     2.081311703501   111.04231623   190.93246675
 H     69  68  65     2.078901807537   112.12350373    70.86820703
 H     70  60  59     2.083136160184   110.95159636   265.84853610
 H     70  60  59     2.083066757013   105.11755415   151.15656387
 H     71  60  59     2.080386000809   110.08498985   291.18446406
 H     71  60  59     2.080184512994   106.61171409   176.09110064
 H     72  70  60     2.087910380392   108.50577923    29.31480422
 H     73  72  70     2.085248135942   108.98524834   162.85789108
 H     73  72  70     2.088192903726   109.08470507    47.49024487
 H     74  73  72     2.084777404909   110.55658773   299.20216290
 H     74  73  72     2.081159552439   111.59403667   179.33614224
 H     74  73  72     2.082844269778   112.11722403    58.53398648
 H     75  72  70     2.082461119096   108.98880364    34.57830980
 H     75  72  70     2.089745102578   109.01909718   279.44498526
 H     76  75  72     2.083205449619   110.55389155   299.10381588
 H     76  75  72     2.080424674000   111.70997559   179.38984405
 H     76  75  72     2.082584497907   111.72775684    58.82244400
 H     77  71  60     2.096306650783   109.35850504    22.15562904
 H     78  77  71     2.082860954071   108.79029273   171.62741881
 H     78  77  71     2.089172722859   108.52894388    56.42205742
 H     79  78  77     2.084781961110   111.15546368   299.07285085
 H     79  78  77     2.079264814837   111.17335197   179.31354735
 H     79  78  77     2.081972755767   112.20924808    59.50960840
 H     80  77  71     2.081631661798   108.59636963    47.69131787
 H     80  77  71     2.088021865698   108.23746049   293.44208423
 H     81  80  77     2.086335293585   111.68201898   301.18249995
 H     81  80  77     2.080247133360   110.90416311   181.17551991
 H     81  80  77     2.079406681206   112.09937041    61.62937901

---------------------
BASIS SET INFORMATION
---------------------
There are 7 groups of distinct atoms

 Group   1 Type C   : 7s4p1d contracted to 3s2p1d pattern {511/31/1}
 Group   2 Type S   : 10s7p1d contracted to 4s3p1d pattern {5311/511/1}
 Group   3 Type N   : 7s4p1d contracted to 3s2p1d pattern {511/31/1}
 Group   4 Type F   : 7s4p1d contracted to 3s2p1d pattern {511/31/1}
 Group   5 Type O   : 7s4p1d contracted to 3s2p1d pattern {511/31/1}
 Group   6 Type Ge  : 14s10p6d contracted to 5s4p3d pattern {63311/5311/411}
 Group   7 Type H   : 4s1p contracted to 2s1p pattern {31/1}

Atom   0C    basis set group =>   1
Atom   1C    basis set group =>   1
Atom   2S    basis set group =>   2
Atom   3C    basis set group =>   1
Atom   4C    basis set group =>   1
Atom   5C    basis set group =>   1
Atom   6C    basis set group =>   1
Atom   7C    basis set group =>   1
Atom   8C    basis set group =>   1
Atom   9C    basis set group =>   1
Atom  10N    basis set group =>   3
Atom  11C    basis set group =>   1
Atom  12N    basis set group =>   3
Atom  13C    basis set group =>   1
Atom  14C    basis set group =>   1
Atom  15C    basis set group =>   1
Atom  16F    basis set group =>   4
Atom  17C    basis set group =>   1
Atom  18F    basis set group =>   4
Atom  19C    basis set group =>   1
Atom  20C    basis set group =>   1
Atom  21C    basis set group =>   1
Atom  22O    basis set group =>   5
Atom  23C    basis set group =>   1
Atom  24C    basis set group =>   1
Atom  25S    basis set group =>   2
Atom  26C    basis set group =>   1
Atom  27C    basis set group =>   1
Atom  28C    basis set group =>   1
Atom  29C    basis set group =>   1
Atom  30C    basis set group =>   1
Atom  31C    basis set group =>   1
Atom  32C    basis set group =>   1
Atom  33N    basis set group =>   3
Atom  34C    basis set group =>   1
Atom  35N    basis set group =>   3
Atom  36C    basis set group =>   1
Atom  37C    basis set group =>   1
Atom  38C    basis set group =>   1
Atom  39F    basis set group =>   4
Atom  40C    basis set group =>   1
Atom  41F    basis set group =>   4
Atom  42C    basis set group =>   1
Atom  43C    basis set group =>   1
Atom  44C    basis set group =>   1
Atom  45O    basis set group =>   5
Atom  46C    basis set group =>   1
Atom  47C    basis set group =>   1
Atom  48C    basis set group =>   1
Atom  49C    basis set group =>   1
Atom  50C    basis set group =>   1
Atom  51C    basis set group =>   1
Atom  52C    basis set group =>   1
Atom  53S    basis set group =>   2
Atom  54C    basis set group =>   1
Atom  55C    basis set group =>   1
Atom  56C    basis set group =>   1
Atom  57C    basis set group =>   1
Atom  58C    basis set group =>   1
Atom  59Ge   basis set group =>   6
Atom  60S    basis set group =>   2
Atom  61C    basis set group =>   1
Atom  62C    basis set group =>   1
Atom  63C    basis set group =>   1
Atom  64C    basis set group =>   1
Atom  65C    basis set group =>   1
Atom  66C    basis set group =>   1
Atom  67C    basis set group =>   1
Atom  68C    basis set group =>   1
Atom  69C    basis set group =>   1
Atom  70C    basis set group =>   1
Atom  71C    basis set group =>   1
Atom  72C    basis set group =>   1
Atom  73C    basis set group =>   1
Atom  74C    basis set group =>   1
Atom  75C    basis set group =>   1
Atom  76C    basis set group =>   1
Atom  77C    basis set group =>   1
Atom  78C    basis set group =>   1
Atom  79C    basis set group =>   1
Atom  80C    basis set group =>   1
Atom  81H    basis set group =>   7
Atom  82H    basis set group =>   7
Atom  83H    basis set group =>   7
Atom  84H    basis set group =>   7
Atom  85H    basis set group =>   7
Atom  86H    basis set group =>   7
Atom  87H    basis set group =>   7
Atom  88H    basis set group =>   7
Atom  89H    basis set group =>   7
Atom  90H    basis set group =>   7
Atom  91H    basis set group =>   7
Atom  92H    basis set group =>   7
Atom  93H    basis set group =>   7
Atom  94H    basis set group =>   7
Atom  95H    basis set group =>   7
Atom  96H    basis set group =>   7
Atom  97H    basis set group =>   7
Atom  98H    basis set group =>   7
Atom  99H    basis set group =>   7
Atom 100H    basis set group =>   7
Atom 101H    basis set group =>   7
Atom 102H    basis set group =>   7
Atom 103H    basis set group =>   7
Atom 104H    basis set group =>   7
Atom 105H    basis set group =>   7
Atom 106H    basis set group =>   7
Atom 107H    basis set group =>   7
Atom 108H    basis set group =>   7
Atom 109H    basis set group =>   7
Atom 110H    basis set group =>   7
Atom 111H    basis set group =>   7
Atom 112H    basis set group =>   7
Atom 113H    basis set group =>   7
Atom 114H    basis set group =>   7
Atom 115H    basis set group =>   7
Atom 116H    basis set group =>   7
Atom 117H    basis set group =>   7
Atom 118H    basis set group =>   7
Atom 119H    basis set group =>   7
Atom 120H    basis set group =>   7
Atom 121H    basis set group =>   7
Atom 122H    basis set group =>   7
Atom 123H    basis set group =>   7
Atom 124H    basis set group =>   7
Atom 125H    basis set group =>   7
Atom 126H    basis set group =>   7
Atom 127H    basis set group =>   7
Atom 128H    basis set group =>   7
Atom 129H    basis set group =>   7
Atom 130H    basis set group =>   7
Atom 131H    basis set group =>   7
Atom 132H    basis set group =>   7
Atom 133H    basis set group =>   7
Atom 134H    basis set group =>   7
Atom 135H    basis set group =>   7
Atom 136H    basis set group =>   7
Atom 137H    basis set group =>   7
Atom 138H    basis set group =>   7
Atom 139H    basis set group =>   7
Atom 140H    basis set group =>   7
Atom 141H    basis set group =>   7
Atom 142H    basis set group =>   7
---------------------------------
AUXILIARY/J BASIS SET INFORMATION
---------------------------------
There are 7 groups of distinct atoms

 Group   1 Type C   : 12s5p4d2f1g contracted to 6s4p3d1f1g pattern {711111/2111/211/2/1}
 Group   2 Type S   : 14s5p5d2f1g contracted to 8s4p3d1f1g pattern {71111111/2111/311/2/1}
 Group   3 Type N   : 12s5p4d2f1g contracted to 6s4p3d1f1g pattern {711111/2111/211/2/1}
 Group   4 Type F   : 12s5p4d2f1g contracted to 6s4p3d1f1g pattern {711111/2111/211/2/1}
 Group   5 Type O   : 12s5p4d2f1g contracted to 6s4p3d1f1g pattern {711111/2111/211/2/1}
 Group   6 Type Ge  : 19s5p5d3f1g contracted to 8s4p3d2f1g pattern {121111111/2111/311/21/1}
 Group   7 Type H   : 5s2p1d contracted to 3s1p1d pattern {311/2/1}

Atom   0C    basis set group =>   1
Atom   1C    basis set group =>   1
Atom   2S    basis set group =>   2
Atom   3C    basis set group =>   1
Atom   4C    basis set group =>   1
Atom   5C    basis set group =>   1
Atom   6C    basis set group =>   1
Atom   7C    basis set group =>   1
Atom   8C    basis set group =>   1
Atom   9C    basis set group =>   1
Atom  10N    basis set group =>   3
Atom  11C    basis set group =>   1
Atom  12N    basis set group =>   3
Atom  13C    basis set group =>   1
Atom  14C    basis set group =>   1
Atom  15C    basis set group =>   1
Atom  16F    basis set group =>   4
Atom  17C    basis set group =>   1
Atom  18F    basis set group =>   4
Atom  19C    basis set group =>   1
Atom  20C    basis set group =>   1
Atom  21C    basis set group =>   1
Atom  22O    basis set group =>   5
Atom  23C    basis set group =>   1
Atom  24C    basis set group =>   1
Atom  25S    basis set group =>   2
Atom  26C    basis set group =>   1
Atom  27C    basis set group =>   1
Atom  28C    basis set group =>   1
Atom  29C    basis set group =>   1
Atom  30C    basis set group =>   1
Atom  31C    basis set group =>   1
Atom  32C    basis set group =>   1
Atom  33N    basis set group =>   3
Atom  34C    basis set group =>   1
Atom  35N    basis set group =>   3
Atom  36C    basis set group =>   1
Atom  37C    basis set group =>   1
Atom  38C    basis set group =>   1
Atom  39F    basis set group =>   4
Atom  40C    basis set group =>   1
Atom  41F    basis set group =>   4
Atom  42C    basis set group =>   1
Atom  43C    basis set group =>   1
Atom  44C    basis set group =>   1
Atom  45O    basis set group =>   5
Atom  46C    basis set group =>   1
Atom  47C    basis set group =>   1
Atom  48C    basis set group =>   1
Atom  49C    basis set group =>   1
Atom  50C    basis set group =>   1
Atom  51C    basis set group =>   1
Atom  52C    basis set group =>   1
Atom  53S    basis set group =>   2
Atom  54C    basis set group =>   1
Atom  55C    basis set group =>   1
Atom  56C    basis set group =>   1
Atom  57C    basis set group =>   1
Atom  58C    basis set group =>   1
Atom  59Ge   basis set group =>   6
Atom  60S    basis set group =>   2
Atom  61C    basis set group =>   1
Atom  62C    basis set group =>   1
Atom  63C    basis set group =>   1
Atom  64C    basis set group =>   1
Atom  65C    basis set group =>   1
Atom  66C    basis set group =>   1
Atom  67C    basis set group =>   1
Atom  68C    basis set group =>   1
Atom  69C    basis set group =>   1
Atom  70C    basis set group =>   1
Atom  71C    basis set group =>   1
Atom  72C    basis set group =>   1
Atom  73C    basis set group =>   1
Atom  74C    basis set group =>   1
Atom  75C    basis set group =>   1
Atom  76C    basis set group =>   1
Atom  77C    basis set group =>   1
Atom  78C    basis set group =>   1
Atom  79C    basis set group =>   1
Atom  80C    basis set group =>   1
Atom  81H    basis set group =>   7
Atom  82H    basis set group =>   7
Atom  83H    basis set group =>   7
Atom  84H    basis set group =>   7
Atom  85H    basis set group =>   7
Atom  86H    basis set group =>   7
Atom  87H    basis set group =>   7
Atom  88H    basis set group =>   7
Atom  89H    basis set group =>   7
Atom  90H    basis set group =>   7
Atom  91H    basis set group =>   7
Atom  92H    basis set group =>   7
Atom  93H    basis set group =>   7
Atom  94H    basis set group =>   7
Atom  95H    basis set group =>   7
Atom  96H    basis set group =>   7
Atom  97H    basis set group =>   7
Atom  98H    basis set group =>   7
Atom  99H    basis set group =>   7
Atom 100H    basis set group =>   7
Atom 101H    basis set group =>   7
Atom 102H    basis set group =>   7
Atom 103H    basis set group =>   7
Atom 104H    basis set group =>   7
Atom 105H    basis set group =>   7
Atom 106H    basis set group =>   7
Atom 107H    basis set group =>   7
Atom 108H    basis set group =>   7
Atom 109H    basis set group =>   7
Atom 110H    basis set group =>   7
Atom 111H    basis set group =>   7
Atom 112H    basis set group =>   7
Atom 113H    basis set group =>   7
Atom 114H    basis set group =>   7
Atom 115H    basis set group =>   7
Atom 116H    basis set group =>   7
Atom 117H    basis set group =>   7
Atom 118H    basis set group =>   7
Atom 119H    basis set group =>   7
Atom 120H    basis set group =>   7
Atom 121H    basis set group =>   7
Atom 122H    basis set group =>   7
Atom 123H    basis set group =>   7
Atom 124H    basis set group =>   7
Atom 125H    basis set group =>   7
Atom 126H    basis set group =>   7
Atom 127H    basis set group =>   7
Atom 128H    basis set group =>   7
Atom 129H    basis set group =>   7
Atom 130H    basis set group =>   7
Atom 131H    basis set group =>   7
Atom 132H    basis set group =>   7
Atom 133H    basis set group =>   7
Atom 134H    basis set group =>   7
Atom 135H    basis set group =>   7
Atom 136H    basis set group =>   7
Atom 137H    basis set group =>   7
Atom 138H    basis set group =>   7
Atom 139H    basis set group =>   7
Atom 140H    basis set group =>   7
Atom 141H    basis set group =>   7
Atom 142H    basis set group =>   7
------------------------------------------------------------------------------
                           ORCA GTO INTEGRAL CALCULATION
                           -- RI-GTO INTEGRALS CHOSEN --
------------------------------------------------------------------------------

                         BASIS SET STATISTICS AND STARTUP INFO

Gaussian basis set:
 # of primitive gaussian shells          ... 1324
 # of primitive gaussian functions       ... 2476
 # of contracted shells                  ...  686
 # of contracted basis functions         ... 1478
 Highest angular momentum                ...    2
 Maximum contraction depth               ...    6
Auxiliary gaussian basis set:
 # of primitive gaussian shells          ... 2461
 # of primitive gaussian functions       ... 6709
 # of contracted shells                  ... 1536
 # of contracted aux-basis functions     ... 4668
 Highest angular momentum                ...    4
 Maximum contraction depth               ...   12
Ratio of auxiliary to basis functions    ...  3.16
Integral package used                  ... LIBINT
 One Electron integrals                  ... done
 Ordering auxiliary basis shells         ... done
 Integral threshhold             Thresh  ...  2.500e-11
 Primitive cut-off               TCut    ...  2.500e-12
 Pre-screening matrix                    ... done
 Shell pair data                         ... 
 Ordering of the shell pairs             ... done (   0.016 sec) 72802 of 235641 pairs
 Determination of significant pairs      ... done (   0.000 sec)
 Creation of shell pair data             ... done (   0.010 sec)
 Storage of shell pair data              ... done (   0.014 sec)
 Shell pair data done in (   0.041 sec)
 Computing two index integrals           ... done
 Cholesky decomposition of the V-matrix  ... done


Timings:
 Total evaluation time                   ...   3.488 sec (  0.058 min)
 One electron matrix time                ...   1.062 sec (  0.018 min) = 30.5%
 Schwartz matrix evaluation time         ...   1.034 sec (  0.017 min) = 29.6%
 Two index repulsion integral time       ...   0.526 sec (  0.009 min) = 15.1%
 Cholesky decomposition of V             ...   0.806 sec (  0.013 min) = 23.1%
 Three index repulsion integral time     ...   0.000 sec (  0.000 min) =  0.0%

-------------------------------------------------------------------------------
                                 ORCA SCF
-------------------------------------------------------------------------------

------------
SCF SETTINGS
------------
Hamiltonian:
 Density Functional     Method          .... DFT(GTOs)
 Exchange Functional    Exchange        .... WB88
 Correlation Functional Correlation     .... LYP
 LDA part of GGA corr.  LDAOpt          .... VWN-5
 Gradients option       PostSCFGGA      .... off
 Hybrid DFT is turned on
   Fraction HF Exchange ScalHFX         ....  0.190000
   Scaling of DF-GGA-X  ScalDFX         ....  0.350000
   Scaling of DF-GGA-C  ScalDFC         ....  0.810000
   Scaling of DF-LDA-C  ScalLDAC        ....  1.000000
   Perturbative correction              ....  0.000000
   Density functional embedding theory  .... OFF
 Long-range corrected/Screened/Range-Separated Hybrid DFT is turned on
   Amount of maximum screened exact exchange              ....  0.460000
   Range separation parameter mu (erf(mu*r12)/r12)        ....  0.330000
 RI-approximation to the Coulomb term is turned on
   Number of auxiliary basis functions  .... 4668
   RIJ-COSX (HFX calculated with COS-X)).... on


General Settings:
 Integral files         IntName         .... DTG-IW
 Hartree-Fock type      HFTyp           .... RHF
 Total Charge           Charge          ....    0
 Multiplicity           Mult            ....    1
 Number of Electrons    NEL             ....  634
 Basis Dimension        Dim             .... 1478
 Nuclear Repulsion      ENuc            ....  14874.9953896626 Eh

Convergence Acceleration:
 DIIS                   CNVDIIS         .... on
   Start iteration      DIISMaxIt       ....    12
   Startup error        DIISStart       ....  0.200000
   # of expansion vecs  DIISMaxEq       ....     5
   Bias factor          DIISBfac        ....   1.050
   Max. coefficient     DIISMaxC        ....  10.000
 Newton-Raphson         CNVNR           .... off
 SOSCF                  CNVSOSCF        .... on
   Start iteration      SOSCFMaxIt      ....   150
   Startup grad/error   SOSCFStart      ....  0.003300
 Level Shifting         CNVShift        .... on
   Level shift para.    LevelShift      ....    0.2500
   Turn off err/grad.   ShiftErr        ....    0.0010
 Zerner damping         CNVZerner       .... off
 Static damping         CNVDamp         .... on
   Fraction old density DampFac         ....    0.7000
   Max. Damping (<1)    DampMax         ....    0.9800
   Min. Damping (>=0)   DampMin         ....    0.0000
   Turn off err/grad.   DampErr         ....    0.1000
 Fernandez-Rico         CNVRico         .... off

SCF Procedure:
 Maximum # iterations   MaxIter         ....   125
 SCF integral mode      SCFMode         .... Direct
   Integral package                     .... LIBINT
 Reset frequency        DirectResetFreq ....    20
 Integral Threshold     Thresh          ....  2.500e-11 Eh
 Primitive CutOff       TCut            ....  2.500e-12 Eh

Convergence Tolerance:
 Convergence Check Mode ConvCheckMode   .... Total+1el-Energy
 Convergence forced     ConvForced      .... 1
 Energy Change          TolE            ....  1.000e-08 Eh
 1-El. energy change                    ....  1.000e-05 Eh
 Orbital Gradient       TolG            ....  1.000e-05
 Orbital Rotation angle TolX            ....  1.000e-05
 DIIS Error             TolErr          ....  5.000e-07


Diagonalization of the overlap matrix:
Smallest eigenvalue                        ... 2.206e-04
Time for diagonalization                   ...    0.597 sec
Threshold for overlap eigenvalues          ... 1.000e-08
Number of eigenvalues below threshold      ... 0
Time for construction of square roots      ...    0.256 sec
Total time needed                          ...    0.859 sec

-------------------
DFT GRID GENERATION
-------------------

General Integration Accuracy     IntAcc      ...  4.670
Radial Grid Type                 RadialGrid  ... Gauss-Chebyshev
Angular Grid (max. acc.)         AngularGrid ... Lebedev-302
Angular grid pruning method      GridPruning ... 3 (G Style)
Weight generation scheme         WeightScheme... Becke
Basis function cutoff            BFCut       ...    1.0000e-11
Integration weight cutoff        WCut        ...    1.0000e-14
Grids for H and He will be reduced by one unit

# of grid points (after initial pruning)     ... 719804 (   2.0 sec)
# of grid points (after weights+screening)   ... 605851 (  45.5 sec)
nearest neighbour list constructed           ...    0.0 sec
Grid point re-assignment to atoms done       ...    0.1 sec
Grid point division into batches done        ...    2.0 sec
Reduced shell lists constructed in   11.7 sec

Total number of grid points                  ...   605851
Total number of batches                      ...     9533
Average number of points per batch           ...       63
Average number of grid points per atom       ...     4237
Average number of shells per batch           ...   110.72 (16.14%)
Average number of basis functions per batch  ...   215.30 (14.57%)
Average number of large shells per batch     ...    63.07 (56.97%)
Average number of large basis fcns per batch ...   124.91 (58.02%)
Maximum spatial batch extension              ...  25.44, 21.08, 22.08 au
Average spatial batch extension              ...   2.03,  2.07,  2.09 au

Time for grid setup =   59.197 sec

------------------------------
INITIAL GUESS: MODEL POTENTIAL
------------------------------
Loading Hartree-Fock densities                     ... done
Calculating cut-offs                               ... done
Setting up the integral package                    ... done
Initializing the effective Hamiltonian             ... done
Starting the Coulomb interaction                   ... done (  16.0 sec)
Reading the grid                                   ... done
Mapping shells                                     ... done
Starting the XC term evaluation                    ... done (  12.3 sec)
  promolecular density results
     # of electrons  =    633.970534841
     EX              =   -615.083100169
     EC              =    -22.146813778
     EX+EC           =   -637.229913946
Transforming the Hamiltonian                       ... done (   0.2 sec)
Diagonalizing the Hamiltonian                      ... done (   0.6 sec)
Back transforming the eigenvectors                 ... done (   0.1 sec)
Now organizing SCF variables                       ... done
                      ------------------
                      INITIAL GUESS DONE (  88.9 sec)
                      ------------------
--------------------
COSX GRID GENERATION
--------------------

General Integration Accuracy     IntAcc      ...  3.340
Radial Grid Type                 RadialGrid  ... Gauss-Chebyshev
Angular Grid (max. acc.)         AngularGrid ... Lebedev-50
Angular grid pruning method      GridPruning ... 3 (G Style)
Weight generation scheme         WeightScheme... Becke
Basis function cutoff            BFCut       ...    1.0000e-11
Integration weight cutoff        WCut        ...    1.0000e-14
Grids for H and He will be reduced by one unit

# of grid points (after initial pruning)     ...  67754 (   0.1 sec)
# of grid points (after weights+screening)   ...  59498 (   4.2 sec)
nearest neighbour list constructed           ...    0.0 sec
Grid point re-assignment to atoms done       ...    0.0 sec
Grid point division into batches done        ...    0.0 sec
Reduced shell lists constructed in    1.3 sec

Total number of grid points                  ...    59498
Total number of batches                      ...     1003
Average number of points per batch           ...       59
Average number of grid points per atom       ...      416
Average number of shells per batch           ...   135.05 (19.69%)
Average number of basis functions per batch  ...   265.46 (17.96%)
Average number of large shells per batch     ...    77.30 (57.24%)
Average number of large basis fcns per batch ...   155.61 (58.62%)
Maximum spatial batch extension              ...  20.95, 20.68, 23.00 au
Average spatial batch extension              ...   4.22,  4.35,  4.56 au

Overlap Fitting                  UseSFitting ... on
Constructing numerical overlap ... done (      0.8 sec)
Inverting numerical overlap    ... done (      0.1 sec)
Obtaining analytic overlap     ... done (      0.0 sec)
Final contraction and storage  ... done (      0.1 sec)


General Integration Accuracy     IntAcc      ...  3.670
Radial Grid Type                 RadialGrid  ... Gauss-Chebyshev
Angular Grid (max. acc.)         AngularGrid ... Lebedev-50
Angular grid pruning method      GridPruning ... 3 (G Style)
Weight generation scheme         WeightScheme... Becke
Basis function cutoff            BFCut       ...    1.0000e-11
Integration weight cutoff        WCut        ...    1.0000e-14
Grids for H and He will be reduced by one unit

# of grid points (after initial pruning)     ...  85446 (   0.1 sec)
# of grid points (after weights+screening)   ...  74644 (   5.4 sec)
nearest neighbour list constructed           ...    0.0 sec
Grid point re-assignment to atoms done       ...    0.0 sec
Grid point division into batches done        ...    0.0 sec
Reduced shell lists constructed in    1.6 sec

Total number of grid points                  ...    74644
Total number of batches                      ...     1239
Average number of points per batch           ...       60
Average number of grid points per atom       ...      522
Average number of shells per batch           ...   132.01 (19.24%)
Average number of basis functions per batch  ...   259.13 (17.53%)
Average number of large shells per batch     ...    75.39 (57.11%)
Average number of large basis fcns per batch ...   151.28 (58.38%)
Maximum spatial batch extension              ...  17.88, 22.63, 19.97 au
Average spatial batch extension              ...   3.86,  4.02,  4.20 au

Overlap Fitting                  UseSFitting ... on
Constructing numerical overlap ... done (      1.0 sec)
Inverting numerical overlap    ... done (      0.1 sec)
Obtaining analytic overlap     ... done (      0.0 sec)
Final contraction and storage  ... done (      0.1 sec)


General Integration Accuracy     IntAcc      ...  4.010
Radial Grid Type                 RadialGrid  ... Gauss-Chebyshev
Angular Grid (max. acc.)         AngularGrid ... Lebedev-110
Angular grid pruning method      GridPruning ... 3 (G Style)
Weight generation scheme         WeightScheme... Becke
Basis function cutoff            BFCut       ...    1.0000e-11
Integration weight cutoff        WCut        ...    1.0000e-14
Grids for H and He will be reduced by one unit

# of grid points (after initial pruning)     ... 161950 (   0.3 sec)
# of grid points (after weights+screening)   ... 140901 (  10.1 sec)
nearest neighbour list constructed           ...    0.0 sec
Grid point re-assignment to atoms done       ...    0.0 sec
Grid point division into batches done        ...    0.1 sec
Reduced shell lists constructed in    2.7 sec

Total number of grid points                  ...   140901
Total number of batches                      ...     2278
Average number of points per batch           ...       61
Average number of grid points per atom       ...      985
Average number of shells per batch           ...   124.76 (18.19%)
Average number of basis functions per batch  ...   244.70 (16.56%)
Average number of large shells per batch     ...    71.56 (57.36%)
Average number of large basis fcns per batch ...   143.30 (58.56%)
Maximum spatial batch extension              ...  20.24, 22.61, 19.38 au
Average spatial batch extension              ...   3.23,  3.31,  3.42 au

Overlap Fitting                  UseSFitting ... on
Constructing numerical overlap ... done (      1.7 sec)
Inverting numerical overlap    ... done (      0.1 sec)
Obtaining analytic overlap     ... done (      0.0 sec)
Final contraction and storage  ... done (      0.1 sec)

Time for X-Grid setup             =   30.075 sec
--------------
SCF ITERATIONS
--------------
ITER       Energy         Delta-E        Max-DP      RMS-DP      [F,P]     Damp
               ***  Starting incremental Fock matrix formation  ***
  0  -6984.2344853515   0.000000000000 0.07773280  0.00083124  0.2374004 0.7000
  1  -6985.0609873564  -0.826502004849 0.04401117  0.00058116  0.0954546 0.7000
                               ***Turning on DIIS***
  2  -6985.4084695377  -0.347482181352 0.07956664  0.00101784  0.0419354 0.0000
  3  -6985.9591664433  -0.550696905619 0.05302382  0.00046133  0.0490190 0.0000
  4  -6986.0760347120  -0.116868268680 0.01826744  0.00012890  0.0240002 0.0000
  5  -6986.0827521322  -0.006717420196 0.00828029  0.00004992  0.0121250 0.0000
                      *** Initiating the SOSCF procedure ***
                           *** Shutting down DIIS ***
                      *** Re-Reading the Fockian *** 
                      *** Removing any level shift *** 
ITER      Energy       Delta-E        Grad      Rot      Max-DP    RMS-DP
  6  -6986.08404986  -0.0012977311  0.002493  0.002493  0.003210  0.000028
               *** Restarting incremental Fock matrix formation ***
  7  -6986.08419947  -0.0001496041  0.001730  0.011018  0.002016  0.000026
  8  -6986.08438859  -0.0001891205  0.000600  0.012030  0.002949  0.000033
  9  -6986.08440170  -0.0000131157  0.000862  0.004218  0.001494  0.000012
 10  -6986.08445286  -0.0000511553  0.000218  0.001596  0.000735  0.000006
 11  -6986.08445103   0.0000018249  0.000196  0.001185  0.000446  0.000004
 12  -6986.08445701  -0.0000059720  0.000020  0.000134  0.000107  0.000001
 13  -6986.08445684   0.0000001640  0.000022  0.000055  0.000069  0.000001
 14  -6986.08445712  -0.0000002739  0.000006  0.000028  0.000031  0.000000
 15  -6986.08445706   0.0000000575  0.000007  0.000015  0.000017  0.000000
                  ***Gradient check signals convergence***
              ***Rediagonalizing the Fockian in SOSCF/NRSCF***

               *****************************************************
               *                     SUCCESS                       *
               *           SCF CONVERGED AFTER  16 CYCLES          *
               *****************************************************

Setting up the final grid:

General Integration Accuracy     IntAcc      ...  5.010
Radial Grid Type                 RadialGrid  ... Gauss-Chebyshev
Angular Grid (max. acc.)         AngularGrid ... Lebedev-434
Angular grid pruning method      GridPruning ... 3 (G Style)
Weight generation scheme         WeightScheme... Becke
Basis function cutoff            BFCut       ...    1.0000e-11
Integration weight cutoff        WCut        ...    1.0000e-14
Grids for H and He will be reduced by one unit

[...]
   1.760   1.423   2.131   3.873   2.139   3.873   1.970   2.116   1.224   2.956
   1.246   2.977   2.138   2.033   1.812   4.278   2.574   2.367   2.690   2.989
   2.671   2.968   2.099   3.583   2.118   2.394   2.108   2.120   2.420   2.260
   3.627   2.072   2.076   2.645   2.407   2.698   2.993   2.675   2.975   2.896
   2.907   2.390   2.693   2.985   2.692   2.992   2.363   2.683   2.982   2.694
   2.988   0.467   0.547   0.578   0.555   0.470   0.543   0.567   0.534   0.663
   0.619   0.569   0.664   0.632   0.662   0.678   0.671   0.659   0.631   0.659
   0.676   0.665   0.475   0.450   0.666   0.622   0.579   0.669   0.628   0.662
   0.679   0.670   0.663   0.627   0.656   0.678   0.670   0.619   0.629   0.623
   0.623   0.569   0.661   0.640   0.667   0.678   0.671   0.657   0.641   0.670
   0.679   0.671   0.564   0.660   0.633   0.666   0.677   0.669   0.658   0.634
   0.664   0.674   0.668

Number of electrons in sTDA:  240.000

ax(DF)   :  0.3800
s^k      :  2.0000
beta  (J):  1.8600
alpha (K):  0.9000

hardness table read
setting up gammas ...
computing q(ij,n)
memory needed for q data:            20.0 MB 
memory available for q data:       2470.3 MB 

CSF included by energy:           25 
CSF considered in PT2:         12095 

ordered frontier orbitals
           eV         # centers 
 109      -9.417      11.0
 110      -9.258       9.8
 111      -8.971       5.3
 112      -8.854       6.1
 113      -8.848      16.0
 114      -8.829      13.5
 115      -8.675      17.3
 116      -8.561      20.6
 117      -8.304      26.9
 118      -7.632      19.7
 119      -6.756      17.8

 120      -2.653      26.1
 121      -2.490      22.5
 122      -1.866      16.0
 123      -1.724      16.4
 124      -1.091      25.1
 125      -0.370      25.8
 126      -0.143      25.9
 127       0.482      32.3
 128       0.652      37.8
 129       0.873       8.9
 130       1.025      15.3

           eV        nm       excitation i->a                     eV 
   0      2.47     501.4   119 -> 120      gap,J,K:    4.103     1.858     0.114
   1      2.78     446.4   119 -> 121      gap,J,K:    4.266     1.748     0.130
   2      3.48     355.9   119 -> 122      gap,J,K:    4.889     1.547     0.070
   3      3.50     353.8   118 -> 120      gap,J,K:    4.979     1.894     0.210
   4      3.55     348.9   119 -> 123      gap,J,K:    5.032     1.650     0.086
   5      3.67     337.9   118 -> 121      gap,J,K:    5.142     1.854     0.191
   6      4.08     304.0   119 -> 124      gap,J,K:    5.665     2.220     0.317
   7      4.21     294.4   117 -> 120      gap,J,K:    5.651     1.875     0.217
   8      4.22     293.9   118 -> 122      gap,J,K:    5.766     1.824     0.138
   9      4.39     282.3   117 -> 121      gap,J,K:    5.814     1.837     0.208
  10      4.49     275.9   118 -> 123      gap,J,K:    5.908     1.647     0.116
  11      4.49     275.9   116 -> 120      gap,J,K:    5.908     1.766     0.176
  12      4.60     269.6   114 -> 120      gap,J,K:    6.176     1.786     0.104
  13      4.63     268.1   113 -> 120      gap,J,K:    6.195     1.797     0.114
  14      4.64     267.4   115 -> 120      gap,J,K:    6.022     1.669     0.142
  15      4.68     264.7   111 -> 120      gap,J,K:    6.318     1.790     0.078
  16      4.69     264.5   112 -> 120      gap,J,K:    6.201     1.835     0.160
  17      4.71     263.5   116 -> 121      gap,J,K:    6.071     1.750     0.192
  18      4.77     259.8   115 -> 121      gap,J,K:    6.185     1.746     0.167
  19      4.79     258.6   114 -> 121      gap,J,K:    6.339     1.666     0.060
  20      4.82     257.2   113 -> 121      gap,J,K:    6.358     1.689     0.076
  21      4.84     256.4   112 -> 121      gap,J,K:    6.365     1.808     0.139
  22      4.89     253.8   118 -> 124      gap,J,K:    6.541     1.921     0.133
  23      4.89     253.7   111 -> 121      gap,J,K:    6.481     1.640     0.023
  24      4.94     250.9   119 -> 125      gap,J,K:    6.386     1.727     0.142

average / max PT2 energy lowering (eV):       0.058       0.134

CSF included by PT:                   159 
total number of CSF included:         184 
 
sTD-DFT procedure...
setting up A+B and A-B matrices...  done
estimated time (min):    0.000
calculating (A-B)^0.5 ... done
calculating (A+B)*(A-B)^0.5 ... done
calculating (A-B)^0.5 *(A+B)*(A-B)^0.5 ... done
diagonalizing ...using LAPACKE_ssyevr ...done

   32 roots found, lowest/highest eigenvalue :     2.205     4.918

excitation energies, transition moments and amplitudes

molecular weight: 1220.070
state   eV        nm        fL         fV        Rl        RV
   0   2.205     562.2   1.523631   1.695075  767.871073  833.670272     0.82 ( 119-> 120)    0.09 ( 118-> 121)    0.05 ( 119-> 121)
   1   2.524     491.2   0.373194   0.395141  -832.139572  -882.198106     0.76 ( 119-> 121)    0.13 ( 118-> 120)    0.05 ( 119-> 120)
   2   3.132     395.9   0.332738   0.323759  30.879402  34.628897     0.61 ( 119-> 122)    0.09 ( 118-> 122)    0.08 ( 118-> 123)
   3   3.223     384.7   0.064278   0.062326  12.459346  10.131668     0.60 ( 119-> 123)    0.09 ( 118-> 122)    0.09 ( 118-> 120)
   4   3.321     373.4   0.061592   0.059926  -487.990685  -479.732096     0.59 ( 118-> 120)    0.12 ( 117-> 121)    0.10 ( 119-> 121)
   5   3.475     356.8   0.257876   0.274461  434.750891  444.859050     0.51 ( 118-> 121)    0.26 ( 117-> 120)    0.09 ( 119-> 120)
   6   3.703     334.8   0.345406   0.321195  142.542433  141.351638     0.28 ( 116-> 120)    0.22 ( 116-> 121)    0.12 ( 119-> 124)
   7   3.752     330.4   0.113759   0.111291  -83.249238  -84.691833     0.66 ( 119-> 124)    0.05 ( 116-> 120)    0.03 ( 117-> 120)
   8   3.855     321.6   0.070918   0.061278  -9.309928  -14.117435     0.16 ( 115-> 120)    0.15 ( 115-> 121)    0.06 ( 108-> 120)
   9   3.903     317.7   0.073858   0.068377  -129.426401  -122.361878     0.14 ( 112-> 120)    0.10 ( 114-> 121)    0.10 ( 113-> 121)
  10   3.908     317.3   0.083239   0.072834  117.643580  122.798361     0.13 ( 112-> 121)    0.11 ( 113-> 120)    0.10 ( 114-> 120)
  11   4.004     309.6   0.036230   0.032345  16.065728  10.792319     0.32 ( 110-> 120)    0.25 ( 110-> 121)    0.08 ( 109-> 120)
  12   4.072     304.5   0.044918   0.038620  -62.767951  -63.298925     0.23 ( 108-> 122)    0.11 ( 109-> 122)    0.09 ( 112-> 120)
  13   4.082     303.7   0.105785   0.098354  125.647383  120.239829     0.33 ( 110-> 123)    0.12 ( 109-> 123)    0.09 ( 108-> 123)
  14   4.118     301.1   0.052095   0.049701  -29.223811  -25.347407     0.27 ( 118-> 122)    0.10 ( 112-> 120)    0.07 ( 117-> 121)
  15   4.165     297.7   0.041395   0.030617  27.766313  16.302830     0.12 ( 112-> 120)    0.10 ( 108-> 120)    0.09 ( 108-> 122)
  16   4.231     293.0   0.085091   0.079729  -33.561194  -33.140340     0.39 ( 117-> 120)    0.13 ( 118-> 121)    0.06 ( 119-> 124)
  17   4.290     289.0   0.200208   0.181840  30.073924  24.973733     0.31 ( 118-> 123)    0.11 ( 117-> 121)    0.07 ( 117-> 122)
  18   4.350     285.0   0.029740   0.021988  -77.741237  -66.908561     0.29 ( 113-> 120)    0.25 ( 114-> 120)    0.14 ( 111-> 121)
  19   4.405     281.5   0.035568   0.027698  -39.592748  -36.909757     0.45 ( 111-> 120)    0.13 ( 114-> 121)    0.07 ( 113-> 121)
  20   4.426     280.2   0.026921   0.023965  61.925245  49.452115     0.20 ( 117-> 121)    0.12 ( 114-> 120)    0.08 ( 118-> 123)
  21   4.527     273.8   0.557155   0.467437  599.893825  534.156699     0.27 ( 115-> 122)    0.10 ( 107-> 120)    0.08 ( 106-> 121)
  22   4.547     272.7   0.256394   0.217757  -504.771168  -456.262335     0.17 ( 107-> 121)    0.11 ( 107-> 120)    0.08 ( 116-> 123)
  23   4.589     270.2   0.071120   0.062299  187.204878  177.469703     0.33 ( 118-> 124)    0.31 ( 119-> 125)    0.06 ( 116-> 123)
  24   4.714     263.0   0.218179   0.169620  184.806968  149.302771     0.18 ( 115-> 122)    0.11 ( 107-> 120)    0.08 ( 106-> 121)
  25   4.719     262.8   0.260229   0.205618  -414.205083  -389.155850     0.21 ( 116-> 123)    0.19 ( 118-> 124)    0.11 ( 117-> 123)
  26   4.769     260.0   0.056966   0.044011  -268.445051  -235.902261     0.41 ( 119-> 125)    0.18 ( 118-> 124)    0.04 ( 115-> 123)
  27   4.788     259.0   0.023379   0.018498  17.019679  14.900887     0.23 ( 114-> 121)    0.19 ( 113-> 121)    0.17 ( 111-> 121)
  28   4.795     258.6   0.016590   0.012196  -5.845353  -7.344696     0.63 ( 112-> 122)    0.10 ( 113-> 122)    0.05 ( 112-> 123)
  29   4.854     255.4   0.048214   0.036488  18.104499  13.422653     0.41 ( 111-> 121)    0.11 ( 119-> 126)    0.06 ( 111-> 120)
  30   4.899     253.1   0.030725   0.023662  -65.399150  -61.398670     0.17 ( 119-> 126)    0.15 ( 113-> 123)    0.14 ( 114-> 123)
  31   4.918     252.1   0.125324   0.094630  258.518709  223.924783     0.28 ( 119-> 126)    0.07 ( 113-> 121)    0.06 ( 114-> 123)

-----------------------------------------------------------------------------
         ABSORPTION SPECTRUM VIA TRANSITION ELECTRIC DIPOLE MOMENTS
-----------------------------------------------------------------------------
State   Energy  Wavelength   fosc         T2         TX        TY        TZ  
        (cm-1)    (nm)                  (au**2)     (au)      (au)      (au) 
-----------------------------------------------------------------------------
   0   17785.9    562.2   1.523630691  28.20195  -2.59005  -3.84242   2.59411
   1   20358.9    491.2   0.373194288   6.03471  -0.36742  -1.23014   2.09439
   2   25260.1    395.9   0.332738137   4.33653   1.84563   0.27385  -0.92476
   3   25994.6    384.7   0.064277517   0.81405  -0.73365  -0.24539   0.46431
   4   26782.7    373.4   0.061591896   0.75709  -0.22230   0.07864  -0.83755
   5   28025.1    356.8   0.257876123   3.02928   0.30802  -1.62943   0.52853
   6   29864.9    334.8   0.345406382   3.80754  -1.33598  -0.53614   1.31729
   7   30264.0    330.4   0.113759168   1.23747   1.05876   0.08358  -0.33092
   8   31093.9    321.6   0.070918299   0.75086   0.70187   0.35015  -0.36829
   9   31479.0    317.7   0.073857559   0.77241   0.26033   0.76782  -0.33925
  10   31516.9    317.3   0.083239341   0.86948  -0.74842   0.51672  -0.20578
  11   32294.6    309.6   0.036230137   0.36933  -0.15286  -0.37506   0.45310
  12   32845.1    304.5   0.044917822   0.45022   0.66446   0.01766  -0.09162
  13   32924.7    303.7   0.105785162   1.05774   0.61546   0.07816  -0.82027
  14   33215.1    301.1   0.052094517   0.51633   0.37015   0.52371  -0.32411
  15   33590.0    297.7   0.041395255   0.40571   0.57794  -0.01269  -0.26745
  16   34127.9    293.0   0.085091035   0.82082   0.64604  -0.63517   0.00483
  17   34598.4    289.0   0.200207636   1.90502  -0.89918  -0.69876   0.77989
  18   35085.6    285.0   0.029739819   0.27905   0.26651  -0.09676   0.44571
  19   35528.7    281.5   0.035567848   0.32957  -0.27666  -0.47474   0.16629
  20   35694.9    280.2   0.026921168   0.24829  -0.00826   0.36307  -0.34118
  21   36516.6    273.8   0.557155158   5.02298   2.12281   0.05712  -0.71651
  22   36677.0    272.7   0.256394312   2.30139   0.16708  -0.82096   1.26471
  23   37009.4    270.2   0.071119512   0.63263   0.79042   0.02243  -0.08584
  24   38023.1    263.0   0.218179011   1.88904   1.08119  -0.83386   0.15729
  25   38058.6    262.8   0.260229311   2.25102   0.59015   0.30038  -1.34629
  26   38461.4    260.0   0.056965981   0.48760   0.48056  -0.30476   0.40470
  27   38617.2    259.0   0.023379475   0.19931  -0.24328   0.32865   0.17920
  28   38671.8    258.6   0.016590130   0.14123  -0.10066   0.34275  -0.11671
  29   39152.0    255.4   0.048213516   0.40541  -0.36268   0.41662  -0.31670
  30   39516.1    253.1   0.030725044   0.25597   0.41143  -0.25867  -0.14066
  31   39663.4    252.1   0.125324424   1.04021  -0.55278   0.85705  -0.01026

-----------------------------------------------------------------------------
         ABSORPTION SPECTRUM VIA TRANSITION VELOCITY DIPOLE MOMENTS
-----------------------------------------------------------------------------
State   Energy  Wavelength   fosc         P2         PX        PY        PZ  
        (cm-1)    (nm)                  (au**2)     (au)      (au)      (au) 
-----------------------------------------------------------------------------
   0   17785.9    562.2   1.695075222   0.20605  -0.21756  -0.33299   0.21871
   1   20358.9    491.2   0.395141157   0.05498  -0.03093  -0.11671   0.20100
   2   25260.1    395.9   0.323759444   0.05589   0.21175   0.02493  -0.10214
   3   25994.6    384.7   0.062325754   0.01107  -0.08509  -0.02756   0.05543
   4   26782.7    373.4   0.059926454   0.01097  -0.02862   0.01020  -0.10023
   5   28025.1    356.8   0.274461016   0.05257   0.04487  -0.21380   0.06960
   6   29864.9    334.8   0.321194678   0.06556  -0.17733  -0.06699   0.17212
   7   30264.0    330.4   0.111291124   0.02302   0.14583   0.00763  -0.04116
   8   31093.9    321.6   0.061277994   0.01302   0.09211   0.04793  -0.04733
   9   31479.0    317.7   0.068377375   0.01471   0.04106   0.10459  -0.04568
  10   31516.9    317.3   0.072833924   0.01569  -0.09997   0.07156  -0.02394
  11   32294.6    309.6   0.032344949   0.00714  -0.01760  -0.05400   0.06256
  12   32845.1    304.5   0.038620311   0.00867   0.09268   0.00067  -0.00894
  13   32924.7    303.7   0.098354415   0.02213   0.08935   0.01333  -0.11820
  14   33215.1    301.1   0.049701354   0.01128   0.05741   0.07533  -0.04807
  15   33590.0    297.7   0.030616732   0.00703   0.07719   0.00035  -0.03272
  16   34127.9    293.0   0.079729122   0.01860   0.09899  -0.09380   0.00002
  17   34598.4    289.0   0.181839663   0.04300  -0.13316  -0.10669   0.11784
  18   35085.6    285.0   0.021988451   0.00527   0.03700  -0.01316   0.06108
  19   35528.7    281.5   0.027698344   0.00673  -0.03782  -0.06927   0.02228
  20   35694.9    280.2   0.023964730   0.00585   0.00306   0.05702  -0.05085
  21   36516.6    273.8   0.467436585   0.11666   0.32313   0.01179  -0.11004
  22   36677.0    272.7   0.217757120   0.05458   0.02226  -0.12673   0.19501
  23   37009.4    270.2   0.062299490   0.01576   0.12483   0.00146  -0.01319
  24   38023.1    263.0   0.169620049   0.04408   0.16707  -0.12489   0.02384
  25   38058.6    262.8   0.205618210   0.05348   0.08303   0.05116  -0.20969
  26   38461.4    260.0   0.044010831   0.01157   0.07626  -0.04566   0.06057
  27   38617.2    259.0   0.018498284   0.00488  -0.03733   0.05246   0.02714
  28   38671.8    258.6   0.012195888   0.00322  -0.01526   0.05125  -0.01908
  29   39152.0    255.4   0.036488011   0.00976  -0.05451   0.06473  -0.05101
  30   39516.1    253.1   0.023662441   0.00639   0.06448  -0.04087  -0.02372
  31   39663.4    252.1   0.094630446   0.02565  -0.08103   0.13803  -0.00584

-------------------------------------------------------------------
                             CD SPECTRUM
-------------------------------------------------------------------
State   Energy Wavelength       R         MX        MY        MZ   
        (cm-1)   (nm)       (1e40*cgs)   (au)      (au)      (au)  
-------------------------------------------------------------------
   0   17785.9    562.2    767.87107   0.10173   1.33359   0.82117
   1   20358.9    491.2    -832.13957   1.12364   2.59341   3.40591
   2   25260.1    395.9     30.87940   0.19850   0.75412   0.76114
   3   25994.6    384.7     12.45935   0.32610   0.23234   0.52422
   4   26782.7    373.4    -487.99069  -0.91945  -1.57468  -2.37554
   5   28025.1    356.8    434.75089   0.16259   1.55284   1.20300
   6   29864.9    334.8    142.54243   0.65173  -0.25493   0.09817
   7   30264.0    330.4    -83.24924   0.33407  -0.32166  -0.07962
   8   31093.9    321.6     -9.30993   0.05221   1.12764   1.06438
   9   31479.0    317.7    -129.42640  -0.14316   1.14949   0.87330
  10   31516.9    317.3    117.64358   0.00336  -1.46006  -1.25313
  11   32294.6    309.6     16.06573   0.47762  -0.44845  -0.36050
  12   32845.1    304.5    -62.76795   0.55894   1.29013   1.39584
  13   32924.7    303.7    125.64738  -1.26455   0.54219  -0.24732
  14   33215.1    301.1    -29.22381  -0.16205   0.72740   0.60780
  15   33590.0    297.7     27.76631   0.38982   0.68364   1.25035
  16   34127.9    293.0    -33.56119   0.25491   0.03597   0.11212
  17   34598.4    289.0     30.07392   0.73582  -0.52844   0.21130
  18   35085.6    285.0    -77.74124   0.19475   0.92664   0.82466
  19   35528.7    281.5    -39.59275  -0.09700  -0.48925  -0.54809
  20   35694.9    280.2     61.92524   0.67793   0.73443   1.53513
  21   36516.6    273.8    599.89383   0.36669   4.92369   5.03076
  22   36677.0    272.7    -504.77117   1.86132   1.46647   2.39921
  23   37009.4    270.2    187.20488  -1.06984   0.66165  -0.42650
  24   38023.1    263.0    184.80697   1.24893   3.38560   4.37921
  25   38058.6    262.8    -414.20508  -1.96580  -1.11424  -2.41552
  26   38461.4    260.0    -268.44505   1.16160   2.04210   2.97244
  27   38617.2    259.0     17.01968  -0.02704  -0.07503  -0.30202
  28   38671.8    258.6     -5.84535  -0.63774  -0.45916  -1.01084
  29   39152.0    255.4     18.10450  -0.22424  -1.30510  -1.21757
  30   39516.1    253.1    -65.39915  -0.67439  -1.16689  -1.79912
  31   39663.4    252.1    258.51871   0.50243  -0.95825  -0.22304

sTD-DFT done

Total run time:        7.527 sec

           *** ORCA-CIS/TD-DFT FINISHED WITHOUT ERROR ***

-------------------------   --------------------
FINAL SINGLE POINT ENERGY     -6986.081113082906
-------------------------   --------------------


                            ***************************************
                            *     ORCA property calculations      *
                            ***************************************

                                    ---------------------
                                    Active property flags
                                    ---------------------
   (+) Dipole Moment


------------------------------------------------------------------------------
                       ORCA ELECTRIC PROPERTIES CALCULATION
------------------------------------------------------------------------------

Dipole Moment Calculation                       ... on
Quadrupole Moment Calculation                   ... off
Polarizability Calculation                      ... off
GBWName                                         ... DTG-IW.gbw
Electron density file                           ... DTG-IW.scfp
The origin for moment calculation is the CENTER OF MASS  = ( 8.303268,  3.152656 -4.909063)

-------------
DIPOLE MOMENT
-------------
                                X             Y             Z
Electronic contribution:    -45.14704     -31.56792     -34.09720
Nuclear contribution   :     47.00991      31.42162      36.55554
                        -----------------------------------------
Total Dipole Moment    :      1.86287      -0.14630       2.45834
                        -----------------------------------------
Magnitude (a.u.)       :      3.08790
Magnitude (Debye)      :      7.84882



--------------------
Rotational spectrum 
--------------------
 
Rotational constants in cm-1:     0.001148     0.000228     0.000207 
Rotational constants in MHz :    34.405236     6.837300     6.217418 

 Dipole components along the rotational axes: 
x,y,z [a.u.] :    -0.411022    -2.135419     2.192300 
x,y,z [Debye]:    -1.044735    -5.427803     5.572385 

 

Timings for individual modules:

Sum of individual times         ...     5787.851 sec (=  96.464 min)
GTO integral calculation        ...        4.550 sec (=   0.076 min)   0.1 %
SCF iterations                  ...     5775.670 sec (=  96.261 min)  99.8 %
CIS module                      ...        7.631 sec (=   0.127 min)   0.1 %
                             ****ORCA TERMINATED NORMALLY****
TOTAL RUN TIME: 0 days 1 hours 36 minutes 28 seconds 597 msec
