
                                 *****************
                                 * O   R   C   A *
                                 *****************

           --- An Ab Initio, DFT and Semiempirical electronic structure package ---

                  #######################################################
                  #                        -***-                        #
                  #          Department of theory and spectroscopy      #
                  #               Directorship: Frank Neese             #
                  #        Max Planck Institute fuer Kohlenforschung    #
                  #                Kaiser Wilhelm Platz 1               #
                  #                 D-45470 Muelheim/Ruhr               #
                  #                      Germany                        #
                  #                                                     #
                  #                  All rights reserved                #
                  #                        -***-                        #
                  #######################################################


                         Program Version 4.2.0 -  RELEASE  -


 With contributions from (in alphabetic order):
   Daniel Aravena         : Magnetic Suceptibility
   Michael Atanasov       : Ab Initio Ligand Field Theory (pilot matlab implementation)
   Alexander A. Auer      : GIAO ZORA, VPT2
   Ute Becker             : Parallelization
   Giovanni Bistoni       : ED, misc. LED, open-shell LED, HFLED
   Martin Brehm           : Molecular dynamics
   Dmytro Bykov           : SCF Hessian
   Vijay G. Chilkuri      : MRCI spin determinant printing, contributions to CSF-ICE
   Dipayan Datta          : RHF DLPNO-CCSD density
   Achintya Kumar Dutta   : EOM-CC, STEOM-CC
   Dmitry Ganyushin       : Spin-Orbit,Spin-Spin,Magnetic field MRCI
   Miquel Garcia          : C-PCM Hessian, Gaussian charge scheme
   Yang Guo               : DLPNO-NEVPT2, CIM, IAO-localization
   Andreas Hansen         : Spin unrestricted coupled pair/coupled cluster methods
   Benjamin Helmich-Paris : CASSCF linear response (MC-RPA)
   Lee Huntington         : MR-EOM, pCC
   Robert Izsak           : Overlap fitted RIJCOSX, COSX-SCS-MP3, EOM
   Christian Kollmar      : KDIIS, OOCD, Brueckner-CCSD(T), CCSD density
   Simone Kossmann        : Meta GGA functionals, TD-DFT gradient, OOMP2, MP2 Hessian
   Martin Krupicka        : AUTO-CI
   Lucas Lang             : DCDCAS
   Dagmar Lenk            : GEPOL surface, SMD
   Dimitrios Liakos       : Extrapolation schemes; Compound Job, initial MDCI parallelization
   Dimitrios Manganas     : Further ROCIS development; embedding schemes
   Dimitrios Pantazis     : SARC Basis sets
   Taras Petrenko         : DFT Hessian,TD-DFT gradient, ASA, ECA, R-Raman, ABS, FL, XAS/XES, NRVS
   Peter Pinski           : DLPNO-MP2, DLPNO-MP2 Gradient
   Christoph Reimann      : Effective Core Potentials
   Marius Retegan         : Local ZFS, SOC
   Christoph Riplinger    : Optimizer, TS searches, QM/MM, DLPNO-CCSD(T), (RO)-DLPNO pert. Triples
   Tobias Risthaus        : Range-separated hybrids, TD-DFT gradient, RPA, STAB
   Michael Roemelt        : Original ROCIS implementation
   Masaaki Saitow         : Open-shell DLPNO-CCSD energy and density
   Barbara Sandhoefer     : DKH picture change effects
   Avijit Sen             : IP-ROCIS
   Kantharuban Sivalingam : CASSCF convergence, NEVPT2, FIC-MRCI
   Bernardo de Souza      : ESD, SOC TD-DFT
   Georgi Stoychev        : AutoAux, RI-MP2 NMR
   Willem Van den Heuvel  : Paramagnetic NMR
   Boris Wezisla          : Elementary symmetry handling
   Frank Wennmohs         : Technical directorship


 We gratefully acknowledge several colleagues who have allowed us to
 interface, adapt or use parts of their codes:
   Stefan Grimme, W. Hujo, H. Kruse,             : VdW corrections, initial TS optimization,
                  C. Bannwarth                     DFT functionals, gCP, sTDA/sTD-DF
   Ed Valeev, F. Pavosevic, A. Kumar             : LibInt (2-el integral package), F12 methods
   Garnet Chan, S. Sharma, J. Yang, R. Olivares  : DMRG
   Ulf Ekstrom                                   : XCFun DFT Library
   Mihaly Kallay                                 : mrcc  (arbitrary order and MRCC methods)
   Andreas Klamt, Michael Diedenhofen            : otool_cosmo (COSMO solvation model)
   Jiri Pittner, Ondrej Demel                    : Mk-CCSD
   Frank Weinhold                                : gennbo (NPA and NBO analysis)
   Christopher J. Cramer and Donald G. Truhlar   : smd solvation model
   Lars Goerigk                                  : TD-DFT with DH, B97 family of functionals
   V. Asgeirsson, H. Jonsson                     : NEB implementation
   FAccTs GmbH                                   : IRC, NEB, NEB-TS, Multilevel, MM, QM/MM, CI optimization
   S Lehtola, MJT Oliveira, MAL Marques          : LibXC Library


 Your calculation uses the libint2 library for the computation of 2-el integrals
 For citations please refer to: http://libint.valeyev.net

 Your ORCA version has been built with support for libXC version: 4.2.3
 For citations please refer to: https://tddft.org/programs/libxc/

 This ORCA versions uses:
   CBLAS   interface :  Fast vector & matrix operations
   LAPACKE interface :  Fast linear algebra routines
   SCALAPACK package :  Parallel linear algebra routines


XCFun DFT library Copyright 2009-2010 Ulf Ekstrom and contributors.
See http://admol.org/xcfun for more information. This is free soft-
ware; see the source code for copying conditions. There is ABSOLUTELY
NO WARRANTY; not even for MERCHANTABILITY or FITNESS FOR A PARTICULAR
PURPOSE. For details see the documentation. Scientific users of this 
library should cite U. Ekstrom, L. Visscher, R. Bast, A. J. Thorvald-
sen and K. Ruud; J.Chem.Theor.Comp. 2010, DOI: 10.1021/ct100117s
XCFun Version 0.99 
----- Orbital basis set information -----
Your calculation utilizes the basis: def2-SVP
   F. Weigend and R. Ahlrichs, Phys. Chem. Chem. Phys. 7, 3297 (2005).

----- AuxJ basis set information -----
Your calculation utilizes the auxiliary basis: def2/J
   F. Weigend, Phys. Chem. Chem. Phys. 8, 1057 (2006).

================================================================================
                                        WARNINGS
                       Please study these warnings very carefully!
================================================================================

INFO   : Checking CIS options ...

WARNING: CIS/ROCIS methods need fully converged wavefunctions
  ===> : Setting SCFConvForced true
         You can overwrite this default with %scf ConvForced false 


INFO   : the flag for use of LIBINT has been found!

================================================================================
                                       INPUT FILE
================================================================================
NAME = F-2F.inp
|  1> # ORCA input file
|  2> # F-2F.out
|  3> ! CAM-B3LYP def2-SVP def2/J RIJCOSX Grid4 TightSCF
|  4> %maxcore 5000
|  5> %tddft
|  6>     Mode sTDDFT
|  7>     Ethresh 5.0
|  8>     maxcore 5000
|  9> end
| 10> * xyz 0 1
| 11>    C        3.26108        -0.86534         1.50009
| 12>    O        3.48750         0.29369         1.20413
| 13>    C        1.98805        -1.39197         2.03768
| 14>    C        0.82389        -0.70374         2.31350
| 15>    C       -0.24448        -1.42661         2.81966
| 16>    F       -1.39358        -0.80080         3.10334
| 17>    C       -0.13334        -2.79976         3.03675
| 18>    F       -1.18059        -3.47341         3.52631
| 19>    C        1.03751        -3.49026         2.75896
| 20>    C        2.11105        -2.77447         2.25328
| 21>    C        3.46128        -3.19273         1.86908
| 22>    C        3.94193        -4.47353         1.96340
| 23>    C        5.24160        -4.89800         1.61594
| 24>    N        6.27619        -5.32865         1.36171
| 25>    C        3.18809        -5.56866         2.43680
| 26>    N        2.63392        -6.50099         2.81244
| 27>    C        4.16233        -2.01457         1.40295
| 28>    C       16.07039        14.33566        -1.38539
| 29>    O       15.38483        15.12025        -0.77203
| 30>    C       17.52165        14.43174        -1.67028
| 31>    C       18.42372        15.38543        -1.24334
| 32>    C       19.74931        15.23038        -1.61776
| 33>    F       20.65926        16.12830        -1.22092
| 34>    C       20.14661        14.14573        -2.39965
| 35>    F       21.43554        14.01335        -2.73284
| 36>    C       19.23849        13.19316        -2.83874
| 37>    C       17.91261        13.34214        -2.46743
| 38>    C       16.72772        12.53849        -2.77894
| 39>    C       16.63274        11.65959        -3.82885
| 40>    C       15.41669        11.10791        -4.27804
| 41>    N       14.44924        10.64951        -4.69252
| 42>    C       17.72472        11.26000        -4.62492
| 43>    N       18.58346        10.87310        -5.28117
| 44>    C       15.64710        13.03783        -1.96647
| 45>    C        8.07253         2.38295        -0.37663
| 46>    C        9.40594         2.02160        -0.67637
| 47>    C       10.34577         2.99057        -0.93960
| 48>    C        9.94033         4.32078        -0.86915
| 49>    C        8.61240         4.68038        -0.56035
| 50>    C        7.65817         3.71237        -0.33833
| 51>    C        8.46460         6.18433        -0.53566
| 52>    C        7.40052         6.67537        -1.52951
| 53>    C        7.71608         6.27065        -2.96496
| 54>    C        8.20101         6.72008         0.89238
| 55>    C        6.91938         6.24372         1.56269
| 56>    C        9.85623         6.63384        -0.92451
| 57>    C       10.70772         5.52596        -1.08953
| 58>    C       12.05754         5.67524        -1.39754
| 59>    C       12.54863         6.95368        -1.53685
| 60>    C       11.69264         8.06341        -1.33893
| 61>    C       10.33990         7.91664        -1.04398
| 62>    C        5.46067        -1.98392         0.94762
| 63>    C       14.43207        12.52450        -1.59603
| 64>    C       12.50119         9.23452        -1.43880
| 65>    C       13.83238         8.89711        -1.67930
| 66>    C       13.97266         7.40323        -1.82472
| 67>    S       12.25454        10.91648        -1.30886
| 68>    C       13.95904        11.20428        -1.63141
| 69>    C       14.65017        10.00466        -1.80349
| 70>    C        9.57780         0.51240        -0.67597
| 71>    C        8.20893         0.07237        -0.23269
| 72>    C        7.35806         1.17653        -0.10352
| 73>    C        7.58923        -1.10401         0.11893
| 74>    C        6.25229        -0.91845         0.51311
| 75>    S        5.78654         0.77587         0.42479
| 76>    C       14.37856         7.13059        -3.29112
| 77>    C       14.91982         6.77578        -0.78493
| 78>    C       10.67487         0.05434         0.29706
| 79>    C        9.87743         0.06888        -2.12587
| 80>    C       10.46108         0.58374         1.71054
| 81>    C        9.87240        -1.43712        -2.35091
| 82>    C       14.46218         5.66392        -3.69005
| 83>    C       16.37906         7.19861        -0.89116
| 84>    H        0.74332         0.35804         2.14378
| 85>    H        1.06980        -4.55095         2.94537
| 86>    H       18.11493        16.22300        -0.63854
| 87>    H       19.59314        12.37114        -3.43902
| 88>    H       11.36650         2.73681        -1.18208
| 89>    H        6.62434         3.94814        -0.14247
| 90>    H        7.33428         7.76320        -1.46450
| 91>    H        6.43196         6.26072        -1.24856
| 92>    H        8.66517         6.69397        -3.28637
| 93>    H        6.93670         6.62786        -3.63374
| 94>    H        7.77593         5.18797        -3.05410
| 95>    H        8.18634         7.81059         0.83529
| 96>    H        9.05066         6.43495         1.51882
| 97>    H        6.04522         6.47537         0.96052
| 98>    H        6.80982         6.74772         2.52054
| 99>    H        6.94933         5.17396         1.74896
|100>    H       12.69083         4.80815        -1.49842
|101>    H        9.71547         8.78585        -0.90380
|102>    H        5.98366        -2.93238         0.92516
|103>    H       13.77422        13.24738        -1.12192
|104>    H       15.71210         9.97251        -1.96340
|105>    H        8.04630        -2.07770         0.13129
|106>    H       15.34227         7.61018        -3.46912
|107>    H       13.65051         7.63199        -3.93330
|108>    H       14.85579         5.69089        -0.87638
|109>    H       14.54416         7.04079         0.20726
|110>    H       11.64139         0.39702        -0.07759
|111>    H       10.69013        -1.03557         0.32483
|112>    H       10.85190         0.47345        -2.40710
|113>    H        9.12919         0.52603        -2.77865
|114>    H       10.45909         1.67155         1.72051
|115>    H       11.25712         0.23476         2.36384
|116>    H        9.51202         0.23580         2.11211
|117>    H       10.61903        -1.93323        -1.73712
|118>    H       10.10018        -1.64705        -3.39346
|119>    H        8.89636        -1.85868        -2.12725
|120>    H       15.16717         5.12040        -3.06631
|121>    H       14.80222         5.59457        -4.72080
|122>    H       13.48810         5.18692        -3.62513
|123>    H       16.79079         6.96343        -1.86867
|124>    H       16.96351         6.66812        -0.14249
|125>    H       16.49134         8.26355        -0.70858
|126> *
|127> 
|128>                          ****END OF INPUT****
================================================================================

                       ****************************
                       * Single Point Calculation *
                       ****************************

---------------------------------
CARTESIAN COORDINATES (ANGSTROEM)
---------------------------------
  C      3.261080   -0.865340    1.500090
  O      3.487500    0.293690    1.204130
  C      1.988050   -1.391970    2.037680
  C      0.823890   -0.703740    2.313500
  C     -0.244480   -1.426610    2.819660
  F     -1.393580   -0.800800    3.103340
  C     -0.133340   -2.799760    3.036750
  F     -1.180590   -3.473410    3.526310
  C      1.037510   -3.490260    2.758960
  C      2.111050   -2.774470    2.253280
  C      3.461280   -3.192730    1.869080
  C      3.941930   -4.473530    1.963400
  C      5.241600   -4.898000    1.615940
  N      6.276190   -5.328650    1.361710
  C      3.188090   -5.568660    2.436800
  N      2.633920   -6.500990    2.812440
  C      4.162330   -2.014570    1.402950
  C     16.070390   14.335660   -1.385390
  O     15.384830   15.120250   -0.772030
  C     17.521650   14.431740   -1.670280
  C     18.423720   15.385430   -1.243340
  C     19.749310   15.230380   -1.617760
  F     20.659260   16.128300   -1.220920
  C     20.146610   14.145730   -2.399650
  F     21.435540   14.013350   -2.732840
  C     19.238490   13.193160   -2.838740
  C     17.912610   13.342140   -2.467430
  C     16.727720   12.538490   -2.778940
  C     16.632740   11.659590   -3.828850
  C     15.416690   11.107910   -4.278040
  N     14.449240   10.649510   -4.692520
  C     17.724720   11.260000   -4.624920
  N     18.583460   10.873100   -5.281170
  C     15.647100   13.037830   -1.966470
  C      8.072530    2.382950   -0.376630
  C      9.405940    2.021600   -0.676370
  C     10.345770    2.990570   -0.939600
  C      9.940330    4.320780   -0.869150
  C      8.612400    4.680380   -0.560350
  C      7.658170    3.712370   -0.338330
  C      8.464600    6.184330   -0.535660
  C      7.400520    6.675370   -1.529510
  C      7.716080    6.270650   -2.964960
  C      8.201010    6.720080    0.892380
  C      6.919380    6.243720    1.562690
  C      9.856230    6.633840   -0.924510
  C     10.707720    5.525960   -1.089530
  C     12.057540    5.675240   -1.397540
  C     12.548630    6.953680   -1.536850
  C     11.692640    8.063410   -1.338930
  C     10.339900    7.916640   -1.043980
  C      5.460670   -1.983920    0.947620
  C     14.432070   12.524500   -1.596030
  C     12.501190    9.234520   -1.438800
  C     13.832380    8.897110   -1.679300
  C     13.972660    7.403230   -1.824720
  S     12.254540   10.916480   -1.308860
  C     13.959040   11.204280   -1.631410
  C     14.650170   10.004660   -1.803490
  C      9.577800    0.512400   -0.675970
  C      8.208930    0.072370   -0.232690
  C      7.358060    1.176530   -0.103520
  C      7.589230   -1.104010    0.118930
  C      6.252290   -0.918450    0.513110
  S      5.786540    0.775870    0.424790
  C     14.378560    7.130590   -3.291120
  C     14.919820    6.775780   -0.784930
  C     10.674870    0.054340    0.297060
  C      9.877430    0.068880   -2.125870
  C     10.461080    0.583740    1.710540
  C      9.872400   -1.437120   -2.350910
  C     14.462180    5.663920   -3.690050
  C     16.379060    7.198610   -0.891160
  H      0.743320    0.358040    2.143780
  H      1.069800   -4.550950    2.945370
  H     18.114930   16.223000   -0.638540
  H     19.593140   12.371140   -3.439020
  H     11.366500    2.736810   -1.182080
  H      6.624340    3.948140   -0.142470
  H      7.334280    7.763200   -1.464500
  H      6.431960    6.260720   -1.248560
  H      8.665170    6.693970   -3.286370
  H      6.936700    6.627860   -3.633740
  H      7.775930    5.187970   -3.054100
  H      8.186340    7.810590    0.835290
  H      9.050660    6.434950    1.518820
  H      6.045220    6.475370    0.960520
  H      6.809820    6.747720    2.520540
  H      6.949330    5.173960    1.748960
  H     12.690830    4.808150   -1.498420
  H      9.715470    8.785850   -0.903800
  H      5.983660   -2.932380    0.925160
  H     13.774220   13.247380   -1.121920
  H     15.712100    9.972510   -1.963400
  H      8.046300   -2.077700    0.131290
  H     15.342270    7.610180   -3.469120
  H     13.650510    7.631990   -3.933300
  H     14.855790    5.690890   -0.876380
  H     14.544160    7.040790    0.207260
  H     11.641390    0.397020   -0.077590
  H     10.690130   -1.035570    0.324830
  H     10.851900    0.473450   -2.407100
  H      9.129190    0.526030   -2.778650
  H     10.459090    1.671550    1.720510
  H     11.257120    0.234760    2.363840
  H      9.512020    0.235800    2.112110
  H     10.619030   -1.933230   -1.737120
  H     10.100180   -1.647050   -3.393460
  H      8.896360   -1.858680   -2.127250
  H     15.167170    5.120400   -3.066310
  H     14.802220    5.594570   -4.720800
  H     13.488100    5.186920   -3.625130
  H     16.790790    6.963430   -1.868670
  H     16.963510    6.668120   -0.142490
  H     16.491340    8.263550   -0.708580

----------------------------
CARTESIAN COORDINATES (A.U.)
----------------------------
  NO LB      ZA    FRAG     MASS         X           Y           Z
   0 C     6.0000    0    12.011    6.162548   -1.635256    2.834759
   1 O     8.0000    0    15.999    6.590420    0.554994    2.275476
   2 C     6.0000    0    12.011    3.756870   -2.630442    3.850657
   3 C     6.0000    0    12.011    1.556926   -1.329876    4.371881
   4 C     6.0000    0    12.011   -0.462000   -2.695902    5.328385
   5 F     9.0000    0    18.998   -2.633485   -1.513293    5.864463
   6 C     6.0000    0    12.011   -0.251976   -5.290780    5.738626
   7 F     9.0000    0    18.998   -2.230992   -6.563794    6.663760
   8 C     6.0000    0    12.011    1.960610   -6.595636    5.213679
   9 C     6.0000    0    12.011    3.989306   -5.242988    4.258082
  10 C     6.0000    0    12.011    6.540871   -6.033385    3.532049
  11 C     6.0000    0    12.011    7.449168   -8.453747    3.710288
  12 C     6.0000    0    12.011    9.905189   -9.255879    3.053684
  13 N     7.0000    0    14.007   11.860280  -10.069689    2.573259
  14 C     6.0000    0    12.011    6.024617  -10.523242    4.604885
  15 N     7.0000    0    14.007    4.977387  -12.285091    5.314741
  16 C     6.0000    0    12.011    7.865664   -3.806986    2.651191
  17 C     6.0000    0    12.011   30.368636   27.090471   -2.618008
  18 O     8.0000    0    15.999   29.073115   28.573132   -1.458925
  19 C     6.0000    0    12.011   33.111120   27.272036   -3.156372
  20 C     6.0000    0    12.011   34.815785   29.074249   -2.349572
  21 C     6.0000    0    12.011   37.320787   28.781247   -3.057123
  22 F     9.0000    0    18.998   39.040344   30.478070   -2.307204
  23 C     6.0000    0    12.011   38.071575   26.731556   -4.534681
  24 F     9.0000    0    18.998   40.507300   26.481394   -5.164319
  25 C     6.0000    0    12.011   36.355477   24.931459   -5.364441
  26 C     6.0000    0    12.011   33.849927   25.212991   -4.662767
  27 C     6.0000    0    12.011   31.610810   23.694312   -5.251436
  28 C     6.0000    0    12.011   31.431323   22.033432   -7.235478
  29 C     6.0000    0    12.011   29.133322   20.990908   -8.084324
  30 N     7.0000    0    14.007   27.305106   20.124657   -8.867578
  31 C     6.0000    0    12.011   33.494867   21.278316   -8.739832
  32 N     7.0000    0    14.007   35.117650   20.547181   -9.979965
  33 C     6.0000    0    12.011   29.568734   24.637928   -3.716090
  34 C     6.0000    0    12.011   15.254871    4.503123   -0.711728
  35 C     6.0000    0    12.011   17.774651    3.820270   -1.278154
  36 C     6.0000    0    12.011   19.550672    5.651358   -1.775587
  37 C     6.0000    0    12.011   18.784501    8.165091   -1.642455
  38 C     6.0000    0    12.011   16.275077    8.844636   -1.058908
  39 C     6.0000    0    12.011   14.471844    7.015363   -0.639351
  40 C     6.0000    0    12.011   15.995776   11.686690   -1.012251
  41 C     6.0000    0    12.011   13.984956   12.614621   -2.890355
  42 C     6.0000    0    12.011   14.581278   11.849811   -5.602962
  43 C     6.0000    0    12.011   15.497663   12.699111    1.686354
  44 C     6.0000    0    12.011   13.075733   11.798921    2.953056
  45 C     6.0000    0    12.011   18.625575   12.536141   -1.747071
  46 C     6.0000    0    12.011   20.234658   10.442551   -2.058913
  47 C     6.0000    0    12.011   22.785448   10.724649   -2.640968
  48 C     6.0000    0    12.011   23.713474   13.140551   -2.904226
  49 C     6.0000    0    12.011   22.095887   15.237637   -2.530211
  50 C     6.0000    0    12.011   19.539579   14.960282   -1.972836
  51 C     6.0000    0    12.011   10.319171   -3.749065    1.790742
  52 C     6.0000    0    12.011   27.272660   23.667875   -3.016060
  53 C     6.0000    0    12.011   23.623825   17.450714   -2.718938
  54 C     6.0000    0    12.011   26.139410   16.813101   -3.173417
  55 C     6.0000    0    12.011   26.404501   13.990077   -3.448221
  56 S    16.0000    0    32.060   23.157724   20.629158   -2.473387
  57 C     6.0000    0    12.011   26.378763   21.173021   -3.082918
  58 C     6.0000    0    12.011   27.684809   18.906067   -3.408102
  59 C     6.0000    0    12.011   18.099419    0.968296   -1.277398
  60 C     6.0000    0    12.011   15.512630    0.136759   -0.439720
  61 C     6.0000    0    12.011   13.904718    2.223319   -0.195624
  62 C     6.0000    0    12.011   14.341566   -2.086277    0.224745
  63 C     6.0000    0    12.011   11.815116   -1.735619    0.969637
  64 S    16.0000    0    32.060   10.934976    1.466182    0.802737
  65 C     6.0000    0    12.011   27.171541   13.474862   -6.219315
  66 C     6.0000    0    12.011   28.194374   12.804369   -1.483303
  67 C     6.0000    0    12.011   20.172581    0.102688    0.561362
  68 C     6.0000    0    12.011   18.665638    0.130164   -4.017312
  69 C     6.0000    0    12.011   19.768576    1.103109    3.232452
  70 C     6.0000    0    12.011   18.656132   -2.715763   -4.442576
  71 C     6.0000    0    12.011   27.329559   10.703258   -6.973184
  72 C     6.0000    0    12.011   30.951938   13.603401   -1.684048
  73 H     1.0000    0     1.008    1.404671    0.676598    4.051157
  74 H     1.0000    0     1.008    2.021629   -8.600049    5.565943
  75 H     1.0000    0     1.008   34.232257   30.657027   -1.206666
  76 H     1.0000    0     1.008   37.025669   23.378067   -6.498806
  77 H     1.0000    0     1.008   21.479572    5.171821   -2.233807
  78 H     1.0000    0     1.008   12.518188    7.460903   -0.269229
  79 H     1.0000    0     1.008   13.859781   14.670322   -2.767504
  80 H     1.0000    0     1.008   12.154643   11.831046   -2.359436
  81 H     1.0000    0     1.008   16.374798   12.649770   -6.210339
  82 H     1.0000    0     1.008   13.108463   12.524840   -6.866773
  83 H     1.0000    0     1.008   14.694378    9.803842   -5.771413
  84 H     1.0000    0     1.008   15.469941   14.759876    1.578469
  85 H     1.0000    0     1.008   17.103269   12.160293    2.870154
  86 H     1.0000    0     1.008   11.423810   12.236676    1.815120
  87 H     1.0000    0     1.008   12.868695   12.751343    4.763130
  88 H     1.0000    0     1.008   13.132331    9.777367    3.305055
  89 H     1.0000    0     1.008   23.982193    9.086087   -2.831603
  90 H     1.0000    0     1.008   18.359578   16.602850   -1.707934
  91 H     1.0000    0     1.008   11.307479   -5.541395    1.748299
  92 H     1.0000    0     1.008   26.029504   25.033920   -2.120122
  93 H     1.0000    0     1.008   29.691566   18.845313   -3.710288
  94 H     1.0000    0     1.008   15.205303   -3.926284    0.248102
  95 H     1.0000    0     1.008   28.992689   14.381156   -6.555687
  96 H     1.0000    0     1.008   25.795725   14.422371   -7.432860
  97 H     1.0000    0     1.008   28.073375   10.754224   -1.656118
  98 H     1.0000    0     1.008   27.484479   13.305165    0.391665
  99 H     1.0000    0     1.008   21.999039    0.750259   -0.146624
 100 H     1.0000    0     1.008   20.201418   -1.956944    0.613840
 101 H     1.0000    0     1.008   20.507119    0.894691   -4.548760
 102 H     1.0000    0     1.008   17.251669    0.994053   -5.250888
 103 H     1.0000    0     1.008   19.764816    3.158772    3.251293
 104 H     1.0000    0     1.008   21.272874    0.443632    4.467010
 105 H     1.0000    0     1.008   17.975113    0.445597    3.991309
 106 H     1.0000    0     1.008   20.067059   -3.653275   -3.282681
 107 H     1.0000    0     1.008   19.086574   -3.112473   -6.412710
 108 H     1.0000    0     1.008   16.811684   -3.512396   -4.019920
 109 H     1.0000    0     1.008   28.661798    9.676154   -5.794486
 110 H     1.0000    0     1.008   27.972142   10.572205   -8.921019
 111 H     1.0000    0     1.008   25.488815    9.801858   -6.850503
 112 H     1.0000    0     1.008   31.729995   13.158976   -3.531275
 113 H     1.0000    0     1.008   32.056388   12.600921   -0.269267
 114 H     1.0000    0     1.008   31.164116   15.615846   -1.339022

--------------------------------
INTERNAL COORDINATES (ANGSTROEM)
--------------------------------
 C      0   0   0     0.000000000000     0.00000000     0.00000000
 O      1   0   0     1.217460011212     0.00000000     0.00000000
 C      1   2   0     1.478833170408   125.97892214     0.00000000
 C      3   1   2     1.380219443023   128.40044774   359.79323507
 C      4   3   1     1.385696012623   117.59250461   180.13804964
 F      5   4   3     1.338858957658   119.68832891   179.93445257
 C      5   4   3     1.394640129281   120.60020586   359.96322343
 F      7   5   4     1.337985754259   119.36050186   180.00404709
 C      7   5   4     1.387388646559   121.74329493     0.03513418
 C      9   7   5     1.385841159044   118.01758701     0.00000000
 C     10   9   7     1.464811291771   131.47384962   179.68499508
 C     11  10   9     1.371265592400   124.87286177   359.29303214
 C     12  11  10     1.410689668708   125.94677046   180.83233856
 N     13  12  11     1.149116523030   175.37062216   177.71090697
 C     12  11  10     1.411273192015   124.09981362     0.56165574
 N     15  12  11     1.147801824097   176.36665123   181.57959542
 C     11  10   9     1.448036347955   107.36018293   179.99331336
 C      2   1   3    19.031858975502   149.14172719   155.27688229
 O     18   2   1     1.209042791344    91.99876965   225.53428467
 C     18   2   1     1.482075998760   136.16913308    22.27182447
 C     20  18   2     1.380410324722   128.69894611   213.88777216
 C     21  20  18     1.386152836811   117.65245835   178.10919103
 F     22  21  20     1.338563152974   119.66847099   180.30312085
 C     22  21  20     1.394870920408   120.71551736     0.05806816
 F     24  22  21     1.337864187950   119.40341142   180.77403553
 C     24  22  21     1.387397407883   121.65877834     0.50724692
 C     26  24  22     1.384927409975   117.90015177   359.47626011
 C     27  26  24     1.465215381676   131.16261882   178.82814679
 C     28  27  26     1.372514997550   124.73771420   340.38936976
 C     29  28  27     1.408864819988   123.66741780   193.62990362
 N     30  29  28     1.147991172832   177.27682808   157.21825803
 C     29  28  27     1.409191233793   124.06184165    10.13269783
 N     32  29  28     1.147950373535   176.54961496   148.00684560
 C     28  27  26     1.441245128665   107.24464841   171.49751863
 C      2   1   3     5.280748964503   127.65417535   174.99719883
 C     35   2   1     1.413647805573   141.38086514     2.47056352
 C     36  35   2     1.375308446386   120.33545237   186.92350049
 C     37  36  35     1.392409221529   117.67214104     1.40669948
 C     38  37  36     1.409988540698   121.93511934   359.04877595
 C     39  38  37     1.377276709089   120.56860350   358.88010767
 C     39  38  37     1.511396717808   110.45415488   179.25587791
 C     41  39  38     1.536595050916   112.03311420   122.05408840
 C     42  41  39     1.524432056374   112.38610317   301.09625126
 C     41  39  38     1.547839136409   112.09522774   248.42227020
 C     44  41  39     1.522763869613   116.17881688   297.79436210
 C     41  39  38     1.513240767195   101.62225529     2.25014782
 C     46  41  39     1.407005655603   110.65763388   357.56191848
 C     47  46  41     1.392540380348   121.88023224   182.53034229
 C     48  47  46     1.376584722347   117.88780957     0.11783000
 C     49  48  47     1.415412264819   119.88344613     1.33900233
 C     46  41  39     1.376148825455   128.49384211   181.42231201
 C     17  11  10     1.376209136360   125.54696610   180.15136963
 C     34  28  27     1.370047949307   133.43695753   197.50529555
 C     50  49  48     1.426613385434   106.92193600   175.23107586
 C     54  50  49     1.394185272552   110.76652123   359.44597252
 C     55  54  50     1.507482308089   110.20134619     2.83759298
 S     54  50  49     1.704907641985   136.26324465   180.93033556
 C     53  34  28     1.402850659800   130.15302308    16.97818596
 C     55  54  50     1.382342447695   112.73445316   179.08834185
 C     36  35   2     1.518953804301   111.13949037     7.83110114
 C     60  36  35     1.504635715447   100.81944338   355.69493078
 C     61  60  36     1.399940695672   110.45494471     4.04566059
 C     61  60  36     1.375330730697   137.34026511   186.81516713
 C     52  17  11     1.396670141945   130.89250741   182.10076290
 S     62  61  60     1.705671422666   113.78445338   181.07025886
 C     56  55  54     1.545773702584   106.90187661   113.40267709
 C     56  55  54     1.540119739566   113.31765632   239.86687356
 C     60  36  35     1.536284130426   112.16095568   236.28563485
 C     60  36  35     1.545541373532   107.86724116   112.83321400
 C     68  60  36     1.524433086265   112.55532081    53.78170002
 C     69  60  36     1.522729228228   114.94930306   188.78353621
 C     66  56  55     1.522254360546   115.65620556   184.91102700
 C     67  56  55     1.522974523556   115.40751095   294.88629751
 H      4   3   1     1.078273236105   121.50553745     0.10043444
 H      9   7   5     1.077429630324   118.72559826   179.99264418
 H     21  20  18     1.078266112330   121.53307247   358.19915850
 H     26  24  22     1.077881988578   118.97962811   180.14261083
 H     37  36  35     1.079388910866   121.57288795   180.73049262
 H     40  39  38     1.078310299218   122.67436296   182.74034256
 H     42  41  39     1.091782096666   108.77838703   179.72298317
 H     42  41  39     1.090401760178   109.08327805    62.09568217
 H     43  42  41     1.087784922951   110.82510363   299.39026969
 H     43  42  41     1.087335668917   110.09445279   179.46061596
 H     43  42  41     1.087990783279   110.65430514    59.62942399
 H     44  41  39     1.092101889523   107.43846620   175.59028596
 H     44  41  39     1.093449273172   107.81704782    59.98967821
 H     45  44  41     1.086474176868   111.50017484   303.61260621
 H     45  44  41     1.087886030841   109.11168792   184.46562186
 H     45  44  41     1.086268830907   111.12164098    65.56151083
 H     48  47  46     1.078460971292   120.24524686   178.75226342
 H     51  46  41     1.079393015264   122.41540579   357.02282101
 H     52  17  11     1.083327911253   116.28314189     1.16542910
 H     53  34  28     1.086325185660   113.93712114   190.91832221
 H     59  55  54     1.074383616545   125.03914411   178.22327752
 H     63  61  60     1.075703477079   125.85324388   359.20212517
 H     66  56  55     1.091067152929   108.00940369    61.97393850
 H     66  56  55     1.092636222583   107.55667107   306.90265028
 H     67  56  55     1.090618748922   108.21274698   172.41309188
 H     67  56  55     1.093522625189   107.61215648    56.78838756
 H     68  60  36     1.091766053374   108.73874247   292.31204193
 H     68  60  36     1.090370509781   108.91469017   174.77089132
 H     69  60  36     1.091951912265   107.95667935    66.44628584
 H     69  60  36     1.093147267526   107.90837746   310.44010287
 H     70  68  60     1.087857507719   110.85571183   299.90099038
 H     70  68  60     1.087321301180   110.05798684   179.90282401
 H     70  68  60     1.087674396177   110.70810041    60.18416347
 H     71  69  60     1.086425171422   111.46070933   299.85460830
 H     71  69  60     1.087595897289   109.38267291   180.45936407
 H     71  69  60     1.086457873459   110.87278315    61.34664030
 H     72  66  56     1.086957440795   111.53218886   302.03548630
 H     72  66  56     1.087603873936   109.08533915   182.81182711
 H     72  66  56     1.086542890456   110.98188672    63.94375672
 H     73  67  56     1.086442370952   111.45500628   301.80963992
 H     73  67  56     1.087891635918   109.35159622   182.39758182
 H     73  67  56     1.086296211169   111.06872243    63.46232841

---------------------------
INTERNAL COORDINATES (A.U.)
---------------------------
 C      0   0   0     0.000000000000     0.00000000     0.00000000
 O      1   0   0     2.300666000191     0.00000000     0.00000000
 C      1   2   0     2.794589689830   125.97892214     0.00000000
 C      3   1   2     2.608236752028   128.40044774   359.79323507
 C      4   3   1     2.618585968725   117.59250461   180.13804964
 F      5   4   3     2.530076761920   119.68832891   179.93445257
 C      5   4   3     2.635487899717   120.60020586   359.96322343
 F      7   5   4     2.528426646638   119.36050186   180.00404709
 C      7   5   4     2.621784583308   121.74329493     0.03513418
 C      9   7   5     2.618860255709   118.01758701     0.00000000
 C     10   9   7     2.768092179323   131.47384962   179.68499508
 C     11  10   9     2.591316426505   124.87286177   359.29303214
 C     12  11  10     2.665817133811   125.94677046   180.83233856
 N     13  12  11     2.171515524490   175.37062216   177.71090697
 C     12  11  10     2.666919833053   124.09981362     0.56165574
 N     15  12  11     2.169031103558   176.36665123   181.57959542
 C     11  10   9     2.736392129599   107.36018293   179.99331336
 C      2   1   3    35.965001283110   149.14172719   155.27688229
 O     18   2   1     2.284759759831    91.99876965   225.53428467
 C     18   2   1     2.800717747314   136.16913308    22.27182447
 C     20  18   2     2.608597466162   128.69894611   213.88777216
 C     21  20  18     2.619449241331   117.65245835   178.10919103
 F     22  21  20     2.529517772079   119.66847099   180.30312085
 C     22  21  20     2.635924031742   120.71551736     0.05806816
 F     24  22  21     2.528196919607   119.40341142   180.77403553
 C     24  22  21     2.621801139811   121.65877834     0.50724692
 C     26  24  22     2.617133520214   117.90015177   359.47626011
 C     27  26  24     2.768855798577   131.16261882   178.82814679
 C     28  27  26     2.593677460069   124.73771420   340.38936976
 C     29  28  27     2.662368669494   123.66741780   193.62990362
 N     30  29  28     2.169388920811   177.27682808   157.21825803
 C     29  28  27     2.662985502192   124.06184165    10.13269783
 N     32  29  28     2.169311821314   176.54961496   148.00684560
 C     28  27  26     2.723558585025   107.24464841   171.49751863
 C      2   1   3     9.979169324899   127.65417535   174.99719883
 C     35   2   1     2.671407202351   141.38086514     2.47056352
 C     36  35   2     2.598956313338   120.33545237   186.92350049
 C     37  36  35     2.631272095037   117.67214104     1.40669948
 C     38  37  36     2.664492193887   121.93511934   359.04877595
 C     39  38  37     2.602675790807   120.56860350   358.88010767
 C     39  38  37     2.856125876364   110.45415488   179.25587791
 C     41  39  38     2.903743824970   112.03311420   122.05408840
 C     42  41  39     2.880759096317   112.38610317   301.09625126
 C     41  39  38     2.924992067179   112.09522774   248.42227020
 C     44  41  39     2.877606680200   116.17881688   297.79436210
 C     41  39  38     2.859610624683   101.62225529     2.25014782
 C     46  41  39     2.658855357969   110.65763388   357.56191848
 C     47  46  41     2.631519949284   121.88023224   182.53034229
 C     48  47  46     2.601368125376   117.88780957     0.11783000
 C     49  48  47     2.674741547101   119.88344613     1.33900233
 C     46  41  39     2.600544399627   128.49384211   181.42231201
 C     17  11  10     2.600658370720   125.54696610   180.15136963
 C     34  28  27     2.589015414530   133.43695753   197.50529555
 C     50  49  48     2.695908597457   106.92193600   175.23107586
 C     54  50  49     2.634628345069   110.76652123   359.44597252
 C     55  54  50     2.848728714019   110.20134619     2.83759298
 S     54  50  49     3.221808526982   136.26324465   180.93033556
 C     53  34  28     2.651003553812   130.15302308    16.97818596
 C     55  54  50     2.612248649438   112.73445316   179.08834185
 C     36  35   2     2.870406700206   111.13949037     7.83110114
 C     60  36  35     2.843349433512   100.81944338   355.69493078
 C     61  60  36     2.645504518552   110.45494471     4.04566059
 C     61  60  36     2.598998424583   137.34026511   186.81516713
 C     52  17  11     2.639324067701   130.89250741   182.10076290
 S     62  61  60     3.223251863295   113.78445338   181.07025886
 C     56  55  54     2.921088962901   106.90187661   113.40267709
 C     56  55  54     2.910404521225   113.31765632   239.86687356
 C     60  36  35     2.903156270395   112.16095568   236.28563485
 C     60  36  35     2.920649924620   107.86724116   112.83321400
 C     68  60  36     2.880761042530   112.55532081    53.78170002
 C     69  60  36     2.877541217468   114.94930306   188.78353621
 C     66  56  55     2.876643847599   115.65620556   184.91102700
 C     67  56  55     2.878004758460   115.40751095   294.88629751
 H      4   3   1     2.037641113775   121.50553745     0.10043444
 H      9   7   5     2.036046929884   118.72559826   179.99264418
 H     21  20  18     2.037627651792   121.53307247   358.19915850
 H     26  24  22     2.036901763098   118.97962811   180.14261083
 H     37  36  35     2.039749433528   121.57288795   180.73049262
 H     40  39  38     2.037711152909   122.67436296   182.74034256
 H     42  41  39     2.063169160617   108.77838703   179.72298317
 H     42  41  39     2.060560702683   109.08327805    62.09568217
 H     43  42  41     2.055615596986   110.82510363   299.39026969
 H     43  42  41     2.054766629898   110.09445279   179.46061596
 H     43  42  41     2.056004616628   110.65430514    59.62942399
 H     44  41  39     2.063773481537   107.43846620   175.59028596
 H     44  41  39     2.066319667630   107.81704782    59.98967821
 H     45  44  41     2.053138645857   111.50017484   303.61260621
 H     45  44  41     2.055806663209   109.11168792   184.46562186
 H     45  44  41     2.052750598229   111.12164098    65.56151083
 H     48  47  46     2.037995881865   120.24524686   178.75226342
 H     51  46  41     2.039757189716   122.41540579   357.02282101
 H     52  17  11     2.047193065501   116.28314189     1.16542910
 H     53  34  28     2.052857093279   113.93712114   190.91832221
 H     59  55  54     2.030290798042   125.03914411   178.22327752
 H     63  61  60     2.032784972986   125.85324388   359.20212517
 H     66  56  55     2.061818112752   108.00940369    61.97393850
 H     66  56  55     2.064783224684   107.55667107   306.90265028
 H     67  56  55     2.060970751982   108.21274698   172.41309188
 H     67  56  55     2.066458282854   107.61215648    56.78838756
 H     68  60  36     2.063138843189   108.73874247   292.31204193
 H     68  60  36     2.060501647990   108.91469017   174.77089132
 H     69  60  36     2.063490065593   107.95667935    66.44628584
 H     69  60  36     2.065748959669   107.90837746   310.44010287
 H     70  68  60     2.055752762319   110.85571183   299.90099038
 H     70  68  60     2.054739478809   110.05798684   179.90282401
 H     70  68  60     2.055406731654   110.70810041    60.18416347
 H     71  69  60     2.053046038987   111.46070933   299.85460830
 H     71  69  60     2.055258390253   109.38267291   180.45936407
 H     71  69  60     2.053107836879   110.87278315    61.34664030
 H     72  66  56     2.054051882331   111.53218886   302.03548630
 H     72  66  56     2.055273463930   109.08533915   182.81182711
 H     72  66  56     2.053268495721   110.98188672    63.94375672
 H     73  67  56     2.053078541388   111.45500628   301.80963992
 H     73  67  56     2.055817255268   109.35159622   182.39758182
 H     73  67  56     2.052802339426   111.06872243    63.46232841

---------------------
BASIS SET INFORMATION
---------------------
There are 6 groups of distinct atoms

 Group   1 Type C   : 7s4p1d contracted to 3s2p1d pattern {511/31/1}
 Group   2 Type O   : 7s4p1d contracted to 3s2p1d pattern {511/31/1}
 Group   3 Type F   : 7s4p1d contracted to 3s2p1d pattern {511/31/1}
 Group   4 Type N   : 7s4p1d contracted to 3s2p1d pattern {511/31/1}
 Group   5 Type S   : 10s7p1d contracted to 4s3p1d pattern {5311/511/1}
 Group   6 Type H   : 4s1p contracted to 2s1p pattern {31/1}

Atom   0C    basis set group =>   1
Atom   1O    basis set group =>   2
Atom   2C    basis set group =>   1
Atom   3C    basis set group =>   1
Atom   4C    basis set group =>   1
Atom   5F    basis set group =>   3
Atom   6C    basis set group =>   1
Atom   7F    basis set group =>   3
Atom   8C    basis set group =>   1
Atom   9C    basis set group =>   1
Atom  10C    basis set group =>   1
Atom  11C    basis set group =>   1
Atom  12C    basis set group =>   1
Atom  13N    basis set group =>   4
Atom  14C    basis set group =>   1
Atom  15N    basis set group =>   4
Atom  16C    basis set group =>   1
Atom  17C    basis set group =>   1
Atom  18O    basis set group =>   2
Atom  19C    basis set group =>   1
Atom  20C    basis set group =>   1
Atom  21C    basis set group =>   1
Atom  22F    basis set group =>   3
Atom  23C    basis set group =>   1
Atom  24F    basis set group =>   3
Atom  25C    basis set group =>   1
Atom  26C    basis set group =>   1
Atom  27C    basis set group =>   1
Atom  28C    basis set group =>   1
Atom  29C    basis set group =>   1
Atom  30N    basis set group =>   4
Atom  31C    basis set group =>   1
Atom  32N    basis set group =>   4
Atom  33C    basis set group =>   1
Atom  34C    basis set group =>   1
Atom  35C    basis set group =>   1
Atom  36C    basis set group =>   1
Atom  37C    basis set group =>   1
Atom  38C    basis set group =>   1
Atom  39C    basis set group =>   1
Atom  40C    basis set group =>   1
Atom  41C    basis set group =>   1
Atom  42C    basis set group =>   1
Atom  43C    basis set group =>   1
Atom  44C    basis set group =>   1
Atom  45C    basis set group =>   1
Atom  46C    basis set group =>   1
Atom  47C    basis set group =>   1
Atom  48C    basis set group =>   1
Atom  49C    basis set group =>   1
Atom  50C    basis set group =>   1
Atom  51C    basis set group =>   1
Atom  52C    basis set group =>   1
Atom  53C    basis set group =>   1
Atom  54C    basis set group =>   1
Atom  55C    basis set group =>   1
Atom  56S    basis set group =>   5
Atom  57C    basis set group =>   1
Atom  58C    basis set group =>   1
Atom  59C    basis set group =>   1
Atom  60C    basis set group =>   1
Atom  61C    basis set group =>   1
Atom  62C    basis set group =>   1
Atom  63C    basis set group =>   1
Atom  64S    basis set group =>   5
Atom  65C    basis set group =>   1
Atom  66C    basis set group =>   1
Atom  67C    basis set group =>   1
Atom  68C    basis set group =>   1
Atom  69C    basis set group =>   1
Atom  70C    basis set group =>   1
Atom  71C    basis set group =>   1
Atom  72C    basis set group =>   1
Atom  73H    basis set group =>   6
Atom  74H    basis set group =>   6
Atom  75H    basis set group =>   6
Atom  76H    basis set group =>   6
Atom  77H    basis set group =>   6
Atom  78H    basis set group =>   6
Atom  79H    basis set group =>   6
Atom  80H    basis set group =>   6
Atom  81H    basis set group =>   6
Atom  82H    basis set group =>   6
Atom  83H    basis set group =>   6
Atom  84H    basis set group =>   6
Atom  85H    basis set group =>   6
Atom  86H    basis set group =>   6
Atom  87H    basis set group =>   6
Atom  88H    basis set group =>   6
Atom  89H    basis set group =>   6
Atom  90H    basis set group =>   6
Atom  91H    basis set group =>   6
Atom  92H    basis set group =>   6
Atom  93H    basis set group =>   6
Atom  94H    basis set group =>   6
Atom  95H    basis set group =>   6
Atom  96H    basis set group =>   6
Atom  97H    basis set group =>   6
Atom  98H    basis set group =>   6
Atom  99H    basis set group =>   6
Atom 100H    basis set group =>   6
Atom 101H    basis set group =>   6
Atom 102H    basis set group =>   6
Atom 103H    basis set group =>   6
Atom 104H    basis set group =>   6
Atom 105H    basis set group =>   6
Atom 106H    basis set group =>   6
Atom 107H    basis set group =>   6
Atom 108H    basis set group =>   6
Atom 109H    basis set group =>   6
Atom 110H    basis set group =>   6
Atom 111H    basis set group =>   6
Atom 112H    basis set group =>   6
Atom 113H    basis set group =>   6
Atom 114H    basis set group =>   6
---------------------------------
AUXILIARY/J BASIS SET INFORMATION
---------------------------------
There are 6 groups of distinct atoms

 Group   1 Type C   : 12s5p4d2f1g contracted to 6s4p3d1f1g pattern {711111/2111/211/2/1}
 Group   2 Type O   : 12s5p4d2f1g contracted to 6s4p3d1f1g pattern {711111/2111/211/2/1}
 Group   3 Type F   : 12s5p4d2f1g contracted to 6s4p3d1f1g pattern {711111/2111/211/2/1}
 Group   4 Type N   : 12s5p4d2f1g contracted to 6s4p3d1f1g pattern {711111/2111/211/2/1}
 Group   5 Type S   : 14s5p5d2f1g contracted to 8s4p3d1f1g pattern {71111111/2111/311/2/1}
 Group   6 Type H   : 5s2p1d contracted to 3s1p1d pattern {311/2/1}

Atom   0C    basis set group =>   1
Atom   1O    basis set group =>   2
Atom   2C    basis set group =>   1
Atom   3C    basis set group =>   1
Atom   4C    basis set group =>   1
Atom   5F    basis set group =>   3
Atom   6C    basis set group =>   1
Atom   7F    basis set group =>   3
Atom   8C    basis set group =>   1
Atom   9C    basis set group =>   1
Atom  10C    basis set group =>   1
Atom  11C    basis set group =>   1
Atom  12C    basis set group =>   1
Atom  13N    basis set group =>   4
Atom  14C    basis set group =>   1
Atom  15N    basis set group =>   4
Atom  16C    basis set group =>   1
Atom  17C    basis set group =>   1
Atom  18O    basis set group =>   2
Atom  19C    basis set group =>   1
Atom  20C    basis set group =>   1
Atom  21C    basis set group =>   1
Atom  22F    basis set group =>   3
Atom  23C    basis set group =>   1
Atom  24F    basis set group =>   3
Atom  25C    basis set group =>   1
Atom  26C    basis set group =>   1
Atom  27C    basis set group =>   1
Atom  28C    basis set group =>   1
Atom  29C    basis set group =>   1
Atom  30N    basis set group =>   4
Atom  31C    basis set group =>   1
Atom  32N    basis set group =>   4
Atom  33C    basis set group =>   1
Atom  34C    basis set group =>   1
Atom  35C    basis set group =>   1
Atom  36C    basis set group =>   1
Atom  37C    basis set group =>   1
Atom  38C    basis set group =>   1
Atom  39C    basis set group =>   1
Atom  40C    basis set group =>   1
Atom  41C    basis set group =>   1
Atom  42C    basis set group =>   1
Atom  43C    basis set group =>   1
Atom  44C    basis set group =>   1
Atom  45C    basis set group =>   1
Atom  46C    basis set group =>   1
Atom  47C    basis set group =>   1
Atom  48C    basis set group =>   1
Atom  49C    basis set group =>   1
Atom  50C    basis set group =>   1
Atom  51C    basis set group =>   1
Atom  52C    basis set group =>   1
Atom  53C    basis set group =>   1
Atom  54C    basis set group =>   1
Atom  55C    basis set group =>   1
Atom  56S    basis set group =>   5
Atom  57C    basis set group =>   1
Atom  58C    basis set group =>   1
Atom  59C    basis set group =>   1
Atom  60C    basis set group =>   1
Atom  61C    basis set group =>   1
Atom  62C    basis set group =>   1
Atom  63C    basis set group =>   1
Atom  64S    basis set group =>   5
Atom  65C    basis set group =>   1
Atom  66C    basis set group =>   1
Atom  67C    basis set group =>   1
Atom  68C    basis set group =>   1
Atom  69C    basis set group =>   1
Atom  70C    basis set group =>   1
Atom  71C    basis set group =>   1
Atom  72C    basis set group =>   1
Atom  73H    basis set group =>   6
Atom  74H    basis set group =>   6
Atom  75H    basis set group =>   6
Atom  76H    basis set group =>   6
Atom  77H    basis set group =>   6
Atom  78H    basis set group =>   6
Atom  79H    basis set group =>   6
Atom  80H    basis set group =>   6
Atom  81H    basis set group =>   6
Atom  82H    basis set group =>   6
Atom  83H    basis set group =>   6
Atom  84H    basis set group =>   6
Atom  85H    basis set group =>   6
Atom  86H    basis set group =>   6
Atom  87H    basis set group =>   6
Atom  88H    basis set group =>   6
Atom  89H    basis set group =>   6
Atom  90H    basis set group =>   6
Atom  91H    basis set group =>   6
Atom  92H    basis set group =>   6
Atom  93H    basis set group =>   6
Atom  94H    basis set group =>   6
Atom  95H    basis set group =>   6
Atom  96H    basis set group =>   6
Atom  97H    basis set group =>   6
Atom  98H    basis set group =>   6
Atom  99H    basis set group =>   6
Atom 100H    basis set group =>   6
Atom 101H    basis set group =>   6
Atom 102H    basis set group =>   6
Atom 103H    basis set group =>   6
Atom 104H    basis set group =>   6
Atom 105H    basis set group =>   6
Atom 106H    basis set group =>   6
Atom 107H    basis set group =>   6
Atom 108H    basis set group =>   6
Atom 109H    basis set group =>   6
Atom 110H    basis set group =>   6
Atom 111H    basis set group =>   6
Atom 112H    basis set group =>   6
Atom 113H    basis set group =>   6
Atom 114H    basis set group =>   6
------------------------------------------------------------------------------
                           ORCA GTO INTEGRAL CALCULATION
                           -- RI-GTO INTEGRALS CHOSEN --
------------------------------------------------------------------------------

                         BASIS SET STATISTICS AND STARTUP INFO

Gaussian basis set:
 # of primitive gaussian shells          ... 1098
 # of primitive gaussian functions       ... 2070
 # of contracted shells                  ...  568
 # of contracted basis functions         ... 1240
 Highest angular momentum                ...    2
 Maximum contraction depth               ...    5
Auxiliary gaussian basis set:
 # of primitive gaussian shells          ... 2094
 # of primitive gaussian functions       ... 5796
 # of contracted shells                  ... 1309
 # of contracted aux-basis functions     ... 4043
 Highest angular momentum                ...    4
 Maximum contraction depth               ...    7
Ratio of auxiliary to basis functions    ...  3.26
Integral package used                  ... LIBINT
 One Electron integrals                  ... done
 Ordering auxiliary basis shells         ... done
 Integral threshhold             Thresh  ...  2.500e-11
 Primitive cut-off               TCut    ...  2.500e-12
 Pre-screening matrix                    ... done
 Shell pair data                         ... 
 Ordering of the shell pairs             ... done (   0.012 sec) 57521 of 161596 pairs
 Determination of significant pairs      ... done (   0.000 sec)
 Creation of shell pair data             ... done (   0.009 sec)
 Storage of shell pair data              ... done (   0.012 sec)
 Shell pair data done in (   0.033 sec)
 Computing two index integrals           ... done
 Cholesky decomposition of the V-matrix  ... done


Timings:
 Total evaluation time                   ...   2.486 sec (  0.041 min)
 One electron matrix time                ...   0.735 sec (  0.012 min) = 29.5%
 Schwartz matrix evaluation time         ...   0.721 sec (  0.012 min) = 29.0%
 Two index repulsion integral time       ...   0.412 sec (  0.007 min) = 16.6%
 Cholesky decomposition of V             ...   0.567 sec (  0.009 min) = 22.8%
 Three index repulsion integral time     ...   0.000 sec (  0.000 min) =  0.0%

-------------------------------------------------------------------------------
                                 ORCA SCF
-------------------------------------------------------------------------------

------------
SCF SETTINGS
------------
Hamiltonian:
 Density Functional     Method          .... DFT(GTOs)
 Exchange Functional    Exchange        .... WB88
 Correlation Functional Correlation     .... LYP
 LDA part of GGA corr.  LDAOpt          .... VWN-5
 Gradients option       PostSCFGGA      .... off
 Hybrid DFT is turned on
   Fraction HF Exchange ScalHFX         ....  0.190000
   Scaling of DF-GGA-X  ScalDFX         ....  0.350000
   Scaling of DF-GGA-C  ScalDFC         ....  0.810000
   Scaling of DF-LDA-C  ScalLDAC        ....  1.000000
   Perturbative correction              ....  0.000000
   Density functional embedding theory  .... OFF
 Long-range corrected/Screened/Range-Separated Hybrid DFT is turned on
   Amount of maximum screened exact exchange              ....  0.460000
   Range separation parameter mu (erf(mu*r12)/r12)        ....  0.330000
 RI-approximation to the Coulomb term is turned on
   Number of auxiliary basis functions  .... 4043
   RIJ-COSX (HFX calculated with COS-X)).... on


General Settings:
 Integral files         IntName         .... F-2F
 Hartree-Fock type      HFTyp           .... RHF
 Total Charge           Charge          ....    0
 Multiplicity           Mult            ....    1
 Number of Electrons    NEL             ....  520
 Basis Dimension        Dim             .... 1240
 Nuclear Repulsion      ENuc            ....  10551.5139500339 Eh

Convergence Acceleration:
 DIIS                   CNVDIIS         .... on
   Start iteration      DIISMaxIt       ....    12
   Startup error        DIISStart       ....  0.200000
   # of expansion vecs  DIISMaxEq       ....     5
   Bias factor          DIISBfac        ....   1.050
   Max. coefficient     DIISMaxC        ....  10.000
 Newton-Raphson         CNVNR           .... off
 SOSCF                  CNVSOSCF        .... on
   Start iteration      SOSCFMaxIt      ....   150
   Startup grad/error   SOSCFStart      ....  0.003300
 Level Shifting         CNVShift        .... on
   Level shift para.    LevelShift      ....    0.2500
   Turn off err/grad.   ShiftErr        ....    0.0010
 Zerner damping         CNVZerner       .... off
 Static damping         CNVDamp         .... on
   Fraction old density DampFac         ....    0.7000
   Max. Damping (<1)    DampMax         ....    0.9800
   Min. Damping (>=0)   DampMin         ....    0.0000
   Turn off err/grad.   DampErr         ....    0.1000
 Fernandez-Rico         CNVRico         .... off

SCF Procedure:
 Maximum # iterations   MaxIter         ....   125
 SCF integral mode      SCFMode         .... Direct
   Integral package                     .... LIBINT
 Reset frequency        DirectResetFreq ....    20
 Integral Threshold     Thresh          ....  2.500e-11 Eh
 Primitive CutOff       TCut            ....  2.500e-12 Eh

Convergence Tolerance:
 Convergence Check Mode ConvCheckMode   .... Total+1el-Energy
 Convergence forced     ConvForced      .... 1
 Energy Change          TolE            ....  1.000e-08 Eh
 1-El. energy change                    ....  1.000e-05 Eh
 Orbital Gradient       TolG            ....  1.000e-05
 Orbital Rotation angle TolX            ....  1.000e-05
 DIIS Error             TolErr          ....  5.000e-07


Diagonalization of the overlap matrix:
Smallest eigenvalue                        ... 1.853e-04
Time for diagonalization                   ...    0.500 sec
Threshold for overlap eigenvalues          ... 1.000e-08
Number of eigenvalues below threshold      ... 0
Time for construction of square roots      ...    0.172 sec
Total time needed                          ...    0.677 sec

-------------------
DFT GRID GENERATION
-------------------

General Integration Accuracy     IntAcc      ...  4.670
Radial Grid Type                 RadialGrid  ... Gauss-Chebyshev
Angular Grid (max. acc.)         AngularGrid ... Lebedev-302
Angular grid pruning method      GridPruning ... 3 (G Style)
Weight generation scheme         WeightScheme... Becke
Basis function cutoff            BFCut       ...    1.0000e-11
Integration weight cutoff        WCut        ...    1.0000e-14
Grids for H and He will be reduced by one unit

# of grid points (after initial pruning)     ... 597532 (   1.8 sec)
# of grid points (after weights+screening)   ... 502646 (  30.4 sec)
nearest neighbour list constructed           ...    0.0 sec
Grid point re-assignment to atoms done       ...    0.1 sec
Grid point division into batches done        ...    1.7 sec
Reduced shell lists constructed in    9.6 sec

Total number of grid points                  ...   502646
Total number of batches                      ...     7910
Average number of points per batch           ...       63
Average number of grid points per atom       ...     4371
Average number of shells per batch           ...   108.12 (19.03%)
Average number of basis functions per batch  ...   216.50 (17.46%)
Average number of large shells per batch     ...    63.57 (58.80%)
Average number of large basis fcns per batch ...   129.19 (59.67%)
Maximum spatial batch extension              ...  20.71, 22.01, 21.65 au
Average spatial batch extension              ...   2.04,  2.05,  2.17 au

Time for grid setup =   41.815 sec

------------------------------
INITIAL GUESS: MODEL POTENTIAL
------------------------------
Loading Hartree-Fock densities                     ... done
Calculating cut-offs                               ... done
Setting up the integral package                    ... done
Initializing the effective Hamiltonian             ... done
Starting the Coulomb interaction                   ... done (  11.1 sec)
Reading the grid                                   ... done
Mapping shells                                     ... done
Starting the XC term evaluation                    ... done (  10.4 sec)
  promolecular density results
     # of electrons  =    519.977930101
     EX              =   -456.915067517
     EC              =    -17.814990501
     EX+EC           =   -474.730058018
Transforming the Hamiltonian                       ... done (   0.2 sec)
Diagonalizing the Hamiltonian                      ... done (   0.4 sec)
Back transforming the eigenvectors                 ... done (   0.1 sec)
Now organizing SCF variables                       ... done
                      ------------------
                      INITIAL GUESS DONE (  64.2 sec)
                      ------------------
--------------------
COSX GRID GENERATION
--------------------

General Integration Accuracy     IntAcc      ...  3.340
Radial Grid Type                 RadialGrid  ... Gauss-Chebyshev
Angular Grid (max. acc.)         AngularGrid ... Lebedev-50
Angular grid pruning method      GridPruning ... 3 (G Style)
Weight generation scheme         WeightScheme... Becke
Basis function cutoff            BFCut       ...    1.0000e-11
Integration weight cutoff        WCut        ...    1.0000e-14
Grids for H and He will be reduced by one unit

# of grid points (after initial pruning)     ...  55976 (   0.1 sec)
# of grid points (after weights+screening)   ...  49314 (   2.9 sec)
nearest neighbour list constructed           ...    0.0 sec
Grid point re-assignment to atoms done       ...    0.0 sec
Grid point division into batches done        ...    0.0 sec
Reduced shell lists constructed in    1.0 sec

Total number of grid points                  ...    49314
Total number of batches                      ...      835
Average number of points per batch           ...       59
Average number of grid points per atom       ...      429
Average number of shells per batch           ...   131.71 (23.19%)
Average number of basis functions per batch  ...   266.69 (21.51%)
Average number of large shells per batch     ...    77.80 (59.07%)
Average number of large basis fcns per batch ...   160.82 (60.30%)
Maximum spatial batch extension              ...  17.91, 16.97, 25.23 au
Average spatial batch extension              ...   4.02,  4.03,  4.75 au

Overlap Fitting                  UseSFitting ... on
Constructing numerical overlap ... done (      0.8 sec)
Inverting numerical overlap    ... done (      0.0 sec)
Obtaining analytic overlap     ... done (      0.0 sec)
Final contraction and storage  ... done (      0.1 sec)


General Integration Accuracy     IntAcc      ...  3.670
Radial Grid Type                 RadialGrid  ... Gauss-Chebyshev
Angular Grid (max. acc.)         AngularGrid ... Lebedev-50
Angular grid pruning method      GridPruning ... 3 (G Style)
Weight generation scheme         WeightScheme... Becke
Basis function cutoff            BFCut       ...    1.0000e-11
Integration weight cutoff        WCut        ...    1.0000e-14
Grids for H and He will be reduced by one unit

# of grid points (after initial pruning)     ...  70226 (   0.1 sec)
# of grid points (after weights+screening)   ...  61615 (   3.6 sec)
nearest neighbour list constructed           ...    0.0 sec
Grid point re-assignment to atoms done       ...    0.0 sec
Grid point division into batches done        ...    0.0 sec
Reduced shell lists constructed in    1.2 sec

Total number of grid points                  ...    61615
Total number of batches                      ...     1019
Average number of points per batch           ...       60
Average number of grid points per atom       ...      536
Average number of shells per batch           ...   128.78 (22.67%)
Average number of basis functions per batch  ...   260.01 (20.97%)
Average number of large shells per batch     ...    75.78 (58.85%)
Average number of large basis fcns per batch ...   156.15 (60.05%)
Maximum spatial batch extension              ...  19.96, 18.24, 24.18 au
Average spatial batch extension              ...   3.76,  3.86,  4.48 au

Overlap Fitting                  UseSFitting ... on
Constructing numerical overlap ... done (      0.9 sec)
Inverting numerical overlap    ... done (      0.0 sec)
Obtaining analytic overlap     ... done (      0.0 sec)
Final contraction and storage  ... done (      0.1 sec)


General Integration Accuracy     IntAcc      ...  4.010
Radial Grid Type                 RadialGrid  ... Gauss-Chebyshev
Angular Grid (max. acc.)         AngularGrid ... Lebedev-110
Angular grid pruning method      GridPruning ... 3 (G Style)
Weight generation scheme         WeightScheme... Becke
Basis function cutoff            BFCut       ...    1.0000e-11
Integration weight cutoff        WCut        ...    1.0000e-14
Grids for H and He will be reduced by one unit

# of grid points (after initial pruning)     ... 135368 (   0.2 sec)
# of grid points (after weights+screening)   ... 117767 (   6.9 sec)
nearest neighbour list constructed           ...    0.0 sec
Grid point re-assignment to atoms done       ...    0.0 sec
Grid point division into batches done        ...    0.1 sec
Reduced shell lists constructed in    2.2 sec

Total number of grid points                  ...   117767
Total number of batches                      ...     1905
Average number of points per batch           ...       61
Average number of grid points per atom       ...     1024
Average number of shells per batch           ...   121.58 (21.41%)
Average number of basis functions per batch  ...   245.44 (19.79%)
Average number of large shells per batch     ...    72.11 (59.31%)
Average number of large basis fcns per batch ...   148.22 (60.39%)
Maximum spatial batch extension              ...  24.50, 21.07, 32.99 au
Average spatial batch extension              ...   3.20,  3.20,  3.67 au

Overlap Fitting                  UseSFitting ... on
Constructing numerical overlap ... done (      1.5 sec)
Inverting numerical overlap    ... done (      0.0 sec)
Obtaining analytic overlap     ... done (      0.0 sec)
Final contraction and storage  ... done (      0.1 sec)

Time for X-Grid setup             =   21.915 sec
--------------
SCF ITERATIONS
--------------
ITER       Energy         Delta-E        Max-DP      RMS-DP      [F,P]     Damp
               ***  Starting incremental Fock matrix formation  ***
  0  -3909.3935354634   0.000000000000 0.10226398  0.00096813  0.2188919 0.7000
  1  -3910.0070509479  -0.613515484569 0.06366968  0.00068724  0.0966756 0.7000
                               ***Turning on DIIS***
  2  -3910.2764921284  -0.269441180506 0.10945065  0.00126411  0.0428728 0.0000
  3  -3910.7137095942  -0.437217465766 0.05449821  0.00049220  0.0523245 0.0000
  4  -3910.7942607992  -0.080551205012 0.01646752  0.00014473  0.0210111 0.0000
  5  -3910.7996177794  -0.005356980138 0.00618293  0.00005693  0.0087124 0.0000
                      *** Initiating the SOSCF procedure ***
                           *** Shutting down DIIS ***
                      *** Re-Reading the Fockian *** 
                      *** Removing any level shift *** 
ITER      Energy       Delta-E        Grad      Rot      Max-DP    RMS-DP
  6  -3910.80057839  -0.0009606085  0.002150  0.002150  0.002443  0.000028
               *** Restarting incremental Fock matrix formation ***
  7  -3910.80071716  -0.0001387673  0.001492  0.009247  0.002662  0.000027
  8  -3910.80086392  -0.0001467692  0.000692  0.008456  0.002292  0.000029
  9  -3910.80086972  -0.0000057990  0.000694  0.003090  0.001215  0.000012
 10  -3910.80090505  -0.0000353305  0.000187  0.001012  0.000517  0.000006
 11  -3910.80090398   0.0000010777  0.000160  0.000805  0.000382  0.000004
 12  -3910.80090772  -0.0000037431  0.000017  0.000059  0.000118  0.000001
 13  -3910.80090770   0.0000000232  0.000028  0.000070  0.000060  0.000001
 14  -3910.80090779  -0.0000000891  0.000004  0.000027  0.000025  0.000000
 15  -3910.80090777   0.0000000131  0.000005  0.000008  0.000014  0.000000
                  ***Gradient check signals convergence***
              ***Rediagonalizing the Fockian in SOSCF/NRSCF***

               *****************************************************
               *                     SUCCESS                       *
               *           SCF CONVERGED AFTER  16 CYCLES          *
               *****************************************************

Setting up the final grid:

General Integration Accuracy     IntAcc      ...  5.010
Radial Grid Type                 RadialGrid  ... Gauss-Chebyshev
Angular Grid (max. acc.)         AngularGrid ... Lebedev-434
Angular grid pruning method      GridPruning ... 3 (G Style)
Weight generation scheme         WeightScheme... Becke
Basis function cutoff            BFCut       ...    1.0000e-11
Integration weight cutoff        WCut        ...    1.0000e-14
Grids for H and He will be reduced by one unit

# of grid points (after initial pruning)     ... 1064438 (   1.9 sec)
# of grid points (after weights+screening)   ... 892101 (  54.4 sec)
nearest neighbour list constructed           ...    0.0 sec
Grid point re-assignment to atoms done       ...    0.1 sec
Grid point division into batches done        ...    5.7 sec
Reduced shell lists constructed in   18.2 sec

Total number of grid points                  ...   892101
Total number of batches                      ...    14000
Average number of points per batch           ...       63
Average number of grid points per atom       ...     7757
Average number of shells per batch           ...   104.55 (18.41%)
Average number of basis functions per batch  ...   208.60 (16.82%)
Average number of large shells per batch     ...    61.34 (58.67%)
Average number of large basis fcns per batch ...   124.21 (59.55%)
Maximum spatial batch extension              ...  23.24, 22.12, 22.65 au
Average spatial batch extension              ...   1.67,  1.67,  1.74 au

Final grid set up in   74.5 sec
Final integration                            ... done (  24.5 sec)
Change in XC energy                          ...    -0.000010574
Integrated number of electrons               ...   519.999737930
Previous integrated no of electrons          ...   519.999295682
Old exchange energy                            =   -128.997617164 Eh
New exchange energy                            =   -128.995091185 Eh
Exchange energy change after final integration =      0.002525979 Eh
Total energy after final integration           =  -3910.798392413 Eh
Final COS-X integration done in                =   471.298 sec

----------------
TOTAL SCF ENERGY
----------------

Total Energy       :        -3910.79839241 Eh         -106418.23446 eV

Components:
Nuclear Repulsion  :        10551.51395003 Eh          287121.29154 eV
Electronic Energy  :       -14462.31234245 Eh         -393539.52600 eV
One Electron Energy:       -26353.31844298 Eh         -717110.25201 eV
Two Electron Energy:        11891.00610053 Eh          323570.72601 eV

Virial components:
Potential Energy   :        -7790.88383956 Eh         -212000.72718 eV
Kinetic Energy     :         3880.08544715 Eh          105582.49273 eV
Virial Ratio       :            2.00791553


DFT components:
N(Alpha)           :      259.999868964963 electrons
N(Beta)            :      259.999868964963 electrons
N(Total)           :      519.999737929925 electrons
E(XC)              :     -354.283360291997 Eh       
DFET-embed. en.    :        0.000000000000 Eh       

---------------
SCF CONVERGENCE
---------------

  Last Energy change         ...   -4.5997e-08  Tolerance :   1.0000e-08
  Last MAX-Density change    ...    7.9936e-15  Tolerance :   1.0000e-07
  Last RMS-Density change    ...    3.3582e-17  Tolerance :   5.0000e-09
  Last Orbital Gradient      ...    1.0058e-06  Tolerance :   1.0000e-05
  Last Orbital Rotation      ...    5.1330e-06  Tolerance :   1.0000e-05

             **** THE GBW FILE WAS UPDATED (F-2F.gbw) ****
             **** DENSITY FILE WAS UPDATED (F-2F.scfp) ****
             **** ENERGY FILE WAS UPDATED (F-2F.en.tmp) ****
             **** THE GBW FILE WAS UPDATED (F-2F.gbw) ****
             **** DENSITY FILE WAS UPDATED (F-2F.scfp) ****
----------------
ORBITAL ENERGIES
----------------

  NO   OCC          E(Eh)            E(eV) 
   0   2.0000     -88.977055     -2421.1888 
   1   2.0000     -88.971472     -2421.0368 
   2   2.0000     -24.802097      -674.8994 
   3   2.0000     -24.801522      -674.8837 
   4   2.0000     -24.801475      -674.8824 
   5   2.0000     -24.799653      -674.8329 
   6   2.0000     -19.223766      -523.1053 
   7   2.0000     -19.218275      -522.9559 
   8   2.0000     -14.419585      -392.3769 
   9   2.0000     -14.419535      -392.3755 
  10   2.0000     -14.419265      -392.3682 
  11   2.0000     -14.415040      -392.2532 
  12   2.0000     -10.387464      -282.6573 
  13   2.0000     -10.386757      -282.6380 
  14   2.0000     -10.386158      -282.6217 
  15   2.0000     -10.385455      -282.6026 
  16   2.0000     -10.372886      -282.2606 
  17   2.0000     -10.370071      -282.1840 
  18   2.0000     -10.347126      -281.5596 
  19   2.0000     -10.346061      -281.5306 
  20   2.0000     -10.344703      -281.4937 
  21   2.0000     -10.343360      -281.4571 
  22   2.0000     -10.324606      -280.9468 
  23   2.0000     -10.324049      -280.9317 
  24   2.0000     -10.322560      -280.8912 
  25   2.0000     -10.322173      -280.8806 
  26   2.0000     -10.320573      -280.8371 
  27   2.0000     -10.318452      -280.7793 
  28   2.0000     -10.318264      -280.7742 
  29   2.0000     -10.318087      -280.7694 
  30   2.0000     -10.317282      -280.7475 
  31   2.0000     -10.316953      -280.7386 
  32   2.0000     -10.316009      -280.7129 
  33   2.0000     -10.310028      -280.5501 
  34   2.0000     -10.309933      -280.5475 
  35   2.0000     -10.309914      -280.5470 
  36   2.0000     -10.309056      -280.5237 
  37   2.0000     -10.307929      -280.4930 
  38   2.0000     -10.303371      -280.3690 
  39   2.0000     -10.302007      -280.3319 
  40   2.0000     -10.301579      -280.3202 
  41   2.0000     -10.299736      -280.2701 
  42   2.0000     -10.297215      -280.2015 
  43   2.0000     -10.296632      -280.1856 
  44   2.0000     -10.295983      -280.1679 
  45   2.0000     -10.295747      -280.1615 
  46   2.0000     -10.295167      -280.1457 
  47   2.0000     -10.292751      -280.0800 
  48   2.0000     -10.290695      -280.0240 
  49   2.0000     -10.288668      -279.9689 
  50   2.0000     -10.288346      -279.9601 
  51   2.0000     -10.288236      -279.9571 
  52   2.0000     -10.287793      -279.9451 
  53   2.0000     -10.287724      -279.9432 
  54   2.0000     -10.286548      -279.9112 
  55   2.0000     -10.286136      -279.9000 
  56   2.0000     -10.285730      -279.8889 
  57   2.0000     -10.285590      -279.8851 
  58   2.0000     -10.283704      -279.8338 
  59   2.0000     -10.283233      -279.8210 
  60   2.0000     -10.283004      -279.8148 
  61   2.0000     -10.276714      -279.6436 
  62   2.0000     -10.275727      -279.6167 
  63   2.0000     -10.275476      -279.6099 
  64   2.0000     -10.274156      -279.5740 
  65   2.0000     -10.273043      -279.5437 
  66   2.0000     -10.271149      -279.4922 
  67   2.0000     -10.265282      -279.3325 
  68   2.0000     -10.261720      -279.2356 
  69   2.0000     -10.260689      -279.2075 
  70   2.0000     -10.260074      -279.1908 
  71   2.0000     -10.258118      -279.1376 
  72   2.0000     -10.255667      -279.0709 
  73   2.0000      -8.072256      -219.6572 
  74   2.0000      -8.064570      -219.4481 
  75   2.0000      -6.041396      -164.3948 
  76   2.0000      -6.037451      -164.2874 
  77   2.0000      -6.034521      -164.2077 
  78   2.0000      -6.033926      -164.1915 
  79   2.0000      -6.029438      -164.0694 
  80   2.0000      -6.026942      -164.0014 
  81   2.0000      -1.325457       -36.0675 
  82   2.0000      -1.324198       -36.0332 
  83   2.0000      -1.310251       -35.6537 
  84   2.0000      -1.308991       -35.6195 
  85   2.0000      -1.139413       -31.0050 
  86   2.0000      -1.134032       -30.8586 
  87   2.0000      -1.025322       -27.9004 
  88   2.0000      -1.022507       -27.8238 
  89   2.0000      -1.019441       -27.7404 
  90   2.0000      -1.016450       -27.6590 
  91   2.0000      -1.004874       -27.3440 
  92   2.0000      -1.004394       -27.3310 
  93   2.0000      -0.998457       -27.1694 
  94   2.0000      -0.996103       -27.1053 
  95   2.0000      -0.995458       -27.0878 
  96   2.0000      -0.970138       -26.3988 
  97   2.0000      -0.962261       -26.1845 
  98   2.0000      -0.956410       -26.0252 
  99   2.0000      -0.951951       -25.9039 
 100   2.0000      -0.924680       -25.1618 
 101   2.0000      -0.911401       -24.8005 
 102   2.0000      -0.908317       -24.7166 
 103   2.0000      -0.907044       -24.6819 
 104   2.0000      -0.900559       -24.5055 
 105   2.0000      -0.894326       -24.3358 
 106   2.0000      -0.881584       -23.9891 
 107   2.0000      -0.876043       -23.8384 
 108   2.0000      -0.874626       -23.7998 
 109   2.0000      -0.860638       -23.4191 
 110   2.0000      -0.849944       -23.1281 
 111   2.0000      -0.848604       -23.0917 
 112   2.0000      -0.848081       -23.0775 
 113   2.0000      -0.845364       -23.0035 
 114   2.0000      -0.845034       -22.9945 
 115   2.0000      -0.843504       -22.9529 
 116   2.0000      -0.842465       -22.9246 
 117   2.0000      -0.832259       -22.6469 
 118   2.0000      -0.812320       -22.1044 
 119   2.0000      -0.802705       -21.8427 
 120   2.0000      -0.781735       -21.2721 
 121   2.0000      -0.775930       -21.1141 
 122   2.0000      -0.774806       -21.0835 
 123   2.0000      -0.773458       -21.0469 
 124   2.0000      -0.762903       -20.7597 
 125   2.0000      -0.758960       -20.6523 
 126   2.0000      -0.747487       -20.3402 
 127   2.0000      -0.730527       -19.8786 
 128   2.0000      -0.719441       -19.5770 
 129   2.0000      -0.715463       -19.4687 
 130   2.0000      -0.712852       -19.3977 
 131   2.0000      -0.709099       -19.2956 
 132   2.0000      -0.703514       -19.1436 
 133   2.0000      -0.701135       -19.0788 
 134   2.0000      -0.699116       -19.0239 
 135   2.0000      -0.695006       -18.9121 
 136   2.0000      -0.689839       -18.7715 
 137   2.0000      -0.685099       -18.6425 
 138   2.0000      -0.676894       -18.4192 
 139   2.0000      -0.671563       -18.2742 
 140   2.0000      -0.665733       -18.1155 
 141   2.0000      -0.659871       -17.9560 
 142   2.0000      -0.650693       -17.7063 
 143   2.0000      -0.649181       -17.6651 
 144   2.0000      -0.646074       -17.5806 
 145   2.0000      -0.643536       -17.5115 
 146   2.0000      -0.642749       -17.4901 
 147   2.0000      -0.640717       -17.4348 
 148   2.0000      -0.634118       -17.2552 
 149   2.0000      -0.622636       -16.9428 
 150   2.0000      -0.616731       -16.7821 
 151   2.0000      -0.611076       -16.6282 
 152   2.0000      -0.605147       -16.4669 
 153   2.0000      -0.604308       -16.4441 
 154   2.0000      -0.595104       -16.1936 
 155   2.0000      -0.592797       -16.1308 
 156   2.0000      -0.590357       -16.0644 
 157   2.0000      -0.589318       -16.0361 
 158   2.0000      -0.588321       -16.0090 
 159   2.0000      -0.583659       -15.8822 
 160   2.0000      -0.570151       -15.5146 
 161   2.0000      -0.565884       -15.3985 
[...]
                       16, 14408-14419 (2014) 
 sTD-DFT approach:     C. Bannwarth, S. Grimme, Comp. Theor. Chem. 
                       1040-1041, 45-53 (2014)

---------------------------------------------------------------------------------


spectral range up to (eV)      ...    5.000000
occ. MO cut-off (eV)           ...   -15.744863
virt. MO cut-off (eV)          ...    6.195741
perturbation threshold         ...   1.000e-04 
MOs in sTD-DFT                 ...         179 
occ. MOs in sTD-DFT            ...         100 
virt. in sTD-DFT               ...          79 
calculate triplets           ...   no  

Calculating the dipole lengths integrals ... 
Transforming integrals ... 
Calculating the dipole velocity integrals ... 
Transforming integrals ... 
Calculating magnetic dipole integrals ... 
Transforming integrals ... 

SCF atom population (using active MOs):

   1.774   4.203   1.951   2.050   1.197   2.958   1.206   3.021   2.098   1.939
   1.729   1.429   2.127   3.879   2.137   3.879   2.065   1.850   4.440   1.972
   2.098   1.223   3.029   1.210   3.025   2.122   1.945   1.685   1.410   2.116
   3.866   2.128   3.876   2.016   2.081   2.141   2.343   2.158   2.163   2.276
   2.155   2.617   2.987   2.696   2.979   2.116   2.112   2.298   2.135   2.059
   2.261   1.988   2.004   2.152   2.123   2.132   3.615   2.083   1.949   2.118
   2.153   2.151   2.076   2.178   3.587   2.650   2.630   2.627   2.714   2.992
   2.976   2.952   2.943   0.529   0.562   0.543   0.569   0.590   0.586   0.635
   0.628   0.661   0.677   0.663   0.650   0.654   0.661   0.666   0.661   0.596
   0.590   0.472   0.524   0.388   0.410   0.643   0.639   0.645   0.625   0.644
   0.624   0.656   0.661   0.661   0.676   0.665   0.662   0.662   0.660   0.658
   0.658   0.658   0.648   0.665   0.652

Number of electrons in sTDA:  200.000

ax(DF)   :  0.3800
s^k      :  2.0000
beta  (J):  1.8600
alpha (K):  0.9000

hardness table read
setting up gammas ...
computing q(ij,n)
memory needed for q data:            10.5 MB 
memory available for q data:       2479.3 MB 

CSF included by energy:           23 
CSF considered in PT2:          7877 

ordered frontier orbitals
           eV         # centers 
  89      -9.280       4.5
  90      -9.235       2.9
  91      -9.147       5.5
  92      -9.088       5.2
  93      -8.995      19.5
  94      -8.775      17.0
  95      -8.736      27.1
  96      -8.608      24.8
  97      -8.455      28.0
  98      -7.539      20.2
  99      -6.844      24.0

 100      -2.705      27.4
 101      -2.443      23.6
 102      -1.817      24.4
 103      -1.714      22.8
 104      -0.831      33.5
 105      -0.321      24.2
 106       0.161      26.4
 107       0.192      21.7
 108       0.613      24.5
 109       0.727      24.7
 110       1.017       5.3

           eV        nm       excitation i->a                     eV 
   0      2.56     484.1    99 -> 100      gap,J,K:    4.139     1.882     0.152
   1      2.98     416.5    99 -> 101      gap,J,K:    4.401     1.777     0.177
   2      3.41     364.1    98 -> 100      gap,J,K:    4.834     1.895     0.233
   3      3.57     347.2    99 -> 102      gap,J,K:    5.027     1.645     0.095
   4      3.66     339.1    98 -> 101      gap,J,K:    5.096     1.839     0.199
   5      3.71     334.3    99 -> 103      gap,J,K:    5.130     1.633     0.105
   6      4.26     291.3    98 -> 102      gap,J,K:    5.722     1.733     0.133
   7      4.37     283.7    98 -> 103      gap,J,K:    5.825     1.738     0.142
   8      4.37     283.6    97 -> 100      gap,J,K:    5.750     1.780     0.201
   9      4.47     277.5    94 -> 100      gap,J,K:    6.070     1.802     0.100
  10      4.50     275.2    99 -> 104      gap,J,K:    6.013     1.934     0.213
  11      4.54     272.9    96 -> 100      gap,J,K:    5.903     1.673     0.156
  12      4.57     271.2    95 -> 100      gap,J,K:    6.031     1.704     0.122
  13      4.67     265.4    97 -> 101      gap,J,K:    6.012     1.781     0.220
  14      4.72     262.6    93 -> 100      gap,J,K:    6.290     1.827     0.130
  15      4.78     259.3    90 -> 100      gap,J,K:    6.530     1.749     0.000
  16      4.80     258.1    91 -> 100      gap,J,K:    6.442     1.981     0.171
  17      4.82     257.5    94 -> 101      gap,J,K:    6.332     1.612     0.047
  18      4.82     257.4    95 -> 101      gap,J,K:    6.293     1.694     0.109
  19      4.84     256.2    96 -> 101      gap,J,K:    6.165     1.714     0.194
  20      4.87     254.8    90 -> 101      gap,J,K:    6.792     1.926     0.000
  21      4.87     254.7    89 -> 100      gap,J,K:    6.576     1.798     0.045
  22      4.91     252.4    92 -> 100      gap,J,K:    6.383     1.798     0.164

average / max PT2 energy lowering (eV):       0.046       0.086

CSF included by PT:                   138 
total number of CSF included:         161 
 
sTD-DFT procedure...
setting up A+B and A-B matrices...  done
estimated time (min):    0.000
calculating (A-B)^0.5 ... done
calculating (A+B)*(A-B)^0.5 ... done
calculating (A-B)^0.5 *(A+B)*(A-B)^0.5 ... done
diagonalizing ...using LAPACKE_ssyevr ...done

   30 roots found, lowest/highest eigenvalue :     2.243     4.994

excitation energies, transition moments and amplitudes

molecular weight: 1003.145
state   eV        nm        fL         fV        Rl        RV
   0   2.243     552.7   2.459474   2.799372  92.518210  67.056977     0.82 (  99-> 100)    0.14 (  98-> 101)    0.02 (  98-> 100)
   1   2.587     479.3   0.263053   0.290490  -81.680244  -88.762545     0.68 (  99-> 101)    0.24 (  98-> 100)    0.02 (  99-> 100)
   2   3.123     397.0   0.169147   0.158655  162.285993  169.836917     0.63 (  99-> 102)    0.17 (  98-> 103)    0.06 (  98-> 101)
   3   3.250     381.5   0.115769   0.112876  -117.536318  -110.802779     0.61 (  99-> 103)    0.21 (  98-> 102)    0.03 (  98-> 103)
   4   3.369     368.0   0.008578   0.007870  -27.484636  -24.359518     0.64 (  98-> 100)    0.24 (  99-> 101)    0.05 (  97-> 101)
   5   3.619     342.6   0.069438   0.076842   2.362612  23.278711     0.55 (  98-> 101)    0.19 (  97-> 100)    0.09 (  99-> 100)
   6   3.768     329.0   0.000761   0.000895  -1.660196  -2.249442     0.42 (  90-> 100)    0.32 (  90-> 101)    0.12 (  90-> 103)
   7   3.797     326.6   0.208791   0.199987  -17.474678  -44.209611     0.19 (  96-> 100)    0.09 (  96-> 101)    0.08 (  89-> 100)
   8   3.912     316.9   0.145412   0.130647  -84.884167  -84.488588     0.23 (  96-> 100)    0.15 (  96-> 101)    0.14 (  97-> 100)
   9   4.001     309.9   0.077741   0.065324  -54.374403  -43.516337     0.40 (  89-> 100)    0.25 (  89-> 101)    0.05 (  96-> 100)
  10   4.052     306.0   0.095039   0.087094  -217.029555  -189.540969     0.30 (  89-> 103)    0.20 (  89-> 102)    0.07 (  94-> 100)
  11   4.075     304.2   0.000499   0.000390  -2.396802  -2.840573     0.49 (  90-> 102)    0.25 (  90-> 103)    0.17 (  90-> 101)
  12   4.089     303.2   0.109618   0.080539  162.174346  120.925598     0.55 (  94-> 100)    0.07 (  93-> 101)    0.05 (  89-> 103)
  13   4.114     301.4   0.011036   0.008639  -0.793298   2.306237     0.26 (  95-> 100)    0.22 (  93-> 100)    0.11 (  94-> 101)
  14   4.187     296.1   0.089481   0.078189  37.676575  32.840666     0.46 (  99-> 104)    0.13 (  98-> 103)    0.10 (  97-> 100)
  15   4.227     293.3   0.019725   0.018973  -18.576771  -25.203029     0.47 (  91-> 100)    0.21 (  91-> 101)    0.06 (  94-> 100)
  16   4.297     288.5   0.025358   0.026605  -77.311115  -79.865024     0.34 (  98-> 102)    0.15 (  99-> 103)    0.12 (  92-> 100)
  17   4.352     284.9   0.056563   0.045581  -160.827497  -146.350891     0.31 (  92-> 100)    0.16 (  92-> 101)    0.15 (  98-> 102)
  18   4.438     279.4   0.076587   0.063653  -54.108064  -32.300843     0.23 (  93-> 100)    0.20 (  97-> 100)    0.08 (  95-> 100)
  19   4.504     275.3   0.296675   0.254789  481.430367  438.660071     0.37 (  98-> 103)    0.20 (  99-> 104)    0.09 (  99-> 102)
  20   4.543     272.9   0.356765   0.313567  -1055.642086  -988.709955     0.17 (  97-> 101)    0.16 (  96-> 102)    0.11 (  88-> 100)
  21   4.625     268.1   0.307580   0.260453  2030.688331  1843.839271     0.17 (  96-> 103)    0.16 (  87-> 100)    0.10 (  97-> 102)
  22   4.672     265.4   0.333549   0.265515  -797.587986  -709.257291     0.19 (  97-> 101)    0.16 (  95-> 101)    0.08 (  94-> 101)
  23   4.723     262.5   0.083791   0.061801  -53.945464  -36.499348     0.16 (  99-> 105)    0.14 (  87-> 101)    0.12 (  88-> 100)
  24   4.754     260.8   0.013295   0.009404  107.024944  91.005120     0.44 (  94-> 101)    0.12 (  95-> 101)    0.08 (  99-> 107)
  25   4.811     257.7   0.087558   0.069306  580.414622  514.160112     0.22 (  87-> 100)    0.16 (  88-> 101)    0.11 (  96-> 103)
  26   4.838     256.3   0.307013   0.225262  -839.933826  -717.679100     0.30 (  99-> 105)    0.19 (  98-> 104)    0.12 (  96-> 102)
  27   4.946     250.7   0.000227   0.000299  10.637886  10.122360     0.30 (  93-> 101)    0.10 (  92-> 102)    0.08 (  99-> 106)
  28   4.970     249.5   0.010613   0.009431  -7.543387  -9.078777     0.28 (  92-> 102)    0.13 (  92-> 103)    0.06 (  95-> 102)
  29   4.994     248.2   0.000724   0.000252   3.471174   6.146195     0.26 (  93-> 101)    0.17 (  99-> 106)    0.13 (  99-> 107)

-----------------------------------------------------------------------------
         ABSORPTION SPECTRUM VIA TRANSITION ELECTRIC DIPOLE MOMENTS
-----------------------------------------------------------------------------
State   Energy  Wavelength   fosc         T2         TX        TY        TZ  
        (cm-1)    (nm)                  (au**2)     (au)      (au)      (au) 
-----------------------------------------------------------------------------
   0   18091.6    552.7   2.459474399  44.75485  -4.33707  -4.80945   1.67744
   1   20865.2    479.3   0.263052730   4.15046  -0.99171  -1.73296   0.40474
   2   25185.9    397.0   0.169147346   2.21098  -1.15219  -0.93937   0.03213
   3   26210.9    381.5   0.115769118   1.45407  -0.07731  -1.15200  -0.34784
   4   27170.9    368.0   0.008578171   0.10394  -0.20814   0.19098   0.15537
   5   29189.2    342.6   0.069437601   0.78315   0.48695  -0.10992  -0.73072
   6   30394.9    329.0   0.000761373   0.00825   0.07015  -0.05122   0.02648
   7   30623.1    326.6   0.208791424   2.24460  -0.84325  -1.15312  -0.45149
   8   31553.8    316.9   0.145412306   1.51714   1.06078  -0.54574  -0.30667
   9   32272.3    309.9   0.077741170   0.79304   0.52824   0.64001   0.32311
  10   32683.8    306.0   0.095039429   0.95730  -0.02385   0.86427   0.45801
  11   32870.1    304.2   0.000499002   0.00500   0.03775  -0.04450   0.03991
  12   32979.3    303.2   0.109617838   1.09425   1.03725   0.08717   0.10369
  13   33178.9    301.4   0.011036356   0.10951  -0.12603  -0.16449  -0.25800
  14   33767.5    296.1   0.089481273   0.87239   0.20327   0.88230  -0.22939
  15   34093.4    293.3   0.019725291   0.19047  -0.09756  -0.40431  -0.13225
  16   34659.3    288.5   0.025358484   0.24087  -0.08983   0.47104   0.10449
  17   35100.4    284.9   0.056563068   0.53051  -0.52486   0.34173   0.37183
  18   35794.9    279.4   0.076586849   0.70438  -0.17488   0.76437   0.29923
  19   36324.4    275.3   0.296674853   2.68879   1.56724   0.47925  -0.05369
  20   36644.1    272.9   0.356764734   3.20518   0.17082  -1.71381  -0.48872
  21   37301.2    268.1   0.307580492   2.71463  -1.46381   0.22044  -0.72339
  22   37684.8    265.4   0.333548993   2.91386  -0.37804   1.62935   0.34083
  23   38094.8    262.5   0.083791086   0.72412  -0.05437  -0.73685  -0.42215
  24   38343.5    260.8   0.013294877   0.11415  -0.19905   0.25102  -0.10730
  25   38803.1    257.7   0.087557875   0.74286   0.28784   0.26163  -0.76912
  26   39022.5    256.3   0.307013272   2.59011   0.16337  -1.53164  -0.46638
  27   39896.0    250.7   0.000226953   0.00187   0.01638  -0.00381   0.03988
  28   40082.8    249.5   0.010612777   0.08717  -0.21465   0.18821   0.07529
  29   40283.2    248.2   0.000723886   0.00592  -0.01774  -0.06569  -0.03586

-----------------------------------------------------------------------------
         ABSORPTION SPECTRUM VIA TRANSITION VELOCITY DIPOLE MOMENTS
-----------------------------------------------------------------------------
State   Energy  Wavelength   fosc         P2         PX        PY        PZ  
        (cm-1)    (nm)                  (au**2)     (au)      (au)      (au) 
-----------------------------------------------------------------------------
   0   18091.6    552.7   2.799371600   0.34613  -0.38218  -0.42162   0.14938
   1   20865.2    479.3   0.290489765   0.04142  -0.09724  -0.17423   0.04014
   2   25185.9    397.0   0.158654711   0.02731  -0.12895  -0.10335   0.00132
   3   26210.9    381.5   0.112876034   0.02022  -0.00654  -0.13529  -0.04329
   4   27170.9    368.0   0.007869633   0.00146  -0.02303   0.02404   0.01879
   5   29189.2    342.6   0.076841761   0.01533   0.07325  -0.00453  -0.09972
   6   30394.9    329.0   0.000894887   0.00019   0.01089  -0.00641   0.00512
   7   30623.1    326.6   0.199986731   0.04186  -0.11079  -0.16072  -0.06124
   8   31553.8    316.9   0.130646674   0.02817   0.14339  -0.07707  -0.04092
   9   32272.3    309.9   0.065323781   0.01441   0.07147   0.08501   0.04553
  10   32683.8    306.0   0.087094255   0.01945   0.00229   0.12336   0.06506
  11   32870.1    304.2   0.000389707   0.00009   0.00387  -0.00708   0.00473
  12   32979.3    303.2   0.080539169   0.01815   0.13261   0.01688   0.01684
  13   33178.9    301.4   0.008639177   0.00196  -0.01432  -0.01864  -0.03750
  14   33767.5    296.1   0.078188734   0.01804   0.03072   0.12648  -0.03322
  15   34093.4    293.3   0.018973122   0.00442  -0.00922  -0.06308  -0.01890
  16   34659.3    288.5   0.026605433   0.00630  -0.01994   0.07492   0.01707
  17   35100.4    284.9   0.045580717   0.01093  -0.07314   0.05141   0.05424
  18   35794.9    279.4   0.063652827   0.01557  -0.01539   0.11532   0.04513
  19   36324.4    275.3   0.254789163   0.06325   0.23837   0.07984  -0.00767
  20   36644.1    272.9   0.313567315   0.07853   0.02904  -0.26768  -0.07767
  21   37301.2    268.1   0.260452834   0.06640  -0.23024   0.02915  -0.11197
  22   37684.8    265.4   0.265514894   0.06839  -0.05728   0.24951   0.05336
  23   38094.8    262.5   0.061801279   0.01609  -0.00674  -0.10874  -0.06497
  24   38343.5    260.8   0.009403982   0.00246  -0.03151   0.03513  -0.01540
  25   38803.1    257.7   0.069306297   0.01838   0.04670   0.04349  -0.11961
  26   39022.5    256.3   0.225262018   0.06008   0.02408  -0.23336  -0.07098
  27   39896.0    250.7   0.000298984   0.00008   0.00588   0.00300   0.00616
  28   40082.8    249.5   0.009431319   0.00258  -0.03289   0.03678   0.01220
  29   40283.2    248.2   0.000251995   0.00007  -0.00416  -0.00427  -0.00582

-------------------------------------------------------------------
                             CD SPECTRUM
-------------------------------------------------------------------
State   Energy Wavelength       R         MX        MY        MZ   
        (cm-1)   (nm)       (1e40*cgs)   (au)      (au)      (au)  
-------------------------------------------------------------------
   0   18091.6    552.7     92.51821  -1.15731   2.42381   3.72315
   1   20865.2    479.3    -81.68024   1.29797   0.00109   4.04112
   2   25185.9    397.0    162.28599   0.89147  -0.28360   2.24924
   3   26210.9    381.5    -117.53632   0.63827  -0.97537   1.65493
   4   27170.9    368.0    -27.48464  -0.91582   0.69836  -1.33481
   5   29189.2    342.6      2.36261   1.79795  -2.29111   1.55651
   6   30394.9    329.0     -1.66020   0.12274   0.08258   0.10055
   7   30623.1    326.6    -17.47468   1.90558  -2.14999   1.76790
   8   31553.8    316.9    -84.88417  -0.40697  -0.99552  -0.81034
   9   32272.3    309.9    -54.37440  -1.45641   1.87253  -0.61411
  10   32683.8    306.0    -217.02956  -2.18918   2.35007  -2.53841
  11   32870.1    304.2     -2.39680  -0.21392  -0.25932   0.16796
  12   32979.3    303.2    162.17435  -0.88013   1.13676   1.21362
  13   33178.9    301.4     -0.79330   1.07134  -1.18801   0.22103
  14   33767.5    296.1     37.67658   0.61041  -0.72332  -1.54439
  15   34093.4    293.3    -18.57677   0.48714  -0.57507   0.80284
  16   34659.3    288.5    -77.31111  -0.26324   0.72077  -0.33670
  17   35100.4    284.9    -160.82750  -0.65996   1.29849  -0.29002
  18   35794.9    279.4    -54.10806  -1.12159   1.16110  -2.85440
  19   36324.4    275.3    481.43037  -1.53601   0.52871  -2.07750
  20   36644.1    272.9    -1055.64209   1.70344  -3.12600   2.39405
  21   37301.2    268.1    2030.68833   4.44024  -4.08329   1.67951
  22   37684.8    265.4    -797.58799  -0.50957   2.17363  -1.02883
  23   38094.8    262.5    -53.94546   2.26881  -2.57358   3.65780
  24   38343.5    260.8    107.02494   0.93655  -0.52693   1.26129
  25   38803.1    257.7    580.41462   2.95205  -3.01236   3.28152
  26   39022.5    256.3    -839.93383   2.26248  -3.16902   3.55973
  27   39896.0    250.7     10.63789  -0.44502   0.18351  -0.93145
  28   40082.8    249.5     -7.54339   0.05694   0.27687  -0.10475
  29   40283.2    248.2      3.47117   0.42181  -0.29067   0.73444

sTD-DFT done

Total run time:        4.440 sec

           *** ORCA-CIS/TD-DFT FINISHED WITHOUT ERROR ***

-------------------------   --------------------
FINAL SINGLE POINT ENERGY     -3910.798392412900
-------------------------   --------------------


                            ***************************************
                            *     ORCA property calculations      *
                            ***************************************

                                    ---------------------
                                    Active property flags
                                    ---------------------
   (+) Dipole Moment


------------------------------------------------------------------------------
                       ORCA ELECTRIC PROPERTIES CALCULATION
------------------------------------------------------------------------------

Dipole Moment Calculation                       ... on
Quadrupole Moment Calculation                   ... off
Polarizability Calculation                      ... off
GBWName                                         ... F-2F.gbw
Electron density file                           ... F-2F.scfp
The origin for moment calculation is the CENTER OF MASS  = (19.267096,  9.550193 -1.058904)

-------------
DIPOLE MOMENT
-------------
                                X             Y             Z
Electronic contribution:    -23.91154      26.56834      18.72676
Nuclear contribution   :     24.34987     -25.29828     -18.17806
                        -----------------------------------------
Total Dipole Moment    :      0.43833       1.27006       0.54870
                        -----------------------------------------
Magnitude (a.u.)       :      1.45130
Magnitude (Debye)      :      3.68890



--------------------
Rotational spectrum 
--------------------
 
Rotational constants in cm-1:     0.002910     0.000224     0.000214 
Rotational constants in MHz :    87.232436     6.707366     6.413898 

 Dipole components along the rotational axes: 
x,y,z [a.u.] :    -1.094355    -0.733754    -0.608487 
x,y,z [Debye]:    -2.781629    -1.865054    -1.546652 

 

Timings for individual modules:

Sum of individual times         ...     4419.253 sec (=  73.654 min)
GTO integral calculation        ...        3.772 sec (=   0.063 min)   0.1 %
SCF iterations                  ...     4410.981 sec (=  73.516 min)  99.8 %
CIS module                      ...        4.499 sec (=   0.075 min)   0.1 %
                             ****ORCA TERMINATED NORMALLY****
TOTAL RUN TIME: 0 days 1 hours 13 minutes 39 seconds 795 msec
