
                                 *****************
                                 * O   R   C   A *
                                 *****************

           --- An Ab Initio, DFT and Semiempirical electronic structure package ---

                  #######################################################
                  #                        -***-                        #
                  #          Department of theory and spectroscopy      #
                  #               Directorship: Frank Neese             #
                  #        Max Planck Institute fuer Kohlenforschung    #
                  #                Kaiser Wilhelm Platz 1               #
                  #                 D-45470 Muelheim/Ruhr               #
                  #                      Germany                        #
                  #                                                     #
                  #                  All rights reserved                #
                  #                        -***-                        #
                  #######################################################


                         Program Version 4.2.0 -  RELEASE  -


 With contributions from (in alphabetic order):
   Daniel Aravena         : Magnetic Suceptibility
   Michael Atanasov       : Ab Initio Ligand Field Theory (pilot matlab implementation)
   Alexander A. Auer      : GIAO ZORA, VPT2
   Ute Becker             : Parallelization
   Giovanni Bistoni       : ED, misc. LED, open-shell LED, HFLED
   Martin Brehm           : Molecular dynamics
   Dmytro Bykov           : SCF Hessian
   Vijay G. Chilkuri      : MRCI spin determinant printing, contributions to CSF-ICE
   Dipayan Datta          : RHF DLPNO-CCSD density
   Achintya Kumar Dutta   : EOM-CC, STEOM-CC
   Dmitry Ganyushin       : Spin-Orbit,Spin-Spin,Magnetic field MRCI
   Miquel Garcia          : C-PCM Hessian, Gaussian charge scheme
   Yang Guo               : DLPNO-NEVPT2, CIM, IAO-localization
   Andreas Hansen         : Spin unrestricted coupled pair/coupled cluster methods
   Benjamin Helmich-Paris : CASSCF linear response (MC-RPA)
   Lee Huntington         : MR-EOM, pCC
   Robert Izsak           : Overlap fitted RIJCOSX, COSX-SCS-MP3, EOM
   Christian Kollmar      : KDIIS, OOCD, Brueckner-CCSD(T), CCSD density
   Simone Kossmann        : Meta GGA functionals, TD-DFT gradient, OOMP2, MP2 Hessian
   Martin Krupicka        : AUTO-CI
   Lucas Lang             : DCDCAS
   Dagmar Lenk            : GEPOL surface, SMD
   Dimitrios Liakos       : Extrapolation schemes; Compound Job, initial MDCI parallelization
   Dimitrios Manganas     : Further ROCIS development; embedding schemes
   Dimitrios Pantazis     : SARC Basis sets
   Taras Petrenko         : DFT Hessian,TD-DFT gradient, ASA, ECA, R-Raman, ABS, FL, XAS/XES, NRVS
   Peter Pinski           : DLPNO-MP2, DLPNO-MP2 Gradient
   Christoph Reimann      : Effective Core Potentials
   Marius Retegan         : Local ZFS, SOC
   Christoph Riplinger    : Optimizer, TS searches, QM/MM, DLPNO-CCSD(T), (RO)-DLPNO pert. Triples
   Tobias Risthaus        : Range-separated hybrids, TD-DFT gradient, RPA, STAB
   Michael Roemelt        : Original ROCIS implementation
   Masaaki Saitow         : Open-shell DLPNO-CCSD energy and density
   Barbara Sandhoefer     : DKH picture change effects
   Avijit Sen             : IP-ROCIS
   Kantharuban Sivalingam : CASSCF convergence, NEVPT2, FIC-MRCI
   Bernardo de Souza      : ESD, SOC TD-DFT
   Georgi Stoychev        : AutoAux, RI-MP2 NMR
   Willem Van den Heuvel  : Paramagnetic NMR
   Boris Wezisla          : Elementary symmetry handling
   Frank Wennmohs         : Technical directorship


 We gratefully acknowledge several colleagues who have allowed us to
 interface, adapt or use parts of their codes:
   Stefan Grimme, W. Hujo, H. Kruse,             : VdW corrections, initial TS optimization,
                  C. Bannwarth                     DFT functionals, gCP, sTDA/sTD-DF
   Ed Valeev, F. Pavosevic, A. Kumar             : LibInt (2-el integral package), F12 methods
   Garnet Chan, S. Sharma, J. Yang, R. Olivares  : DMRG
   Ulf Ekstrom                                   : XCFun DFT Library
   Mihaly Kallay                                 : mrcc  (arbitrary order and MRCC methods)
   Andreas Klamt, Michael Diedenhofen            : otool_cosmo (COSMO solvation model)
   Jiri Pittner, Ondrej Demel                    : Mk-CCSD
   Frank Weinhold                                : gennbo (NPA and NBO analysis)
   Christopher J. Cramer and Donald G. Truhlar   : smd solvation model
   Lars Goerigk                                  : TD-DFT with DH, B97 family of functionals
   V. Asgeirsson, H. Jonsson                     : NEB implementation
   FAccTs GmbH                                   : IRC, NEB, NEB-TS, Multilevel, MM, QM/MM, CI optimization
   S Lehtola, MJT Oliveira, MAL Marques          : LibXC Library


 Your calculation uses the libint2 library for the computation of 2-el integrals
 For citations please refer to: http://libint.valeyev.net

 Your ORCA version has been built with support for libXC version: 4.2.3
 For citations please refer to: https://tddft.org/programs/libxc/

 This ORCA versions uses:
   CBLAS   interface :  Fast vector & matrix operations
   LAPACKE interface :  Fast linear algebra routines
   SCALAPACK package :  Parallel linear algebra routines


XCFun DFT library Copyright 2009-2010 Ulf Ekstrom and contributors.
See http://admol.org/xcfun for more information. This is free soft-
ware; see the source code for copying conditions. There is ABSOLUTELY
NO WARRANTY; not even for MERCHANTABILITY or FITNESS FOR A PARTICULAR
PURPOSE. For details see the documentation. Scientific users of this 
library should cite U. Ekstrom, L. Visscher, R. Bast, A. J. Thorvald-
sen and K. Ruud; J.Chem.Theor.Comp. 2010, DOI: 10.1021/ct100117s
XCFun Version 0.99 
----- Orbital basis set information -----
Your calculation utilizes the basis: def2-SVP
   F. Weigend and R. Ahlrichs, Phys. Chem. Chem. Phys. 7, 3297 (2005).

----- AuxJ basis set information -----
Your calculation utilizes the auxiliary basis: def2/J
   F. Weigend, Phys. Chem. Chem. Phys. 8, 1057 (2006).

================================================================================
                                        WARNINGS
                       Please study these warnings very carefully!
================================================================================

INFO   : Checking CIS options ...

WARNING: CIS/ROCIS methods need fully converged wavefunctions
  ===> : Setting SCFConvForced true
         You can overwrite this default with %scf ConvForced false 


INFO   : the flag for use of LIBINT has been found!

================================================================================
                                       INPUT FILE
================================================================================
NAME = FDICTF.inp
|  1> # ORCA input file
|  2> # FDICTF.out: Geometry 32
|  3> ! CAM-B3LYP def2-SVP def2/J RIJCOSX Grid4 TightSCF
|  4> %maxcore 5000
|  5> %tddft
|  6>     Mode sTDDFT
|  7>     Ethresh 5.0
|  8>     maxcore 5000
|  9> end
| 10> * xyz 0 1
| 11>    C        0.11292        -1.35880         0.97510
| 12>    O        0.66676        -1.74807         1.98245
| 13>    C        0.09486         0.02634         0.43875
| 14>    C        0.67159         1.16585         0.98525
| 15>    C        0.46650         2.38536         0.33084
| 16>    C       -0.30174         2.43556        -0.84065
| 17>    C       -0.86213         1.28146        -1.40256
| 18>    C       -0.65740         0.05803        -0.75454
| 19>    C       -1.06983        -1.32988        -1.09519
| 20>    C       -1.46891        -1.74451        -2.35758
| 21>    C       -1.53834        -3.11750        -2.73930
| 22>    N       -1.60343        -4.22873        -3.07537
| 23>    C       -1.76301        -0.82447        -3.41254
| 24>    N       -2.03664        -0.08402        -4.26595
| 25>    C       -0.76482        -2.16248         0.05678
| 26>    C       -1.20959        -3.37790         0.52969
| 27>    C       -2.32565        -4.17594         0.18121
| 28>    C       -3.42699        -3.89711        -0.64411
| 29>    C       -4.37907        -4.91588        -0.63337
| 30>    C       -4.04182        -5.97780         0.20535
| 31>    S       -2.52778        -5.74654         0.98241
| 32>    C       -5.08405        -6.97750         0.19572
| 33>    C       -6.09838        -6.51584        -0.70018
| 34>    C       -5.70111        -5.17322        -1.33861
| 35>    C       -6.64851        -3.98855        -0.99422
| 36>    C       -8.09644        -4.01248        -1.48048
| 37>    C       -5.37651        -5.31830        -2.85794
| 38>    C       -6.44452        -5.88856        -3.78948
| 39>    C       -7.23010        -7.29839        -0.90674
| 40>    C       -7.34561        -8.51328        -0.20939
| 41>    C       -6.34900        -8.94743         0.70120
| 42>    C       -5.20037        -8.18900         0.89477
| 43>    C       -6.73039       -10.29129         1.31775
| 44>    C       -5.65655       -11.37507         1.05370
| 45>    C       -5.36555       -11.64065        -0.42203
| 46>    C       -7.05234       -10.17427         2.83597
| 47>    C       -5.88962        -9.85476         3.76962
| 48>    C       -8.03436       -10.59525         0.58886
| 49>    C       -8.38457        -9.53887        -0.28543
| 50>    C       -9.54638        -9.59699        -1.07418
| 51>    C      -10.34546       -10.73139        -0.98751
| 52>    C      -10.00611       -11.77066        -0.07148
| 53>    C       -8.84797       -11.71291         0.71744
| 54>    C      -11.04641       -12.76670        -0.16731
| 55>    C      -12.00555       -12.39887        -1.11453
| 56>    C      -11.63545       -11.06707        -1.75216
| 57>    C      -11.35582       -11.31474        -3.26291
| 58>    C      -10.92192       -10.10450        -4.08487
| 59>    C      -12.69508        -9.96412        -1.49772
| 60>    C      -14.08423       -10.22356        -2.07702
| 61>    C      -13.00733       -13.36492        -1.25805
| 62>    C      -12.82229       -14.48027        -0.41799
| 63>    S      -11.36798       -14.28337         0.56717
| 64>    C      -13.77208       -15.52588        -0.28958
| 65>    C      -13.84466       -16.69625         0.42938
| 66>    C      -12.89737       -17.52414         1.16066
| 67>    C      -11.55816       -17.70788         0.86074
| 68>    C      -10.70305       -18.54625         1.64122
| 69>    N       -9.99779       -19.20981         2.28394
| 70>    C      -10.96493       -17.19164        -0.33110
| 71>    N      -10.47521       -16.81778        -1.31648
| 72>    C      -13.67907       -18.35236         2.11699
| 73>    C      -13.29053       -19.22058         3.14497
| 74>    C      -14.28534       -19.91886         3.84157
| 75>    C      -15.64348       -19.77486         3.52369
| 76>    C      -16.03779       -18.91174         2.49555
| 77>    C      -15.05077       -18.21214         1.81364
| 78>    C      -15.21949       -17.23692         0.70564
| 79>    O      -16.25758       -16.90713         0.16959
| 80>    H        1.25587         1.09028         1.90428
| 81>    H        0.90126         3.30180         0.73596
| 82>    H       -0.47081         3.39497        -1.33497
| 83>    H       -1.44366         1.35562        -2.31848
| 84>    H       -0.64176        -3.70717         1.41023
| 85>    H       -3.53108        -2.96100        -1.18689
| 86>    H       -6.15875        -3.07731        -1.37982
| 87>    H       -6.64613        -3.88920         0.10380
| 88>    H       -8.17879        -3.92478        -2.57268
| 89>    H       -8.64592        -3.16448        -1.04351
| 90>    H       -8.62080        -4.92707        -1.16835
| 91>    H       -4.47624        -5.94792        -2.93722
| 92>    H       -5.06378        -4.32306        -3.21615
| 93>    H       -6.71843        -6.91848        -3.51687
| 94>    H       -6.04520        -5.91991        -4.81560
| 95>    H       -7.36476        -5.29154        -3.81366
| 96>    H       -8.00999        -6.99197        -1.60291
| 97>    H       -4.39958        -8.51866         1.55871
| 98>    H       -5.98416       -12.30593         1.54899
| 99>    H       -4.72668       -11.07265         1.56168
|100>    H       -6.26182       -11.99683        -0.95212
|101>    H       -4.58370       -12.40670        -0.53918
|102>    H       -5.01591       -10.72837        -0.92978
|103>    H       -7.50965       -11.12927         3.14606
|104>    H       -7.83870        -9.41077         2.95508
|105>    H       -5.08062       -10.59692         3.69799
|106>    H       -6.24411        -9.85221         4.81263
|107>    H       -5.45767        -8.86271         3.56816
|108>    H       -9.80545        -8.77001        -1.73678
|109>    H       -8.59814       -12.52730         1.40145
|110>    H      -12.26546       -11.75134        -3.70627
|111>    H      -10.58713       -12.10165        -3.33328
|112>    H      -11.65742        -9.28608        -4.04736
|113>    H      -10.80063       -10.39464        -5.14017
|114>    H       -9.95513        -9.70450        -3.74594
|115>    H      -12.29932        -9.01572        -1.89499
|116>    H      -12.77473        -9.82257        -0.40765
|117>    H      -14.74886        -9.36940        -1.87305
|118>    H      -14.55115       -11.10935        -1.62152
|119>    H      -14.06272       -10.37303        -3.16824
|120>    H      -13.85969       -13.30254        -1.93525
|121>    H      -14.72318       -15.29824        -0.78962
|122>    H      -12.24651       -19.35914         3.42001
|123>    H      -13.99025       -20.58921         4.65233
|124>    H      -16.39218       -20.33822         4.08436
|125>    H      -17.08474       -18.77550         2.21518
|126> *
|127> 
|128>                          ****END OF INPUT****
================================================================================

                       ****************************
                       * Single Point Calculation *
                       ****************************

---------------------------------
CARTESIAN COORDINATES (ANGSTROEM)
---------------------------------
  C      0.112920   -1.358800    0.975100
  O      0.666760   -1.748070    1.982450
  C      0.094860    0.026340    0.438750
  C      0.671590    1.165850    0.985250
  C      0.466500    2.385360    0.330840
  C     -0.301740    2.435560   -0.840650
  C     -0.862130    1.281460   -1.402560
  C     -0.657400    0.058030   -0.754540
  C     -1.069830   -1.329880   -1.095190
  C     -1.468910   -1.744510   -2.357580
  C     -1.538340   -3.117500   -2.739300
  N     -1.603430   -4.228730   -3.075370
  C     -1.763010   -0.824470   -3.412540
  N     -2.036640   -0.084020   -4.265950
  C     -0.764820   -2.162480    0.056780
  C     -1.209590   -3.377900    0.529690
  C     -2.325650   -4.175940    0.181210
  C     -3.426990   -3.897110   -0.644110
  C     -4.379070   -4.915880   -0.633370
  C     -4.041820   -5.977800    0.205350
  S     -2.527780   -5.746540    0.982410
  C     -5.084050   -6.977500    0.195720
  C     -6.098380   -6.515840   -0.700180
  C     -5.701110   -5.173220   -1.338610
  C     -6.648510   -3.988550   -0.994220
  C     -8.096440   -4.012480   -1.480480
  C     -5.376510   -5.318300   -2.857940
  C     -6.444520   -5.888560   -3.789480
  C     -7.230100   -7.298390   -0.906740
  C     -7.345610   -8.513280   -0.209390
  C     -6.349000   -8.947430    0.701200
  C     -5.200370   -8.189000    0.894770
  C     -6.730390  -10.291290    1.317750
  C     -5.656550  -11.375070    1.053700
  C     -5.365550  -11.640650   -0.422030
  C     -7.052340  -10.174270    2.835970
  C     -5.889620   -9.854760    3.769620
  C     -8.034360  -10.595250    0.588860
  C     -8.384570   -9.538870   -0.285430
  C     -9.546380   -9.596990   -1.074180
  C    -10.345460  -10.731390   -0.987510
  C    -10.006110  -11.770660   -0.071480
  C     -8.847970  -11.712910    0.717440
  C    -11.046410  -12.766700   -0.167310
  C    -12.005550  -12.398870   -1.114530
  C    -11.635450  -11.067070   -1.752160
  C    -11.355820  -11.314740   -3.262910
  C    -10.921920  -10.104500   -4.084870
  C    -12.695080   -9.964120   -1.497720
  C    -14.084230  -10.223560   -2.077020
  C    -13.007330  -13.364920   -1.258050
  C    -12.822290  -14.480270   -0.417990
  S    -11.367980  -14.283370    0.567170
  C    -13.772080  -15.525880   -0.289580
  C    -13.844660  -16.696250    0.429380
  C    -12.897370  -17.524140    1.160660
  C    -11.558160  -17.707880    0.860740
  C    -10.703050  -18.546250    1.641220
  N     -9.997790  -19.209810    2.283940
  C    -10.964930  -17.191640   -0.331100
  N    -10.475210  -16.817780   -1.316480
  C    -13.679070  -18.352360    2.116990
  C    -13.290530  -19.220580    3.144970
  C    -14.285340  -19.918860    3.841570
  C    -15.643480  -19.774860    3.523690
  C    -16.037790  -18.911740    2.495550
  C    -15.050770  -18.212140    1.813640
  C    -15.219490  -17.236920    0.705640
  O    -16.257580  -16.907130    0.169590
  H      1.255870    1.090280    1.904280
  H      0.901260    3.301800    0.735960
  H     -0.470810    3.394970   -1.334970
  H     -1.443660    1.355620   -2.318480
  H     -0.641760   -3.707170    1.410230
  H     -3.531080   -2.961000   -1.186890
  H     -6.158750   -3.077310   -1.379820
  H     -6.646130   -3.889200    0.103800
  H     -8.178790   -3.924780   -2.572680
  H     -8.645920   -3.164480   -1.043510
  H     -8.620800   -4.927070   -1.168350
  H     -4.476240   -5.947920   -2.937220
  H     -5.063780   -4.323060   -3.216150
  H     -6.718430   -6.918480   -3.516870
  H     -6.045200   -5.919910   -4.815600
  H     -7.364760   -5.291540   -3.813660
  H     -8.009990   -6.991970   -1.602910
  H     -4.399580   -8.518660    1.558710
  H     -5.984160  -12.305930    1.548990
  H     -4.726680  -11.072650    1.561680
  H     -6.261820  -11.996830   -0.952120
  H     -4.583700  -12.406700   -0.539180
  H     -5.015910  -10.728370   -0.929780
  H     -7.509650  -11.129270    3.146060
  H     -7.838700   -9.410770    2.955080
  H     -5.080620  -10.596920    3.697990
  H     -6.244110   -9.852210    4.812630
  H     -5.457670   -8.862710    3.568160
  H     -9.805450   -8.770010   -1.736780
  H     -8.598140  -12.527300    1.401450
  H    -12.265460  -11.751340   -3.706270
  H    -10.587130  -12.101650   -3.333280
  H    -11.657420   -9.286080   -4.047360
  H    -10.800630  -10.394640   -5.140170
  H     -9.955130   -9.704500   -3.745940
  H    -12.299320   -9.015720   -1.894990
  H    -12.774730   -9.822570   -0.407650
  H    -14.748860   -9.369400   -1.873050
  H    -14.551150  -11.109350   -1.621520
  H    -14.062720  -10.373030   -3.168240
  H    -13.859690  -13.302540   -1.935250
  H    -14.723180  -15.298240   -0.789620
  H    -12.246510  -19.359140    3.420010
  H    -13.990250  -20.589210    4.652330
  H    -16.392180  -20.338220    4.084360
  H    -17.084740  -18.775500    2.215180

----------------------------
CARTESIAN COORDINATES (A.U.)
----------------------------
  NO LB      ZA    FRAG     MASS         X           Y           Z
   0 C     6.0000    0    12.011    0.213388   -2.567760    1.842672
   1 O     8.0000    0    15.999    1.259994   -3.303374    3.746288
   2 C     6.0000    0    12.011    0.179259    0.049775    0.829117
   3 C     6.0000    0    12.011    1.269121    2.203137    1.861853
   4 C     6.0000    0    12.011    0.881557    4.507677    0.625197
   5 C     6.0000    0    12.011   -0.570206    4.602541   -1.588598
   6 C     6.0000    0    12.011   -1.629190    2.421608   -2.650454
   7 C     6.0000    0    12.011   -1.242306    0.109661   -1.425874
   8 C     6.0000    0    12.011   -2.021686   -2.513109   -2.069609
   9 C     6.0000    0    12.011   -2.775838   -3.296646   -4.455181
  10 C     6.0000    0    12.011   -2.907041   -5.891221   -5.176527
  11 N     7.0000    0    14.007   -3.030044   -7.991142   -5.811607
  12 C     6.0000    0    12.011   -3.331606   -1.558023   -6.448766
  13 N     7.0000    0    14.007   -3.848692   -0.158775   -8.061477
  14 C     6.0000    0    12.011   -1.445300   -4.086495    0.107299
  15 C     6.0000    0    12.011   -2.285794   -6.383306    1.000969
  16 C     6.0000    0    12.011   -4.394842   -7.891383    0.342437
  17 C     6.0000    0    12.011   -6.476073   -7.364471   -1.217192
  18 C     6.0000    0    12.011   -8.275243   -9.289667   -1.196896
  19 C     6.0000    0    12.011   -7.637933  -11.296405    0.388055
  20 S    16.0000    0    32.060   -4.776812  -10.859387    1.856486
  21 C     6.0000    0    12.011   -9.607462  -13.185564    0.369857
  22 C     6.0000    0    12.011  -11.524268  -12.313153   -1.323148
  23 C     6.0000    0    12.011  -10.773537   -9.775969   -2.529606
  24 C     6.0000    0    12.011  -12.563863   -7.537267   -1.878804
  25 C     6.0000    0    12.011  -15.300054   -7.582488   -2.797702
  26 C     6.0000    0    12.011  -10.160131  -10.050130   -5.400724
  27 C     6.0000    0    12.011  -12.178378  -11.127766   -7.161079
  28 C     6.0000    0    12.011  -13.662909  -13.791958   -1.713490
  29 C     6.0000    0    12.011  -13.881191  -16.087768   -0.395690
  30 C     6.0000    0    12.011  -11.997871  -16.908192    1.325076
  31 C     6.0000    0    12.011   -9.827275  -15.474967    1.690870
  32 C     6.0000    0    12.011  -12.718594  -19.447720    2.490187
  33 C     6.0000    0    12.011  -10.689330  -21.495767    1.991204
  34 C     6.0000    0    12.011  -10.139420  -21.997641   -0.797521
  35 C     6.0000    0    12.011  -13.326991  -19.226584    5.359207
  36 C     6.0000    0    12.011  -11.129769  -18.622798    7.123549
  37 C     6.0000    0    12.011  -15.182740  -20.022121    1.112784
  38 C     6.0000    0    12.011  -15.844541  -18.025852   -0.539385
  39 C     6.0000    0    12.011  -18.040044  -18.135683   -2.029906
  40 C     6.0000    0    12.011  -19.550086  -20.279388   -1.866123
  41 C     6.0000    0    12.011  -18.908808  -22.243324   -0.135078
  42 C     6.0000    0    12.011  -16.720240  -22.134192    1.355765
  43 C     6.0000    0    12.011  -20.874690  -24.125567   -0.316170
  44 C     6.0000    0    12.011  -22.687202  -23.430469   -2.106156
  45 C     6.0000    0    12.011  -21.987814  -20.913731   -3.311103
  46 C     6.0000    0    12.011  -21.459390  -21.381760   -6.166006
  47 C     6.0000    0    12.011  -20.639438  -19.094738   -7.719286
  48 C     6.0000    0    12.011  -23.990224  -18.829458   -2.830281
  49 C     6.0000    0    12.011  -26.615338  -19.319729   -3.924999
  50 C     6.0000    0    12.011  -24.580291  -25.256039   -2.377370
  51 C     6.0000    0    12.011  -24.230617  -27.363745   -0.789887
  52 S    16.0000    0    32.060  -21.482369  -26.991658    1.071796
  53 C     6.0000    0    12.011  -26.025459  -29.339661   -0.547227
  54 C     6.0000    0    12.011  -26.162616  -31.551340    0.811411
  55 C     6.0000    0    12.011  -24.372497  -33.115825    2.193330
  56 C     6.0000    0    12.011  -21.841757  -33.463044    1.626563
  57 C     6.0000    0    12.011  -20.225833  -35.047333    3.101456
  58 N     7.0000    0    14.007  -18.893085  -36.301280    4.316021
  59 C     6.0000    0    12.011  -20.720715  -32.487491   -0.625688
  60 N     7.0000    0    14.007  -19.795278  -31.780998   -2.487787
  61 C     6.0000    0    12.011  -25.849696  -34.680934    4.000531
  62 C     6.0000    0    12.011  -25.115462  -36.321632    5.943132
  63 C     6.0000    0    12.011  -26.995380  -37.641190    7.259515
  64 C     6.0000    0    12.011  -29.561893  -37.369070    6.658809
  65 C     6.0000    0    12.011  -30.307031  -35.738009    4.715906
  66 C     6.0000    0    12.011  -28.441833  -34.415957    3.427283
  67 C     6.0000    0    12.011  -28.760668  -32.573058    1.333466
  68 O     8.0000    0    15.999  -30.722374  -31.949845    0.320479
  69 H     1.0000    0     1.008    2.373250    2.060331    3.598568
  70 H     1.0000    0     1.008    1.703135    6.239498    1.390763
  71 H     1.0000    0     1.008   -0.889702    6.415564   -2.522728
  72 H     1.0000    0     1.008   -2.728122    2.561751   -4.381292
  73 H     1.0000    0     1.008   -1.212751   -7.005536    2.664948
  74 H     1.0000    0     1.008   -6.672774   -5.595479   -2.242897
  75 H     1.0000    0     1.008  -11.638351   -5.815273   -2.607482
  76 H     1.0000    0     1.008  -12.559366   -7.349523    0.196154
  77 H     1.0000    0     1.008  -15.455673   -7.416759   -4.861661
  78 H     1.0000    0     1.008  -16.338421   -5.980001   -1.971948
  79 H     1.0000    0     1.008  -16.290951   -9.310813   -2.207862
  80 H     1.0000    0     1.008   -8.458868  -11.239940   -5.550541
  81 H     1.0000    0     1.008   -9.569157   -8.169399   -6.077643
  82 H     1.0000    0     1.008  -12.695993  -13.074032   -6.645921
  83 H     1.0000    0     1.008  -11.423772  -11.187009   -9.100165
  84 H     1.0000    0     1.008  -13.917379   -9.999561   -7.206773
  85 H     1.0000    0     1.008  -15.136687  -13.212908   -3.029061
  86 H     1.0000    0     1.008   -8.314001  -16.097934    2.945535
  87 H     1.0000    0     1.008  -11.308424  -23.254838    2.927167
  88 H     1.0000    0     1.008   -8.932131  -20.924276    2.951148
  89 H     1.0000    0     1.008  -11.833125  -22.670723   -1.799246
  90 H     1.0000    0     1.008   -8.661938  -23.445265   -1.018903
  91 H     1.0000    0     1.008   -9.478696  -20.273681   -1.757030
  92 H     1.0000    0     1.008  -14.191182  -21.031272    5.945192
  93 H     1.0000    0     1.008  -14.812996  -17.783778    5.584292
  94 H     1.0000    0     1.008   -9.600980  -20.025277    6.988188
  95 H     1.0000    0     1.008  -11.799658  -18.617979    9.094553
  96 H     1.0000    0     1.008  -10.313502  -16.748095    6.742845
  97 H     1.0000    0     1.008  -18.529615  -16.572917   -3.282039
  98 H     1.0000    0     1.008  -16.248130  -23.673166    2.648357
  99 H     1.0000    0     1.008  -23.178360  -22.206814   -7.003835
 100 H     1.0000    0     1.008  -20.006776  -22.868804   -6.298986
 101 H     1.0000    0     1.008  -22.029331  -17.548148   -7.648402
 102 H     1.0000    0     1.008  -20.410233  -19.643023   -9.713514
 103 H     1.0000    0     1.008  -18.812469  -18.338847   -7.078801
 104 H     1.0000    0     1.008  -23.242346  -17.037242   -3.581012
 105 H     1.0000    0     1.008  -24.140741  -18.561967   -0.770347
 106 H     1.0000    0     1.008  -27.871306  -17.705600   -3.539552
 107 H     1.0000    0     1.008  -27.497688  -20.993629   -3.064229
 108 H     1.0000    0     1.008  -26.574689  -19.602186   -5.987106
 109 H     1.0000    0     1.008  -26.191018  -25.138157   -3.657093
 110 H     1.0000    0     1.008  -27.822778  -28.909484   -1.492166
 111 H     1.0000    0     1.008  -23.142550  -36.583473    6.462882
 112 H     1.0000    0     1.008  -26.437741  -38.907968    8.791630
 113 H     1.0000    0     1.008  -30.976731  -38.433666    7.718322
 114 H     1.0000    0     1.008  -32.285480  -35.480553    4.186084

--------------------------------
INTERNAL COORDINATES (ANGSTROEM)
--------------------------------
 C      0   0   0     0.000000000000     0.00000000     0.00000000
 O      1   0   0     1.213681960400     0.00000000     0.00000000
 C      1   2   0     1.485466359666   127.17870007     0.00000000
 C      3   1   2     1.389159020055   128.15527821   358.21576697
 C      4   3   1     1.399113646671   118.04228860   183.13391968
 C      5   4   3     1.401820800852   120.16066952     0.00000000
 C      6   5   4     1.400616510755   121.67023624   358.82651730
 C      7   6   5     1.399508934662   118.42645910     0.97981229
 C      8   7   6     1.487425660495   131.99703062   181.99710840
 C      9   8   7     1.387375722506   124.54207560    18.20445816
 C     10   9   8     1.426755838747   123.02715568   163.94026360
 N     11  10   9     1.162760450781   178.64522365   180.08720065
 C     10   9   8     1.430352758308   122.54886983   348.06696433
 N     13  10   9     1.162518046096   178.24579757   252.97206243
 C      9   8   7     1.453715495205   107.14321057   189.17566020
 C     15   9   8     1.377936862632   135.18848889   158.09250167
 C     16  15   9     1.415590362923   131.85557248   346.75856759
 C     17  16  15     1.404225433077   130.62419965   350.86211978
 C     18  17  16     1.394440384850   112.69969077   185.46874765
 C     19  18  17     1.394583409947   113.31822993     0.84623950
 S     20  19  18     1.717445938829   112.50499155   359.22546915
 C     20  19  18     1.444207810462   110.39953224   178.48989267
 C     22  20  19     1.429906330673   107.01449702     0.68126313
 C     19  18  17     1.520321378788   135.54608326   182.26856156
 C     24  19  18     1.555510926030   107.33820109   301.73066663
 C     25  24  19     1.527587220881   119.66276385   184.36663290
 C     24  19  18     1.560377202890   106.64944566    64.75882143
 C     27  24  19     1.527615330932   118.88338824   166.47099449
 C     23  22  20     1.391345282272   119.23725550   179.68312767
 C     29  23  22     1.405559424108   118.64185028     0.87305007
 C     30  29  23     1.418059188715   121.69910601     0.62874913
 C     31  30  29     1.389977081358   120.20804723   357.97473403
 C     31  30  29     1.526942020576   110.68266044   179.79759871
 C     33  31  30     1.548364891264   111.95891970   122.02561638
 C     34  33  31     1.527413751837   114.74617306   301.58903398
 C     33  31  30     1.556386022586   112.29496396   248.01874997
 C     36  33  31     1.525026806650   117.08068848   291.38082076
 C     33  31  30     1.524470424311   101.30714270     2.69894451
 C     38  33  31     1.415262785704   110.98973279   357.70240860
 C     39  38  33     1.405456144104   121.35755480   179.56028856
 C     40  39  38     1.390289140898   118.28620297   359.32839215
 C     41  40  39     1.426306950239   119.85606917     2.68549246
 C     38  33  31     1.388401211502   128.13174385   178.86411633
 C     42  41  40     1.443434501631   106.77943233   177.28772774
 C     44  42  41     1.397309620986   110.98146392     0.78092064
 C     45  44  42     1.522247439446   110.32655005     0.54212548
 C     46  45  44     1.556245137599   108.12428294   115.57893907
 C     47  46  45     1.525964714271   116.60108536   181.85038944
 C     46  45  44     1.550501258626   112.79654611   241.64807803
 C     49  46  45     1.527296738064   116.00922286   297.36081419
 C     45  44  42     1.399076038427   112.28844375   178.24378102
 C     51  45  44     1.408526260920   113.04929892     0.09800561
 S     44  42  41     1.715562888442   135.78408498   179.31454637
 C     52  51  45     1.418411239486   123.35038993   173.66433026
 C     54  52  51     1.375477108097   135.22672259   179.73299590
 C     55  54  52     1.455173747221   135.43192346   344.71196159
 C     56  55  54     1.384628404338   126.60328408   327.69101438
 C     57  56  55     1.429414705185   122.55852875   180.07437633
 N     58  57  56     1.162236008563   178.90486218   252.57279763
 C     57  56  55     1.427903412735   122.32008906   353.09314520
 N     60  57  56     1.162140577727   177.57089048   246.33650985
 C     56  55  54     1.487134939170   107.32752284   159.03549804
 C     62  56  55     1.400539960301   132.17732832   186.99813036
 C     63  62  56     1.400890236421   118.48807955   183.09665035
 C     64  63  62     1.402258162394   121.59249026     0.58624362
 C     65  64  63     1.399116996573   120.19175858   359.57062848
 C     66  65  64     1.388758398174   118.11848887   359.89286827
 C     67  66  65     1.485659613370   128.03679044   180.69570207
 O     68  67  66     1.213977715899   127.21110357   357.58117340
 H      4   3   1     1.091654745879   119.77635407     2.56972045
 H      5   4   3     1.092245734988   119.96711482   179.68867236
 H      6   5   4     1.092430535732   119.63103388   178.94003508
 H      7   6   5     1.087467835340   119.71361916   180.67274131
 H     16  15   9     1.098271520800   111.88380739   174.61012216
 H     18  17  16     1.087081776409   122.65273853     2.66928110
 H     25  24  19     1.104042823083   106.32503305    60.77895857
 H     25  24  19     1.102508053168   106.72708693   308.16474678
 H     26  25  24     1.098805557185   112.71776244   292.34732147
 H     26  25  24     1.100897384546   109.55300538   173.08383757
 H     26  25  24     1.099478701294   112.00647645    54.69156890
 H     27  24  19     1.101450287439   107.05343464    43.47989658
 H     27  24  19     1.103003678416   106.93597465   291.24391499
 H     28  27  24     1.100035502427   111.86815833   298.35757883
 H     28  27  24     1.101526912654   108.97965929   180.09021919
 H     28  27  24     1.097205181541   113.37135972    60.54683475
 H     29  23  22     1.089391709809   121.26388511   181.72632803
 H     32  31  30     1.091217972405   121.75718892   182.48787344
 H     34  33  31     1.104147107862   107.92823263   178.46380869
 H     34  33  31     1.101889174872   108.33296492    64.15418889
 H     35  34  33     1.100526925341   111.49910403   298.99150773
 H     35  34  33     1.100838838114   111.04653613   179.03914996
 H     35  34  33     1.101050857363   111.22185401    59.27005293
 H     36  33  31     1.103319194159   107.14672908   168.69051601
 H     36  33  31     1.102488771689   107.75815098    55.15773527
 H     37  36  33     1.100187857822   112.29918734   302.20859429
 H     37  36  33     1.101607699093   109.56003971   182.89274386
 H     37  36  33     1.100604441478   112.08672151    63.88576557
 H     40  39  38     1.090895020293   120.38692644   179.50175883
 H     43  38  33     1.092481478607   121.60504530   359.81216552
 H     47  46  45     1.102103706191   107.77421001    58.43741888
 H     47  46  45     1.102299233920   107.51082709   305.15633247
 H     48  47  46     1.100989803086   112.41084274   302.33426251
 H     48  47  46     1.101158741372   109.78955601   182.62030599
 H     48  47  46     1.099798367429   111.86435801    63.84016274
 H     49  46  45     1.101776742584   107.91896345   173.93227383
 H     49  46  45     1.102103956031   107.64171458    60.17578599
 H     50  49  46     1.101329243869   110.29790384   182.00348616
 H     50  49  46     1.100053844364   111.45595896    63.35014677
 H     50  49  46     1.101619285143   112.39598130   301.93194530
 H     51  45  44     1.090416743268   125.72638001   180.05192311
 H     54  52  51     1.098385716040   112.69542663   351.16365044
 H     63  62  56     1.088496042988   122.03666826     3.63628634
 H     64  63  62     1.092601944077   118.88244822   180.69173279
 H     65  64  63     1.091914386983   119.65134525   179.71082831
 H     66  65  64     1.092370347913   122.38849890   179.73148891

---------------------------
INTERNAL COORDINATES (A.U.)
---------------------------
 C      0   0   0     0.000000000000     0.00000000     0.00000000
 O      1   0   0     2.293526518836     0.00000000     0.00000000
 C      1   2   0     2.807124600922   127.17870007     0.00000000
 C      3   1   2     2.625130104370   128.15527821   358.21576697
 C      4   3   1     2.643941622439   118.04228860   183.13391968
 C      5   4   3     2.649057402444   120.16066952     0.00000000
 C      6   5   4     2.646781623976   121.67023624   358.82651730
 C      7   6   5     2.644688608488   118.42645910     0.97981229
 C      8   7   6     2.810827142903   131.99703062   181.99710840
 C      9   8   7     2.621760160388   124.54207560    18.20445816
 C     10   9   8     2.696177795206   123.02715568   163.94026360
 N     11  10   9     2.197298811331   178.64522365   180.08720065
 C     10   9   8     2.702974988101   122.54886983   348.06696433
 N     13  10   9     2.196840732864   178.24579757   252.97206243
 C      9   8   7     2.747124162576   107.14321057   189.17566020
 C     15   9   8     2.603923300209   135.18848889   158.09250167
 C     16  15   9     2.675078103742   131.85557248   346.75856759
 C     17  16  15     2.653601498802   130.62419965   350.86211978
 C     18  17  16     2.635110437446   112.69969077   185.46874765
 C     19  18  17     2.635380715710   113.31822993     0.84623950
 S     20  19  18     3.245502474202   112.50499155   359.22546915
 C     20  19  18     2.729157242244   110.39953224   178.48989267
 C     22  20  19     2.702131362133   107.01449702     0.68126313
 C     19  18  17     2.872991041455   135.54608326   182.26856156
 C     24  19  18     2.939489648520   107.33820109   301.73066663
 C     25  24  19     2.886721493144   119.66276385   184.36663290
 C     24  19  18     2.948685579077   106.64944566    64.75882143
 C     27  24  19     2.886774613442   118.88338824   166.47099449
 C     23  22  20     2.629261541217   119.23725550   179.68312767
 C     29  23  22     2.656122376517   118.64185028     0.87305007
 C     30  29  23     2.679743508363   121.69910601     0.62874913
 C     31  30  29     2.626676016193   120.20804723   357.97473403
 C     31  30  29     2.885502241265   110.68266044   179.79759871
 C     33  31  30     2.925985599868   111.95891970   122.02561638
 C     34  33  31     2.886393684157   114.74617306   301.58903398
 C     33  31  30     2.941143341350   112.29496396   248.01874997
 C     36  33  31     2.881883011456   117.08068848   291.38082076
 C     33  31  30     2.880831601211   101.30714270     2.69894451
 C     38  33  31     2.674459072512   110.98973279   357.70240860
 C     39  38  33     2.655927205594   121.35755480   179.56028856
 C     40  39  38     2.627265723263   118.28620297   359.32839215
 C     41  40  39     2.695329518860   119.85606917     2.68549246
 C     38  33  31     2.623698053743   128.13174385   178.86411633
 C     42  41  40     2.727695900337   106.77943233   177.28772774
 C     44  42  41     2.640532507957   110.98146392     0.78092064
 C     45  44  42     2.876630768616   110.32655005     0.54212548
 C     46  45  44     2.940877107308   108.12428294   115.57893907
 C     47  46  45     2.883655399999   116.60108536   181.85038944
 C     46  45  44     2.930022749103   112.79654611   241.64807803
 C     49  46  45     2.886172560172   116.00922286   297.36081419
 C     45  44  42     2.643870553158   112.28844375   178.24378102
 C     51  45  44     2.661728885574   113.04929892     0.09800561
 S     44  42  41     3.241944024675   135.78408498   179.31454637
 C     52  51  45     2.680408787904   123.35038993   173.66433026
 C     54  52  51     2.599275037782   135.22672259   179.73299590
 C     55  54  52     2.749879859519   135.43192346   344.71196159
 C     56  55  54     2.616568481447   126.60328408   327.69101438
 C     57  56  55     2.701202324600   122.55852875   180.07437633
 N     58  57  56     2.196307759165   178.90486218   252.57279763
 C     57  56  55     2.698346395761   122.32008906   353.09314520
 N     60  57  56     2.196127421021   177.57089048   246.33650985
 C     56  55  54     2.810277759217   107.32752284   159.03549804
 C     62  56  55     2.646636964582   132.17732832   186.99813036
 C     63  62  56     2.647298890520   118.48807955   183.09665035
 C     64  63  62     2.649883895980   121.59249026     0.58624362
 C     65  64  63     2.643947952838   120.19175858   359.57062848
 C     66  65  64     2.624373038733   118.11848887   359.89286827
 C     67  66  65     2.807489797497   128.03679044   180.69570207
 O     68  67  66     2.294085415733   127.21110357   357.58117340
 H      4   3   1     2.062928502507   119.77635407     2.56972045
 H      5   4   3     2.064045310071   119.96711482   179.68867236
 H      6   5   4     2.064394532867   119.63103388   178.94003508
 H      7   6   5     2.055016388242   119.71361916   180.67274131
 H     16  15   9     2.075432394997   111.88380739   174.61012216
 H     18  17  16     2.054286842589   122.65273853     2.66928110
 H     25  24  19     2.086338575747   106.32503305    60.77895857
 H     25  24  19     2.083438280930   106.72708693   308.16474678
 H     26  25  24     2.076441577510   112.71776244   292.34732147
 H     26  25  24     2.080394558342   109.55300538   173.08383757
 H     26  25  24     2.077713635526   112.00647645    54.69156890
 H     27  24  19     2.081439393389   107.05343464    43.47989658
 H     27  24  19     2.084374876915   106.93597465   291.24391499
 H     28  27  24     2.078765837178   111.86815833   298.35757883
 H     28  27  24     2.081584194059   108.97965929   180.09021919
 H     28  27  24     2.073417305831   113.37135972    60.54683475
 H     29  23  22     2.058651984103   121.26388511   181.72632803
 H     32  31  30     2.062103120259   121.75718892   182.48787344
 H     34  33  31     2.086535645420   107.92823263   178.46380869
 H     34  33  31     2.082268770440   108.33296492    64.15418889
 H     35  34  33     2.079694491900   111.49910403   298.99150773
 H     35  34  33     2.080283921619   111.04653613   179.03914996
 H     35  34  33     2.080684579935   111.22185401    59.27005293
 H     36  33  31     2.084971115259   107.14672908   168.69051601
 H     36  33  31     2.083401844215   107.75815098    55.15773527
 H     37  36  33     2.079053747150   112.29918734   302.20859429
 H     37  36  33     2.081736858304   109.56003971   182.89274386
 H     37  36  33     2.079840976170   112.08672151    63.88576557
 H     40  39  38     2.061492829212   120.38692644   179.50175883
 H     43  38  33     2.064490800949   121.60504530   359.81216552
 H     47  46  45     2.082674175881   107.77421001    58.43741888
 H     47  46  45     2.083043669739   107.51082709   305.15633247
 H     48  47  46     2.080569204073   112.41084274   302.33426251
 H     48  47  46     2.080888451167   109.78955601   182.62030599
 H     48  47  46     2.078317716975   111.86435801    63.84016274
 H     49  46  45     2.082056304208   107.91896345   173.93227383
 H     49  46  45     2.082674648010   107.64171458    60.17578599
 H     50  49  46     2.081210654190   110.29790384   182.00348616
 H     50  49  46     2.078800498415   111.45595896    63.35014677
 H     50  49  46     2.081758752767   112.39598130   301.93194530
 H     51  45  44     2.060589016620   125.72638001   180.05192311
 H     54  52  51     2.075648192726   112.69542663   351.16365044
 H     63  62  56     2.056959419104   122.03666826     3.63628634
 H     64  63  62     2.064718447695   118.88244822   180.69173279
 H     65  64  63     2.063419153086   119.65134525   179.71082831
 H     66  65  64     2.064280794372   122.38849890   179.73148891

---------------------
BASIS SET INFORMATION
---------------------
There are 5 groups of distinct atoms

 Group   1 Type C   : 7s4p1d contracted to 3s2p1d pattern {511/31/1}
 Group   2 Type O   : 7s4p1d contracted to 3s2p1d pattern {511/31/1}
 Group   3 Type N   : 7s4p1d contracted to 3s2p1d pattern {511/31/1}
 Group   4 Type S   : 10s7p1d contracted to 4s3p1d pattern {5311/511/1}
 Group   5 Type H   : 4s1p contracted to 2s1p pattern {31/1}

Atom   0C    basis set group =>   1
Atom   1O    basis set group =>   2
Atom   2C    basis set group =>   1
Atom   3C    basis set group =>   1
Atom   4C    basis set group =>   1
Atom   5C    basis set group =>   1
Atom   6C    basis set group =>   1
Atom   7C    basis set group =>   1
Atom   8C    basis set group =>   1
Atom   9C    basis set group =>   1
Atom  10C    basis set group =>   1
Atom  11N    basis set group =>   3
Atom  12C    basis set group =>   1
Atom  13N    basis set group =>   3
Atom  14C    basis set group =>   1
Atom  15C    basis set group =>   1
Atom  16C    basis set group =>   1
Atom  17C    basis set group =>   1
Atom  18C    basis set group =>   1
Atom  19C    basis set group =>   1
Atom  20S    basis set group =>   4
Atom  21C    basis set group =>   1
Atom  22C    basis set group =>   1
Atom  23C    basis set group =>   1
Atom  24C    basis set group =>   1
Atom  25C    basis set group =>   1
Atom  26C    basis set group =>   1
Atom  27C    basis set group =>   1
Atom  28C    basis set group =>   1
Atom  29C    basis set group =>   1
Atom  30C    basis set group =>   1
Atom  31C    basis set group =>   1
Atom  32C    basis set group =>   1
Atom  33C    basis set group =>   1
Atom  34C    basis set group =>   1
Atom  35C    basis set group =>   1
Atom  36C    basis set group =>   1
Atom  37C    basis set group =>   1
Atom  38C    basis set group =>   1
Atom  39C    basis set group =>   1
Atom  40C    basis set group =>   1
Atom  41C    basis set group =>   1
Atom  42C    basis set group =>   1
Atom  43C    basis set group =>   1
Atom  44C    basis set group =>   1
Atom  45C    basis set group =>   1
Atom  46C    basis set group =>   1
Atom  47C    basis set group =>   1
Atom  48C    basis set group =>   1
Atom  49C    basis set group =>   1
Atom  50C    basis set group =>   1
Atom  51C    basis set group =>   1
Atom  52S    basis set group =>   4
Atom  53C    basis set group =>   1
Atom  54C    basis set group =>   1
Atom  55C    basis set group =>   1
Atom  56C    basis set group =>   1
Atom  57C    basis set group =>   1
Atom  58N    basis set group =>   3
Atom  59C    basis set group =>   1
Atom  60N    basis set group =>   3
Atom  61C    basis set group =>   1
Atom  62C    basis set group =>   1
Atom  63C    basis set group =>   1
Atom  64C    basis set group =>   1
Atom  65C    basis set group =>   1
Atom  66C    basis set group =>   1
Atom  67C    basis set group =>   1
Atom  68O    basis set group =>   2
Atom  69H    basis set group =>   5
Atom  70H    basis set group =>   5
Atom  71H    basis set group =>   5
Atom  72H    basis set group =>   5
Atom  73H    basis set group =>   5
Atom  74H    basis set group =>   5
Atom  75H    basis set group =>   5
Atom  76H    basis set group =>   5
Atom  77H    basis set group =>   5
Atom  78H    basis set group =>   5
Atom  79H    basis set group =>   5
Atom  80H    basis set group =>   5
Atom  81H    basis set group =>   5
Atom  82H    basis set group =>   5
Atom  83H    basis set group =>   5
Atom  84H    basis set group =>   5
Atom  85H    basis set group =>   5
Atom  86H    basis set group =>   5
Atom  87H    basis set group =>   5
Atom  88H    basis set group =>   5
Atom  89H    basis set group =>   5
Atom  90H    basis set group =>   5
Atom  91H    basis set group =>   5
Atom  92H    basis set group =>   5
Atom  93H    basis set group =>   5
Atom  94H    basis set group =>   5
Atom  95H    basis set group =>   5
Atom  96H    basis set group =>   5
Atom  97H    basis set group =>   5
Atom  98H    basis set group =>   5
Atom  99H    basis set group =>   5
Atom 100H    basis set group =>   5
Atom 101H    basis set group =>   5
Atom 102H    basis set group =>   5
Atom 103H    basis set group =>   5
Atom 104H    basis set group =>   5
Atom 105H    basis set group =>   5
Atom 106H    basis set group =>   5
Atom 107H    basis set group =>   5
Atom 108H    basis set group =>   5
Atom 109H    basis set group =>   5
Atom 110H    basis set group =>   5
Atom 111H    basis set group =>   5
Atom 112H    basis set group =>   5
Atom 113H    basis set group =>   5
Atom 114H    basis set group =>   5
---------------------------------
AUXILIARY/J BASIS SET INFORMATION
---------------------------------
There are 5 groups of distinct atoms

 Group   1 Type C   : 12s5p4d2f1g contracted to 6s4p3d1f1g pattern {711111/2111/211/2/1}
 Group   2 Type O   : 12s5p4d2f1g contracted to 6s4p3d1f1g pattern {711111/2111/211/2/1}
 Group   3 Type N   : 12s5p4d2f1g contracted to 6s4p3d1f1g pattern {711111/2111/211/2/1}
 Group   4 Type S   : 14s5p5d2f1g contracted to 8s4p3d1f1g pattern {71111111/2111/311/2/1}
 Group   5 Type H   : 5s2p1d contracted to 3s1p1d pattern {311/2/1}

Atom   0C    basis set group =>   1
Atom   1O    basis set group =>   2
Atom   2C    basis set group =>   1
Atom   3C    basis set group =>   1
Atom   4C    basis set group =>   1
Atom   5C    basis set group =>   1
Atom   6C    basis set group =>   1
Atom   7C    basis set group =>   1
Atom   8C    basis set group =>   1
Atom   9C    basis set group =>   1
Atom  10C    basis set group =>   1
Atom  11N    basis set group =>   3
Atom  12C    basis set group =>   1
Atom  13N    basis set group =>   3
Atom  14C    basis set group =>   1
Atom  15C    basis set group =>   1
Atom  16C    basis set group =>   1
Atom  17C    basis set group =>   1
Atom  18C    basis set group =>   1
Atom  19C    basis set group =>   1
Atom  20S    basis set group =>   4
Atom  21C    basis set group =>   1
Atom  22C    basis set group =>   1
Atom  23C    basis set group =>   1
Atom  24C    basis set group =>   1
Atom  25C    basis set group =>   1
Atom  26C    basis set group =>   1
Atom  27C    basis set group =>   1
Atom  28C    basis set group =>   1
Atom  29C    basis set group =>   1
Atom  30C    basis set group =>   1
Atom  31C    basis set group =>   1
Atom  32C    basis set group =>   1
Atom  33C    basis set group =>   1
Atom  34C    basis set group =>   1
Atom  35C    basis set group =>   1
Atom  36C    basis set group =>   1
Atom  37C    basis set group =>   1
Atom  38C    basis set group =>   1
Atom  39C    basis set group =>   1
Atom  40C    basis set group =>   1
Atom  41C    basis set group =>   1
Atom  42C    basis set group =>   1
Atom  43C    basis set group =>   1
Atom  44C    basis set group =>   1
Atom  45C    basis set group =>   1
Atom  46C    basis set group =>   1
Atom  47C    basis set group =>   1
Atom  48C    basis set group =>   1
Atom  49C    basis set group =>   1
Atom  50C    basis set group =>   1
Atom  51C    basis set group =>   1
Atom  52S    basis set group =>   4
Atom  53C    basis set group =>   1
Atom  54C    basis set group =>   1
Atom  55C    basis set group =>   1
Atom  56C    basis set group =>   1
Atom  57C    basis set group =>   1
Atom  58N    basis set group =>   3
Atom  59C    basis set group =>   1
Atom  60N    basis set group =>   3
Atom  61C    basis set group =>   1
Atom  62C    basis set group =>   1
Atom  63C    basis set group =>   1
Atom  64C    basis set group =>   1
Atom  65C    basis set group =>   1
Atom  66C    basis set group =>   1
Atom  67C    basis set group =>   1
Atom  68O    basis set group =>   2
Atom  69H    basis set group =>   5
Atom  70H    basis set group =>   5
Atom  71H    basis set group =>   5
Atom  72H    basis set group =>   5
Atom  73H    basis set group =>   5
Atom  74H    basis set group =>   5
Atom  75H    basis set group =>   5
Atom  76H    basis set group =>   5
Atom  77H    basis set group =>   5
Atom  78H    basis set group =>   5
Atom  79H    basis set group =>   5
Atom  80H    basis set group =>   5
Atom  81H    basis set group =>   5
Atom  82H    basis set group =>   5
Atom  83H    basis set group =>   5
Atom  84H    basis set group =>   5
Atom  85H    basis set group =>   5
Atom  86H    basis set group =>   5
Atom  87H    basis set group =>   5
Atom  88H    basis set group =>   5
Atom  89H    basis set group =>   5
Atom  90H    basis set group =>   5
Atom  91H    basis set group =>   5
Atom  92H    basis set group =>   5
Atom  93H    basis set group =>   5
Atom  94H    basis set group =>   5
Atom  95H    basis set group =>   5
Atom  96H    basis set group =>   5
Atom  97H    basis set group =>   5
Atom  98H    basis set group =>   5
Atom  99H    basis set group =>   5
Atom 100H    basis set group =>   5
Atom 101H    basis set group =>   5
Atom 102H    basis set group =>   5
Atom 103H    basis set group =>   5
Atom 104H    basis set group =>   5
Atom 105H    basis set group =>   5
Atom 106H    basis set group =>   5
Atom 107H    basis set group =>   5
Atom 108H    basis set group =>   5
Atom 109H    basis set group =>   5
Atom 110H    basis set group =>   5
Atom 111H    basis set group =>   5
Atom 112H    basis set group =>   5
Atom 113H    basis set group =>   5
Atom 114H    basis set group =>   5
------------------------------------------------------------------------------
                           ORCA GTO INTEGRAL CALCULATION
                           -- RI-GTO INTEGRALS CHOSEN --
------------------------------------------------------------------------------

                         BASIS SET STATISTICS AND STARTUP INFO

Gaussian basis set:
 # of primitive gaussian shells          ... 1070
 # of primitive gaussian functions       ... 2002
 # of contracted shells                  ...  556
 # of contracted basis functions         ... 1204
 Highest angular momentum                ...    2
 Maximum contraction depth               ...    5
Auxiliary gaussian basis set:
 # of primitive gaussian shells          ... 2030
 # of primitive gaussian functions       ... 5580
 # of contracted shells                  ... 1269
 # of contracted aux-basis functions     ... 3891
 Highest angular momentum                ...    4
 Maximum contraction depth               ...    7
Ratio of auxiliary to basis functions    ...  3.23
Integral package used                  ... LIBINT
 One Electron integrals                  ... done
 Ordering auxiliary basis shells         ... done
 Integral threshhold             Thresh  ...  2.500e-11
 Primitive cut-off               TCut    ...  2.500e-12
 Pre-screening matrix                    ... done
 Shell pair data                         ... 
 Ordering of the shell pairs             ... done (   0.012 sec) 56647 of 154846 pairs
 Determination of significant pairs      ... done (   0.000 sec)
 Creation of shell pair data             ... done (   0.008 sec)
 Storage of shell pair data              ... done (   0.012 sec)
 Shell pair data done in (   0.033 sec)
 Computing two index integrals           ... done
 Cholesky decomposition of the V-matrix  ... done


Timings:
 Total evaluation time                   ...   2.327 sec (  0.039 min)
 One electron matrix time                ...   0.709 sec (  0.012 min) = 30.4%
 Schwartz matrix evaluation time         ...   0.664 sec (  0.011 min) = 28.5%
 Two index repulsion integral time       ...   0.382 sec (  0.006 min) = 16.4%
 Cholesky decomposition of V             ...   0.522 sec (  0.009 min) = 22.4%
 Three index repulsion integral time     ...   0.000 sec (  0.000 min) =  0.0%

-------------------------------------------------------------------------------
                                 ORCA SCF
-------------------------------------------------------------------------------

------------
SCF SETTINGS
------------
Hamiltonian:
 Density Functional     Method          .... DFT(GTOs)
 Exchange Functional    Exchange        .... WB88
 Correlation Functional Correlation     .... LYP
 LDA part of GGA corr.  LDAOpt          .... VWN-5
 Gradients option       PostSCFGGA      .... off
 Hybrid DFT is turned on
   Fraction HF Exchange ScalHFX         ....  0.190000
   Scaling of DF-GGA-X  ScalDFX         ....  0.350000
   Scaling of DF-GGA-C  ScalDFC         ....  0.810000
   Scaling of DF-LDA-C  ScalLDAC        ....  1.000000
   Perturbative correction              ....  0.000000
   Density functional embedding theory  .... OFF
 Long-range corrected/Screened/Range-Separated Hybrid DFT is turned on
   Amount of maximum screened exact exchange              ....  0.460000
   Range separation parameter mu (erf(mu*r12)/r12)        ....  0.330000
 RI-approximation to the Coulomb term is turned on
   Number of auxiliary basis functions  .... 3891
   RIJ-COSX (HFX calculated with COS-X)).... on


General Settings:
 Integral files         IntName         .... FDICTF
 Hartree-Fock type      HFTyp           .... RHF
 Total Charge           Charge          ....    0
 Multiplicity           Mult            ....    1
 Number of Electrons    NEL             ....  488
 Basis Dimension        Dim             .... 1204
 Nuclear Repulsion      ENuc            ....   9634.0529804790 Eh

Convergence Acceleration:
 DIIS                   CNVDIIS         .... on
   Start iteration      DIISMaxIt       ....    12
   Startup error        DIISStart       ....  0.200000
   # of expansion vecs  DIISMaxEq       ....     5
   Bias factor          DIISBfac        ....   1.050
   Max. coefficient     DIISMaxC        ....  10.000
 Newton-Raphson         CNVNR           .... off
 SOSCF                  CNVSOSCF        .... on
   Start iteration      SOSCFMaxIt      ....   150
   Startup grad/error   SOSCFStart      ....  0.003300
 Level Shifting         CNVShift        .... on
   Level shift para.    LevelShift      ....    0.2500
   Turn off err/grad.   ShiftErr        ....    0.0010
 Zerner damping         CNVZerner       .... off
 Static damping         CNVDamp         .... on
   Fraction old density DampFac         ....    0.7000
   Max. Damping (<1)    DampMax         ....    0.9800
   Min. Damping (>=0)   DampMin         ....    0.0000
   Turn off err/grad.   DampErr         ....    0.1000
 Fernandez-Rico         CNVRico         .... off

SCF Procedure:
 Maximum # iterations   MaxIter         ....   125
 SCF integral mode      SCFMode         .... Direct
   Integral package                     .... LIBINT
 Reset frequency        DirectResetFreq ....    20
 Integral Threshold     Thresh          ....  2.500e-11 Eh
 Primitive CutOff       TCut            ....  2.500e-12 Eh

Convergence Tolerance:
 Convergence Check Mode ConvCheckMode   .... Total+1el-Energy
 Convergence forced     ConvForced      .... 1
 Energy Change          TolE            ....  1.000e-08 Eh
 1-El. energy change                    ....  1.000e-05 Eh
 Orbital Gradient       TolG            ....  1.000e-05
 Orbital Rotation angle TolX            ....  1.000e-05
 DIIS Error             TolErr          ....  5.000e-07


Diagonalization of the overlap matrix:
Smallest eigenvalue                        ... 1.983e-04
Time for diagonalization                   ...    0.336 sec
Threshold for overlap eigenvalues          ... 1.000e-08
Number of eigenvalues below threshold      ... 0
Time for construction of square roots      ...    0.153 sec
Total time needed                          ...    0.493 sec

-------------------
DFT GRID GENERATION
-------------------

General Integration Accuracy     IntAcc      ...  4.670
Radial Grid Type                 RadialGrid  ... Gauss-Chebyshev
Angular Grid (max. acc.)         AngularGrid ... Lebedev-302
Angular grid pruning method      GridPruning ... 3 (G Style)
Weight generation scheme         WeightScheme... Becke
Basis function cutoff            BFCut       ...    1.0000e-11
Integration weight cutoff        WCut        ...    1.0000e-14
Grids for H and He will be reduced by one unit

# of grid points (after initial pruning)     ... 586020 (   1.5 sec)
# of grid points (after weights+screening)   ... 493247 (  30.5 sec)
nearest neighbour list constructed           ...    0.0 sec
Grid point re-assignment to atoms done       ...    0.1 sec
Grid point division into batches done        ...    1.7 sec
Reduced shell lists constructed in    9.1 sec

Total number of grid points                  ...   493247
Total number of batches                      ...     7766
Average number of points per batch           ...       63
Average number of grid points per atom       ...     4289
Average number of shells per batch           ...   108.45 (19.51%)
Average number of basis functions per batch  ...   215.71 (17.92%)
Average number of large shells per batch     ...    63.47 (58.52%)
Average number of large basis fcns per batch ...   128.15 (59.41%)
Maximum spatial batch extension              ...  27.76, 20.21, 22.74 au
Average spatial batch extension              ...   2.08,  2.06,  2.12 au

Time for grid setup =   41.144 sec

------------------------------
INITIAL GUESS: MODEL POTENTIAL
------------------------------
Loading Hartree-Fock densities                     ... done
Calculating cut-offs                               ... done
Setting up the integral package                    ... done
Initializing the effective Hamiltonian             ... done
Starting the Coulomb interaction                   ... done (  10.4 sec)
Reading the grid                                   ... done
Mapping shells                                     ... done
Starting the XC term evaluation                    ... done (   9.9 sec)
  promolecular density results
     # of electrons  =    487.978904598
     EX              =   -417.654999895
     EC              =    -16.571210851
     EX+EC           =   -434.226210746
Transforming the Hamiltonian                       ... done (   0.1 sec)
Diagonalizing the Hamiltonian                      ... done (   0.3 sec)
Back transforming the eigenvectors                 ... done (   0.1 sec)
Now organizing SCF variables                       ... done
                      ------------------
                      INITIAL GUESS DONE (  62.2 sec)
                      ------------------
--------------------
COSX GRID GENERATION
--------------------

General Integration Accuracy     IntAcc      ...  3.340
Radial Grid Type                 RadialGrid  ... Gauss-Chebyshev
Angular Grid (max. acc.)         AngularGrid ... Lebedev-50
Angular grid pruning method      GridPruning ... 3 (G Style)
Weight generation scheme         WeightScheme... Becke
Basis function cutoff            BFCut       ...    1.0000e-11
Integration weight cutoff        WCut        ...    1.0000e-14
Grids for H and He will be reduced by one unit

# of grid points (after initial pruning)     ...  54936 (   0.1 sec)
# of grid points (after weights+screening)   ...  48381 (   2.8 sec)
nearest neighbour list constructed           ...    0.0 sec
Grid point re-assignment to atoms done       ...    0.0 sec
Grid point division into batches done        ...    0.0 sec
Reduced shell lists constructed in    1.0 sec

Total number of grid points                  ...    48381
Total number of batches                      ...      814
Average number of points per batch           ...       59
Average number of grid points per atom       ...      421
Average number of shells per batch           ...   131.49 (23.65%)
Average number of basis functions per batch  ...   264.19 (21.94%)
Average number of large shells per batch     ...    77.41 (58.87%)
Average number of large basis fcns per batch ...   158.85 (60.13%)
Maximum spatial batch extension              ...  25.71, 21.68, 17.15 au
Average spatial batch extension              ...   4.41,  4.32,  4.53 au

Overlap Fitting                  UseSFitting ... on
Constructing numerical overlap ... done (      0.7 sec)
Inverting numerical overlap    ... done (      0.0 sec)
Obtaining analytic overlap     ... done (      0.0 sec)
Final contraction and storage  ... done (      0.1 sec)


General Integration Accuracy     IntAcc      ...  3.670
Radial Grid Type                 RadialGrid  ... Gauss-Chebyshev
Angular Grid (max. acc.)         AngularGrid ... Lebedev-50
Angular grid pruning method      GridPruning ... 3 (G Style)
Weight generation scheme         WeightScheme... Becke
Basis function cutoff            BFCut       ...    1.0000e-11
Integration weight cutoff        WCut        ...    1.0000e-14
Grids for H and He will be reduced by one unit

# of grid points (after initial pruning)     ...  69146 (   0.1 sec)
# of grid points (after weights+screening)   ...  60637 (   3.6 sec)
nearest neighbour list constructed           ...    0.0 sec
Grid point re-assignment to atoms done       ...    0.0 sec
Grid point division into batches done        ...    0.0 sec
Reduced shell lists constructed in    1.2 sec

Total number of grid points                  ...    60637
Total number of batches                      ...     1001
Average number of points per batch           ...       60
Average number of grid points per atom       ...      527
Average number of shells per batch           ...   128.16 (23.05%)
Average number of basis functions per batch  ...   256.99 (21.34%)
Average number of large shells per batch     ...    75.06 (58.56%)
Average number of large basis fcns per batch ...   153.52 (59.74%)
Maximum spatial batch extension              ...  25.18, 22.64, 24.17 au
Average spatial batch extension              ...   4.09,  3.97,  4.21 au

Overlap Fitting                  UseSFitting ... on
Constructing numerical overlap ... done (      0.8 sec)
Inverting numerical overlap    ... done (      0.0 sec)
Obtaining analytic overlap     ... done (      0.0 sec)
Final contraction and storage  ... done (      0.1 sec)


General Integration Accuracy     IntAcc      ...  4.010
Radial Grid Type                 RadialGrid  ... Gauss-Chebyshev
Angular Grid (max. acc.)         AngularGrid ... Lebedev-110
Angular grid pruning method      GridPruning ... 3 (G Style)
Weight generation scheme         WeightScheme... Becke
Basis function cutoff            BFCut       ...    1.0000e-11
Integration weight cutoff        WCut        ...    1.0000e-14
Grids for H and He will be reduced by one unit

# of grid points (after initial pruning)     ... 132256 (   0.2 sec)
# of grid points (after weights+screening)   ... 114986 (   6.8 sec)
nearest neighbour list constructed           ...    0.0 sec
Grid point re-assignment to atoms done       ...    0.0 sec
Grid point division into batches done        ...    0.1 sec
Reduced shell lists constructed in    2.1 sec

Total number of grid points                  ...   114986
Total number of batches                      ...     1858
Average number of points per batch           ...       61
Average number of grid points per atom       ...     1000
Average number of shells per batch           ...   122.20 (21.98%)
Average number of basis functions per batch  ...   244.77 (20.33%)
Average number of large shells per batch     ...    72.03 (58.94%)
Average number of large basis fcns per batch ...   146.93 (60.03%)
Maximum spatial batch extension              ...  32.06, 21.17, 21.18 au
Average spatial batch extension              ...   3.40,  3.29,  3.49 au

Overlap Fitting                  UseSFitting ... on
Constructing numerical overlap ... done (      1.4 sec)
Inverting numerical overlap    ... done (      0.0 sec)
Obtaining analytic overlap     ... done (      0.0 sec)
Final contraction and storage  ... done (      0.1 sec)

Time for X-Grid setup             =   21.221 sec
--------------
SCF ITERATIONS
--------------
ITER       Energy         Delta-E        Max-DP      RMS-DP      [F,P]     Damp
               ***  Starting incremental Fock matrix formation  ***
  0  -3512.8940106738   0.000000000000 0.07661451  0.00094353  0.2281800 0.7000
  1  -3513.4919585334  -0.597947859625 0.04683863  0.00066019  0.0926687 0.7000
                               ***Turning on DIIS***
  2  -3513.7442817920  -0.252323258583 0.08436025  0.00119034  0.0409564 0.0000
  3  -3514.1695542552  -0.425272463192 0.05476912  0.00048752  0.0503732 0.0000
  4  -3514.2407284302  -0.071174175042 0.01699493  0.00014135  0.0257505 0.0000
  5  -3514.2474280619  -0.006699631667 0.00692877  0.00005345  0.0065349 0.0000
                      *** Initiating the SOSCF procedure ***
                           *** Shutting down DIIS ***
                      *** Re-Reading the Fockian *** 
                      *** Removing any level shift *** 
ITER      Energy       Delta-E        Grad      Rot      Max-DP    RMS-DP
  6  -3514.24819967  -0.0007716119  0.002812  0.002812  0.003111  0.000029
               *** Restarting incremental Fock matrix formation ***
  7  -3514.24838220  -0.0001825287  0.001966  0.012018  0.001717  0.000030
  8  -3514.24855756  -0.0001753617  0.000716  0.012071  0.003046  0.000037
  9  -3514.24857122  -0.0000136572  0.000538  0.004019  0.001148  0.000013
 10  -3514.24861160  -0.0000403826  0.000173  0.001279  0.000579  0.000007
 11  -3514.24860996   0.0000016410  0.000173  0.000956  0.000336  0.000004
 12  -3514.24861461  -0.0000046494  0.000018  0.000072  0.000140  0.000002
 13  -3514.24861457   0.0000000387  0.000036  0.000079  0.000083  0.000001
 14  -3514.24861475  -0.0000001728  0.000005  0.000037  0.000037  0.000000
 15  -3514.24861471   0.0000000407  0.000005  0.000010  0.000018  0.000000
                  ***Gradient check signals convergence***
              ***Rediagonalizing the Fockian in SOSCF/NRSCF***

               *****************************************************
               *                     SUCCESS                       *
               *           SCF CONVERGED AFTER  16 CYCLES          *
               *****************************************************

Setting up the final grid:

General Integration Accuracy     IntAcc      ...  5.010
Radial Grid Type                 RadialGrid  ... Gauss-Chebyshev
Angular Grid (max. acc.)         AngularGrid ... Lebedev-434
Angular grid pruning method      GridPruning ... 3 (G Style)
Weight generation scheme         WeightScheme... Becke
Basis function cutoff            BFCut       ...    1.0000e-11
Integration weight cutoff        WCut        ...    1.0000e-14
Grids for H and He will be reduced by one unit

# of grid points (after initial pruning)     ... 1047934 (   2.2 sec)
# of grid points (after weights+screening)   ... 879032 (  54.5 sec)
nearest neighbour list constructed           ...    0.0 sec
Grid point re-assignment to atoms done       ...    0.1 sec
Grid point division into batches done        ...    5.5 sec
Reduced shell lists constructed in   17.7 sec

Total number of grid points                  ...   879032
Total number of batches                      ...    13796
Average number of points per batch           ...       63
Average number of grid points per atom       ...     7644
Average number of shells per batch           ...   104.51 (18.80%)
Average number of basis functions per batch  ...   207.11 (17.20%)
Average number of large shells per batch     ...    61.00 (58.37%)
Average number of large basis fcns per batch ...   122.71 (59.25%)
Maximum spatial batch extension              ...  21.93, 25.02, 21.81 au
Average spatial batch extension              ...   1.70,  1.69,  1.72 au

Final grid set up in   74.5 sec
Final integration                            ... done (  24.1 sec)
Change in XC energy                          ...     0.000039086
Integrated number of electrons               ...   488.000032860
Previous integrated no of electrons          ...   488.000658563
Old exchange energy                            =   -118.816643724 Eh
New exchange energy                            =   -118.814235719 Eh
Exchange energy change after final integration =      0.002408005 Eh
Total energy after final integration           =  -3514.246167643 Eh
Final COS-X integration done in                =   444.484 sec

----------------
TOTAL SCF ENERGY
----------------

Total Energy       :        -3514.24616764 Eh          -95627.49983 eV

Components:
Nuclear Repulsion  :         9634.05298048 Eh          262155.90935 eV
Electronic Energy  :       -13148.29914812 Eh         -357783.40918 eV
One Electron Energy:       -23969.55649239 Eh         -652244.79164 eV
Two Electron Energy:        10821.25734426 Eh          294461.38246 eV

Virial components:
Potential Energy   :        -6996.89254496 Eh         -190395.12565 eV
Kinetic Energy     :         3482.64637732 Eh           94767.62582 eV
Virial Ratio       :            2.00907350


DFT components:
N(Alpha)           :      244.000016430032 electrons
N(Beta)            :      244.000016430032 electrons
N(Total)           :      488.000032860063 electrons
E(XC)              :     -323.426930282233 Eh       
DFET-embed. en.    :        0.000000000000 Eh       

---------------
SCF CONVERGENCE
---------------

  Last Energy change         ...   -2.8933e-08  Tolerance :   1.0000e-08
  Last MAX-Density change    ...    5.7732e-15  Tolerance :   1.0000e-07
  Last RMS-Density change    ...    3.1242e-17  Tolerance :   5.0000e-09
  Last Orbital Gradient      ...    8.6155e-07  Tolerance :   1.0000e-05
  Last Orbital Rotation      ...    5.1818e-06  Tolerance :   1.0000e-05

             **** THE GBW FILE WAS UPDATED (FDICTF.gbw) ****
             **** DENSITY FILE WAS UPDATED (FDICTF.scfp) ****
             **** ENERGY FILE WAS UPDATED (FDICTF.en.tmp) ****
             **** THE GBW FILE WAS UPDATED (FDICTF.gbw) ****
             **** DENSITY FILE WAS UPDATED (FDICTF.scfp) ****
----------------
ORBITAL ENERGIES
----------------

  NO   OCC          E(Eh)            E(eV) 
   0   2.0000     -88.972784     -2421.0725 
   1   2.0000     -88.971911     -2421.0488 
   2   2.0000     -19.211430      -522.7696 
   3   2.0000     -19.210467      -522.7434 
   4   2.0000     -14.417305      -392.3148 
   5   2.0000     -14.417247      -392.3132 
   6   2.0000     -14.414964      -392.2511 
   7   2.0000     -14.411911      -392.1680 
   8   2.0000     -10.362963      -281.9906 
   9   2.0000     -10.362198      -281.9697 
  10   2.0000     -10.345396      -281.5125 
  11   2.0000     -10.344251      -281.4814 
  12   2.0000     -10.343535      -281.4619 
  13   2.0000     -10.341995      -281.4200 
  14   2.0000     -10.321557      -280.8639 
  15   2.0000     -10.321441      -280.8607 
  16   2.0000     -10.320502      -280.8351 
  17   2.0000     -10.319172      -280.7989 
  18   2.0000     -10.318823      -280.7894 
  19   2.0000     -10.317975      -280.7664 
  20   2.0000     -10.317114      -280.7429 
  21   2.0000     -10.315275      -280.6929 
  22   2.0000     -10.314681      -280.6767 
  23   2.0000     -10.314648      -280.6758 
  24   2.0000     -10.306764      -280.4613 
  25   2.0000     -10.306042      -280.4417 
  26   2.0000     -10.300798      -280.2990 
  27   2.0000     -10.299947      -280.2758 
  28   2.0000     -10.299141      -280.2539 
  29   2.0000     -10.298655      -280.2406 
  30   2.0000     -10.295675      -280.1595 
  31   2.0000     -10.295121      -280.1445 
  32   2.0000     -10.295004      -280.1413 
  33   2.0000     -10.294727      -280.1338 
  34   2.0000     -10.294386      -280.1245 
  35   2.0000     -10.294323      -280.1228 
  36   2.0000     -10.294217      -280.1199 
  37   2.0000     -10.294059      -280.1156 
  38   2.0000     -10.293858      -280.1101 
  39   2.0000     -10.293569      -280.1022 
  40   2.0000     -10.293348      -280.0962 
  41   2.0000     -10.293218      -280.0927 
  42   2.0000     -10.291427      -280.0440 
  43   2.0000     -10.289946      -280.0037 
  44   2.0000     -10.289891      -280.0022 
  45   2.0000     -10.288972      -279.9772 
  46   2.0000     -10.288814      -279.9729 
  47   2.0000     -10.287195      -279.9288 
  48   2.0000     -10.287086      -279.9258 
  49   2.0000     -10.286970      -279.9227 
  50   2.0000     -10.286876      -279.9201 
  51   2.0000     -10.285797      -279.8908 
  52   2.0000     -10.285272      -279.8765 
  53   2.0000     -10.284986      -279.8687 
  54   2.0000     -10.283579      -279.8304 
  55   2.0000     -10.283135      -279.8183 
  56   2.0000     -10.282001      -279.7875 
  57   2.0000     -10.276978      -279.6508 
  58   2.0000     -10.276719      -279.6437 
  59   2.0000     -10.275405      -279.6080 
  60   2.0000     -10.273865      -279.5661 
  61   2.0000     -10.271789      -279.5096 
  62   2.0000     -10.270595      -279.4771 
  63   2.0000     -10.266980      -279.3787 
  64   2.0000     -10.264874      -279.3214 
  65   2.0000     -10.264670      -279.3159 
  66   2.0000     -10.262714      -279.2626 
  67   2.0000     -10.259008      -279.1618 
  68   2.0000     -10.255070      -279.0546 
  69   2.0000      -8.067012      -219.5146 
  70   2.0000      -8.066514      -219.5010 
  71   2.0000      -6.036296      -164.2560 
  72   2.0000      -6.035771      -164.2417 
  73   2.0000      -6.032213      -164.1449 
  74   2.0000      -6.031826      -164.1343 
  75   2.0000      -6.029258      -164.0644 
  76   2.0000      -6.028678      -164.0487 
  77   2.0000      -1.123723       -30.5781 
  78   2.0000      -1.122671       -30.5494 
  79   2.0000      -1.010587       -27.4995 
  80   2.0000      -1.009413       -27.4675 
  81   2.0000      -1.005991       -27.3744 
  82   2.0000      -1.004208       -27.3259 
  83   2.0000      -0.987097       -26.8603 
  84   2.0000      -0.986260       -26.8375 
  85   2.0000      -0.985251       -26.8100 
  86   2.0000      -0.983692       -26.7676 
  87   2.0000      -0.982531       -26.7360 
  88   2.0000      -0.958015       -26.0689 
  89   2.0000      -0.947368       -25.7792 
  90   2.0000      -0.937044       -25.4983 
  91   2.0000      -0.935038       -25.4437 
  92   2.0000      -0.914386       -24.8817 
  93   2.0000      -0.901602       -24.5338 
  94   2.0000      -0.896263       -24.3885 
  95   2.0000      -0.894644       -24.3445 
  96   2.0000      -0.887418       -24.1479 
  97   2.0000      -0.880485       -23.9592 
  98   2.0000      -0.869197       -23.6521 
  99   2.0000      -0.851596       -23.1731 
 100   2.0000      -0.850855       -23.1529 
 101   2.0000      -0.849882       -23.1265 
 102   2.0000      -0.841858       -22.9081 
 103   2.0000      -0.840444       -22.8696 
 104   2.0000      -0.840222       -22.8636 
 105   2.0000      -0.838122       -22.8065 
 106   2.0000      -0.836606       -22.7652 
 107   2.0000      -0.834773       -22.7153 
 108   2.0000      -0.834258       -22.7013 
 109   2.0000      -0.822560       -22.3830 
 110   2.0000      -0.798814       -21.7368 
 111   2.0000      -0.790132       -21.5006 
 112   2.0000      -0.773136       -21.0381 
 113   2.0000      -0.769851       -20.9487 
 114   2.0000      -0.759452       -20.6657 
 115   2.0000      -0.755041       -20.5457 
 116   2.0000      -0.754498       -20.5309 
 117   2.0000      -0.744715       -20.2647 
 118   2.0000      -0.727514       -19.7967 
 119   2.0000      -0.710550       -19.3350 
 120   2.0000      -0.706954       -19.2372 
 121   2.0000      -0.703682       -19.1482 
 122   2.0000      -0.698301       -19.0017 
 123   2.0000      -0.696312       -18.9476 
 124   2.0000      -0.695854       -18.9351 
 125   2.0000      -0.693905       -18.8821 
 126   2.0000      -0.681516       -18.5450 
 127   2.0000      -0.677830       -18.4447 
 128   2.0000      -0.673480       -18.3263 
 129   2.0000      -0.671323       -18.2676 
 130   2.0000      -0.662964       -18.0402 
 131   2.0000      -0.654825       -17.8187 
 132   2.0000      -0.645937       -17.5768 
 133   2.0000      -0.641994       -17.4695 
 134   2.0000      -0.638484       -17.3740 
 135   2.0000      -0.633665       -17.2429 
 136   2.0000      -0.625846       -17.0301 
 137   2.0000      -0.619826       -16.8663 
 138   2.0000      -0.613542       -16.6953 
 139   2.0000      -0.606916       -16.5150 
 140   2.0000      -0.601577       -16.3698 
 141   2.0000      -0.598058       -16.2740 
 142   2.0000      -0.589405       -16.0385 
 143   2.0000      -0.585674       -15.9370 
 144   2.0000      -0.573579       -15.6079 
 145   2.0000      -0.571732       -15.5576 
 146   2.0000      -0.570040       -15.5116 
 147   2.0000      -0.563755       -15.3406 
 148   2.0000      -0.558845       -15.2069 
 149   2.0000      -0.552679       -15.0392 
 150   2.0000      -0.545282       -14.8379 
 151   2.0000      -0.544019       -14.8035 
 152   2.0000      -0.541027       -14.7221 
 153   2.0000      -0.539900       -14.6914 
 154   2.0000      -0.537888       -14.6367 
 155   2.0000      -0.536512       -14.5992 
 156   2.0000      -0.533308       -14.5121 
 157   2.0000      -0.531264       -14.4564 
 158   2.0000      -0.526921       -14.3383 
 159   2.0000      -0.525505       -14.2997 
 160   2.0000      -0.524999       -14.2859 
 161   2.0000      -0.524665       -14.2769 
 162   2.0000      -0.524124       -14.2621 
 163   2.0000      -0.522177       -14.2091 
 164   2.0000      -0.521313       -14.1857 
[...]

---------------------------------------------------------------------------------

                       ORCA sTD-DFT CALCULATION

                       please cite in your paper           
 orginal sTDA method:  S. Grimme, J. Chem. Phys. 138, 244104 (2013)           
 range-separated sTDA: T. Risthaus, A. Hansen, S. Grimme, Phys. Chem. Chem. Phys.
                       16, 14408-14419 (2014) 
 sTD-DFT approach:     C. Bannwarth, S. Grimme, Comp. Theor. Chem. 
                       1040-1041, 45-53 (2014)

---------------------------------------------------------------------------------


spectral range up to (eV)      ...    5.000000
occ. MO cut-off (eV)           ...   -15.566591
virt. MO cut-off (eV)          ...    6.297115
perturbation threshold         ...   1.000e-04 
MOs in sTD-DFT                 ...         179 
occ. MOs in sTD-DFT            ...          99 
virt. in sTD-DFT               ...          80 
calculate triplets           ...   no  

Calculating the dipole lengths integrals ... 
Transforming integrals ... 
Calculating the dipole velocity integrals ... 
Transforming integrals ... 
Calculating magnetic dipole integrals ... 
Transforming integrals ... 

SCF atom population (using active MOs):

   1.894   4.450   2.150   2.279   2.306   2.251   2.334   2.143   1.759   1.467
   2.135   3.869   2.138   3.881   2.138   2.086   2.097   2.008   2.128   2.175
   3.638   2.121   2.171   2.168   2.696   2.966   2.712   2.975   2.343   2.160
   2.179   2.347   2.167   2.635   2.991   2.693   2.969   2.149   2.135   2.336
   2.172   2.083   2.318   2.144   2.151   2.145   2.651   2.945   2.651   2.943
   2.089   2.143   3.591   2.056   2.134   1.747   1.462   2.133   3.879   2.159
   3.876   2.128   2.336   2.300   2.328   2.305   2.141   1.859   4.427   0.556
   0.562   0.512   0.581   0.561   0.418   0.647   0.663   0.661   0.669   0.659
   0.661   0.651   0.665   0.669   0.658   0.594   0.607   0.639   0.636   0.666
   0.678   0.666   0.651   0.654   0.663   0.668   0.662   0.589   0.600   0.641
   0.643   0.660   0.661   0.657   0.649   0.634   0.665   0.655   0.654   0.438
   0.514   0.579   0.534   0.557   0.557

Number of electrons in sTDA:  198.000

ax(DF)   :  0.3800
s^k      :  2.0000
beta  (J):  1.8600
alpha (K):  0.9000

hardness table read
setting up gammas ...
computing q(ij,n)
memory needed for q data:            10.5 MB 
memory available for q data:       2480.3 MB 

CSF included by energy:           23 
CSF considered in PT2:          7897 

ordered frontier orbitals
           eV         # centers 
  88      -9.097       3.9
  89      -9.075       4.1
  90      -8.974      10.1
  91      -8.950       8.4
  92      -8.842      19.1
  93      -8.662      18.8
  94      -8.608      17.6
  95      -8.448      26.0
  96      -8.279      25.5
  97      -7.429      20.1
  98      -6.743      23.3

  99      -2.527      27.2
 100      -2.289      22.8
 101      -1.593      24.9
 102      -1.473      22.0
 103      -0.657      32.6
 104      -0.091      26.9
 105       0.228      12.1
 106       0.397      23.7
 107       0.689      14.8
 108       0.855      30.5
 109       1.118       6.4

           eV        nm       excitation i->a                     eV 
   0      2.62     473.8    98 ->  99      gap,J,K:    4.216     1.895     0.148
   1      2.98     415.7    98 -> 100      gap,J,K:    4.454     1.801     0.165
   2      3.45     359.3    97 ->  99      gap,J,K:    4.902     1.910     0.229
   3      3.67     338.1    97 -> 100      gap,J,K:    5.140     1.873     0.200
   4      3.71     334.4    98 -> 101      gap,J,K:    5.150     1.634     0.096
   5      3.87     320.3    98 -> 102      gap,J,K:    5.270     1.598     0.099
   6      4.36     284.1    96 ->  99      gap,J,K:    5.752     1.794     0.203
   7      4.39     282.6    97 -> 101      gap,J,K:    5.836     1.717     0.134
   8      4.52     274.6    97 -> 102      gap,J,K:    5.956     1.722     0.141
   9      4.53     274.0    94 ->  99      gap,J,K:    6.082     1.784     0.114
  10      4.53     273.6    95 ->  99      gap,J,K:    5.921     1.747     0.179
  11      4.57     271.5    93 ->  99      gap,J,K:    6.136     1.810     0.120
  12      4.57     271.4    98 -> 103      gap,J,K:    6.086     1.960     0.221
  13      4.62     268.2    96 -> 100      gap,J,K:    5.990     1.839     0.236
  14      4.74     261.3    92 ->  99      gap,J,K:    6.316     1.837     0.133
  15      4.76     260.6    94 -> 100      gap,J,K:    6.320     1.721     0.079
  16      4.80     258.4    95 -> 100      gap,J,K:    6.159     1.779     0.209
  17      4.80     258.1    88 ->  99      gap,J,K:    6.571     1.795     0.014
  18      4.84     256.3    90 ->  99      gap,J,K:    6.447     1.916     0.153
  19      4.88     253.9    93 -> 100      gap,J,K:    6.374     1.655     0.082
  20      4.90     253.1    91 ->  99      gap,J,K:    6.424     1.858     0.167
  21      4.95     250.6    89 ->  99      gap,J,K:    6.549     1.635     0.017
  22      4.97     249.3    98 -> 105      gap,J,K:    6.971     2.374     0.188

average / max PT2 energy lowering (eV):       0.051       0.085

CSF included by PT:                   142 
total number of CSF included:         165 
 
sTD-DFT procedure...
setting up A+B and A-B matrices...  done
estimated time (min):    0.000
calculating (A-B)^0.5 ... done
calculating (A+B)*(A-B)^0.5 ... done
calculating (A-B)^0.5 *(A+B)*(A-B)^0.5 ... done
diagonalizing ...using LAPACKE_ssyevr ...done

   29 roots found, lowest/highest eigenvalue :     2.301     4.952

excitation energies, transition moments and amplitudes

molecular weight:  931.185
state   eV        nm        fL         fV        Rl        RV
   0   2.301     538.7   2.197822   2.481266  317.317738  340.819999     0.83 (  98->  99)    0.15 (  97-> 100)    0.00 (  97->  99)
   1   2.585     479.6   0.038436   0.044621  -539.867798  -570.179986     0.70 (  98-> 100)    0.25 (  97->  99)    0.02 (  97-> 101)
   2   3.250     381.5   0.539920   0.516444  133.698157  141.086508     0.61 (  98-> 101)    0.16 (  97-> 102)    0.10 (  97-> 100)
   3   3.401     364.6   0.004667   0.004757  -67.540403  -64.470618     0.32 (  97->  99)    0.30 (  98-> 102)    0.16 (  97-> 101)
   4   3.413     363.2   0.020017   0.018934  -108.149503  -98.963241     0.32 (  97->  99)    0.29 (  98-> 102)    0.20 (  98-> 100)
   5   3.616     342.9   0.112132   0.120631  456.197685  486.687528     0.40 (  97-> 100)    0.27 (  96->  99)    0.07 (  98->  99)
   6   3.776     328.3   0.123609   0.118405  -73.954390  -64.037683     0.25 (  95->  99)    0.12 (  96-> 100)    0.11 (  89->  99)
   7   3.800     326.3   0.219226   0.213382  -39.068380  -34.774733     0.15 (  88->  99)    0.14 (  97-> 100)    0.11 (  95-> 100)
   8   3.993     310.5   0.010264   0.008872  17.011214  16.247375     0.21 (  88-> 100)    0.21 (  88->  99)    0.15 (  88-> 101)
   9   3.999     310.0   0.030320   0.025010  90.289421  80.837744     0.33 (  89-> 100)    0.25 (  89->  99)    0.08 (  88->  99)
  10   4.049     306.2   0.161929   0.147186  155.399521  149.224886     0.27 (  88-> 101)    0.12 (  88-> 102)    0.09 (  95->  99)
  11   4.067     304.9   0.083665   0.072927  134.570861  100.486659     0.35 (  89-> 102)    0.17 (  89-> 101)    0.08 (  88-> 102)
  12   4.088     303.3   0.075955   0.062444  -160.105942  -112.431750     0.33 (  94->  99)    0.09 (  93->  99)    0.08 (  94-> 100)
  13   4.123     300.7   0.060840   0.047506  -42.385522  -39.135175     0.37 (  93->  99)    0.16 (  92->  99)    0.11 (  93-> 100)
  14   4.208     294.6   0.067678   0.059638   4.825498   4.020788     0.41 (  98-> 103)    0.09 (  97-> 102)    0.08 (  96->  99)
  15   4.250     291.7   0.063025   0.052562  -23.049003  -16.899509     0.43 (  91->  99)    0.21 (  90-> 100)    0.10 (  98-> 103)
  16   4.257     291.2   0.023131   0.017988  26.523629  17.278620     0.43 (  90->  99)    0.28 (  91-> 100)    0.06 (  98-> 105)
  17   4.387     282.6   0.113598   0.104685  -67.556076  -68.915119     0.28 (  86->  99)    0.23 (  86-> 100)    0.06 (  96-> 100)
  18   4.404     281.6   0.123085   0.118100  22.873938  24.113561     0.26 (  87-> 100)    0.20 (  87->  99)    0.08 (  96->  99)
  19   4.423     280.3   0.005025   0.004363  -58.247970  -54.945795     0.34 (  97-> 101)    0.20 (  98-> 102)    0.05 (  87->  99)
  20   4.505     275.2   0.143340   0.120115  -435.152226  -397.511608     0.14 (  92->  99)    0.12 (  96->  99)    0.08 (  93->  99)
  21   4.621     268.3   0.457706   0.396862  464.005185  430.685987     0.37 (  97-> 102)    0.22 (  98-> 103)    0.12 (  98-> 101)
  22   4.660     266.0   0.018504   0.016712  20.235546  10.904297     0.35 (  96-> 100)    0.14 (  93-> 100)    0.11 (  97-> 101)
  23   4.717     262.9   0.012401   0.012383   3.059367   4.427289     0.33 (  94-> 100)    0.28 (  98-> 105)    0.19 (  93-> 100)
  24   4.762     260.4   0.218070   0.179831  -1177.390669  -1072.358837     0.20 (  95-> 101)    0.14 (  98-> 104)    0.09 (  97-> 103)
  25   4.809     257.8   0.374737   0.289894  1422.114810  1267.583614     0.23 (  95-> 102)    0.13 (  96-> 101)    0.08 (  94-> 101)
  26   4.882     254.0   0.165678   0.128169  -612.526173  -546.165197     0.24 (  97-> 103)    0.23 (  98-> 104)    0.11 (  96-> 102)
  27   4.917     252.1   0.016266   0.014024  -106.857691  -90.490656     0.30 (  98-> 105)    0.24 (  92->  99)    0.13 (  94-> 100)
  28   4.952     250.4   0.013146   0.009755  31.544595  19.947594     0.46 (  92-> 100)    0.13 (  90-> 100)    0.07 (  93-> 100)

-----------------------------------------------------------------------------
         ABSORPTION SPECTRUM VIA TRANSITION ELECTRIC DIPOLE MOMENTS
-----------------------------------------------------------------------------
State   Energy  Wavelength   fosc         T2         TX        TY        TZ  
        (cm-1)    (nm)                  (au**2)     (au)      (au)      (au) 
-----------------------------------------------------------------------------
   0   18562.8    538.7   2.197822234  38.97838  -3.43624  -5.12397   0.95682
   1   20852.7    479.6   0.038436281   0.60681  -0.46423   0.60479   0.15979
   2   26213.3    381.5   0.539919949   6.78084  -2.14343  -1.35822  -0.58463
   3   27428.6    364.6   0.004666763   0.05601  -0.04421   0.22216   0.06857
   4   27529.7    363.2   0.020016982   0.23937   0.40880   0.05036  -0.26405
   5   29163.3    342.9   0.112132425   1.26582   0.76552  -0.39858   0.72175
   6   30458.2    328.3   0.123609464   1.33605   0.83521   0.31841  -0.73287
   7   30646.6    326.3   0.219225738   2.35497  -0.91211  -1.21076  -0.23892
   8   32204.6    310.5   0.010264251   0.10493  -0.08731  -0.28119  -0.13505
   9   32257.7    310.0   0.030319616   0.30943  -0.54465  -0.09066   0.06759
  10   32659.1    306.2   0.161929350   1.63229   0.61840   0.66840   0.89616
  11   32802.0    304.9   0.083665402   0.83969  -0.89702   0.10808   0.15289
  12   32971.4    303.3   0.075955432   0.75840  -0.28741  -0.55184   0.60931
  13   33255.8    300.7   0.060840040   0.60228   0.08485   0.75204   0.17179
  14   33943.4    294.6   0.067678380   0.65640   0.63646   0.50082  -0.02230
  15   34282.4    291.7   0.063025055   0.60523  -0.33440  -0.68262   0.16564
  16   34337.4    291.2   0.023131101   0.22177   0.13233   0.18443  -0.41261
  17   35384.9    282.6   0.113597911   1.05689   0.02509   0.73746   0.71582
  18   35517.5    281.6   0.123084638   1.14087   0.86884   0.48626  -0.38670
  19   35671.3    280.3   0.005024509   0.04637   0.03425  -0.20510  -0.05596
  20   36332.0    275.2   0.143339739   1.29883   0.05886  -0.93253   0.65249
  21   37268.9    268.3   0.457705753   4.04310   1.62971   1.14211   0.28767
  22   37587.5    266.0   0.018504430   0.16207   0.25505  -0.08587   0.29941
  23   38043.6    262.9   0.012401439   0.10732  -0.21182  -0.21506   0.12727
  24   38407.5    260.4   0.218070274   1.86920  -0.60113   0.34727   1.17781
  25   38787.1    257.8   0.374737097   3.18064   1.52273   0.75674   0.53783
  26   39376.4    254.0   0.165677918   1.38517   0.33100  -0.21822  -1.10815
  27   39660.5    252.1   0.016265757   0.13502   0.32572  -0.07716  -0.15157
  28   39938.0    250.4   0.013146250   0.10837   0.17452  -0.06037  -0.27252

-----------------------------------------------------------------------------
         ABSORPTION SPECTRUM VIA TRANSITION VELOCITY DIPOLE MOMENTS
-----------------------------------------------------------------------------
State   Energy  Wavelength   fosc         P2         PX        PY        PZ  
        (cm-1)    (nm)                  (au**2)     (au)      (au)      (au) 
-----------------------------------------------------------------------------
   0   18562.8    538.7   2.481266030   0.31479  -0.30535  -0.46204   0.08983
   1   20852.7    479.6   0.044621040   0.00636  -0.04787   0.06194   0.01520
   2   26213.3    381.5   0.516444067   0.09252  -0.25145  -0.15580  -0.07089
   3   27428.6    364.6   0.004756513   0.00089  -0.00839   0.02797   0.00622
   4   27529.7    363.2   0.018933963   0.00356   0.05131   0.00274  -0.03038
   5   29163.3    342.9   0.120631115   0.02404   0.09979  -0.06177   0.10135
   6   30458.2    328.3   0.118404851   0.02465   0.11483   0.04485  -0.09721
   7   30646.6    326.3   0.213382142   0.04469  -0.12877  -0.16425  -0.03369
   8   32204.6    310.5   0.008871681   0.00195  -0.01112  -0.03830  -0.01903
   9   32257.7    310.0   0.025010334   0.00551  -0.07286  -0.00986   0.01038
  10   32659.1    306.2   0.147185849   0.03285   0.08645   0.09747   0.12601
  11   32802.0    304.9   0.072927164   0.01635  -0.12445   0.01538   0.02500
  12   32971.4    303.3   0.062444476   0.01407  -0.04781  -0.07447   0.07899
  13   33255.8    300.7   0.047505725   0.01080   0.01262   0.09937   0.02764
  14   33943.4    294.6   0.059637613   0.01384   0.09216   0.07297  -0.00412
  15   34282.4    291.7   0.052561548   0.01232  -0.05466  -0.09519   0.01636
  16   34337.4    291.2   0.017987834   0.00422   0.01616   0.02646  -0.05710
  17   35384.9    282.6   0.104685279   0.02532   0.00674   0.11430   0.11048
  18   35517.5    281.6   0.118099734   0.02867   0.13734   0.07955  -0.05897
  19   35671.3    280.3   0.004363224   0.00106   0.00351  -0.03102  -0.00943
  20   36332.0    275.2   0.120114970   0.02983   0.00804  -0.14185   0.09818
  21   37268.9    268.3   0.396862096   0.10109   0.25764   0.18074   0.04522
  22   37587.5    266.0   0.016711894   0.00429   0.04238  -0.01471   0.04775
  23   38043.6    262.9   0.012383371   0.00322  -0.03773  -0.03780   0.01916
  24   38407.5    260.4   0.179830683   0.04720  -0.09508   0.05502   0.18745
  25   38787.1    257.8   0.289894022   0.07685   0.23696   0.11560   0.08564
  26   39376.4    254.0   0.128169033   0.03449   0.04944  -0.03558  -0.17545
  27   39660.5    252.1   0.014024093   0.00380   0.05662  -0.00826  -0.02297
  28   39938.0    250.4   0.009754641   0.00266   0.02311  -0.01088  -0.04484

-------------------------------------------------------------------
                             CD SPECTRUM
-------------------------------------------------------------------
State   Energy Wavelength       R         MX        MY        MZ   
        (cm-1)   (nm)       (1e40*cgs)   (au)      (au)      (au)  
-------------------------------------------------------------------
   0   18562.8    538.7    317.31774   1.49790  -1.14464  -2.15725
   1   20852.7    479.6    -539.86780  -1.46803   1.48040   4.46475
   2   26213.3    381.5    133.69816  -0.75360   0.41036   2.77973
   3   27428.6    364.6    -67.54040  -0.68410   0.66416   1.58569
   4   27529.7    363.2    -108.14950  -0.06491  -0.05211  -1.84800
   5   29163.3    342.9    456.19769   0.84244  -0.67231  -3.94623
   6   30458.2    328.3    -73.95439  -1.95090   1.52091  -1.99065
   7   30646.6    326.3    -39.06838   0.32637  -0.42018   0.18962
   8   32204.6    310.5     17.01121  -0.40989   0.40725  -0.04859
   9   32257.7    310.0     90.28942   1.02182  -0.64019   1.70837
  10   32659.1    306.2    155.39952   0.45368  -0.36659  -0.77528
  11   32802.0    304.9    134.57086   1.27267  -0.57927   4.14242
  12   32971.4    303.3    -160.10594   1.95172  -1.42752   0.74248
  13   33255.8    300.7    -42.38552  -0.21645   0.18478   0.34470
  14   33943.4    294.6      4.82550   0.37966  -0.55213  -0.64614
  15   34282.4    291.7    -23.04900   0.67591  -0.58201  -0.44365
  16   34337.4    291.2     26.52363  -1.38440   1.19774   0.36406
  17   35384.9    282.6    -67.55608   1.15357  -0.83076   1.21581
  18   35517.5    281.6     22.87394  -1.96203   1.43546  -2.35233
  19   35671.3    280.3    -58.24797   0.65201  -0.64468  -1.65381
  20   36332.0    275.2    -435.15223   3.29201  -2.65657  -1.26446
  21   37268.9    268.3    464.00518  -0.93984   0.44300  -3.27718
  22   37587.5    266.0     20.23555   2.20985  -1.96256  -2.73200
  23   38043.6    262.9      3.05937   0.70915  -0.52414   0.19264
  24   38407.5    260.4    -1177.39067   1.64193  -0.79103   5.31200
  25   38787.1    257.8    1422.11481  -2.59367   0.81262  -5.01732
  26   39376.4    254.0    -612.52617  -1.84983   1.17793  -3.12940
  27   39660.5    252.1    -106.85769   0.27910  -0.39582  -2.18958
  28   39938.0    250.4     31.54460  -1.33577   0.91732  -0.56756

sTD-DFT done

Total run time:        4.362 sec

           *** ORCA-CIS/TD-DFT FINISHED WITHOUT ERROR ***

-------------------------   --------------------
FINAL SINGLE POINT ENERGY     -3514.246167642906
-------------------------   --------------------


                            ***************************************
                            *     ORCA property calculations      *
                            ***************************************

                                    ---------------------
                                    Active property flags
                                    ---------------------
   (+) Dipole Moment


------------------------------------------------------------------------------
                       ORCA ELECTRIC PROPERTIES CALCULATION
------------------------------------------------------------------------------

Dipole Moment Calculation                       ... on
Quadrupole Moment Calculation                   ... off
Polarizability Calculation                      ... off
GBWName                                         ... FDICTF.gbw
Electron density file                           ... FDICTF.scfp
The origin for moment calculation is the CENTER OF MASS  = (-14.179597, -17.382240 -0.248114)

-------------
DIPOLE MOMENT
-------------
                                X             Y             Z
Electronic contribution:     24.58650     -19.32703      18.45333
Nuclear contribution   :    -26.46711      21.08640     -16.85337
                        -----------------------------------------
Total Dipole Moment    :     -1.88061       1.75937       1.59996
                        -----------------------------------------
Magnitude (a.u.)       :      3.03182
Magnitude (Debye)      :      7.70627



--------------------
Rotational spectrum 
--------------------
 
Rotational constants in cm-1:     0.003091     0.000286     0.000272 
Rotational constants in MHz :    92.668831     8.577575     8.161675 

 Dipole components along the rotational axes: 
x,y,z [a.u.] :    -0.099828    -0.636670     2.962536 
x,y,z [Debye]:    -0.253743    -1.618286     7.530167 

 

Timings for individual modules:

Sum of individual times         ...     4150.915 sec (=  69.182 min)
GTO integral calculation        ...        4.124 sec (=   0.069 min)   0.1 %
SCF iterations                  ...     4142.378 sec (=  69.040 min)  99.8 %
CIS module                      ...        4.414 sec (=   0.074 min)   0.1 %
                             ****ORCA TERMINATED NORMALLY****
TOTAL RUN TIME: 0 days 1 hours 9 minutes 11 seconds 445 msec
