
                                 *****************
                                 * O   R   C   A *
                                 *****************

           --- An Ab Initio, DFT and Semiempirical electronic structure package ---

                  #######################################################
                  #                        -***-                        #
                  #          Department of theory and spectroscopy      #
                  #               Directorship: Frank Neese             #
                  #        Max Planck Institute fuer Kohlenforschung    #
                  #                Kaiser Wilhelm Platz 1               #
                  #                 D-45470 Muelheim/Ruhr               #
                  #                      Germany                        #
                  #                                                     #
                  #                  All rights reserved                #
                  #                        -***-                        #
                  #######################################################


                         Program Version 4.2.0 -  RELEASE  -


 With contributions from (in alphabetic order):
   Daniel Aravena         : Magnetic Suceptibility
   Michael Atanasov       : Ab Initio Ligand Field Theory (pilot matlab implementation)
   Alexander A. Auer      : GIAO ZORA, VPT2
   Ute Becker             : Parallelization
   Giovanni Bistoni       : ED, misc. LED, open-shell LED, HFLED
   Martin Brehm           : Molecular dynamics
   Dmytro Bykov           : SCF Hessian
   Vijay G. Chilkuri      : MRCI spin determinant printing, contributions to CSF-ICE
   Dipayan Datta          : RHF DLPNO-CCSD density
   Achintya Kumar Dutta   : EOM-CC, STEOM-CC
   Dmitry Ganyushin       : Spin-Orbit,Spin-Spin,Magnetic field MRCI
   Miquel Garcia          : C-PCM Hessian, Gaussian charge scheme
   Yang Guo               : DLPNO-NEVPT2, CIM, IAO-localization
   Andreas Hansen         : Spin unrestricted coupled pair/coupled cluster methods
   Benjamin Helmich-Paris : CASSCF linear response (MC-RPA)
   Lee Huntington         : MR-EOM, pCC
   Robert Izsak           : Overlap fitted RIJCOSX, COSX-SCS-MP3, EOM
   Christian Kollmar      : KDIIS, OOCD, Brueckner-CCSD(T), CCSD density
   Simone Kossmann        : Meta GGA functionals, TD-DFT gradient, OOMP2, MP2 Hessian
   Martin Krupicka        : AUTO-CI
   Lucas Lang             : DCDCAS
   Dagmar Lenk            : GEPOL surface, SMD
   Dimitrios Liakos       : Extrapolation schemes; Compound Job, initial MDCI parallelization
   Dimitrios Manganas     : Further ROCIS development; embedding schemes
   Dimitrios Pantazis     : SARC Basis sets
   Taras Petrenko         : DFT Hessian,TD-DFT gradient, ASA, ECA, R-Raman, ABS, FL, XAS/XES, NRVS
   Peter Pinski           : DLPNO-MP2, DLPNO-MP2 Gradient
   Christoph Reimann      : Effective Core Potentials
   Marius Retegan         : Local ZFS, SOC
   Christoph Riplinger    : Optimizer, TS searches, QM/MM, DLPNO-CCSD(T), (RO)-DLPNO pert. Triples
   Tobias Risthaus        : Range-separated hybrids, TD-DFT gradient, RPA, STAB
   Michael Roemelt        : Original ROCIS implementation
   Masaaki Saitow         : Open-shell DLPNO-CCSD energy and density
   Barbara Sandhoefer     : DKH picture change effects
   Avijit Sen             : IP-ROCIS
   Kantharuban Sivalingam : CASSCF convergence, NEVPT2, FIC-MRCI
   Bernardo de Souza      : ESD, SOC TD-DFT
   Georgi Stoychev        : AutoAux, RI-MP2 NMR
   Willem Van den Heuvel  : Paramagnetic NMR
   Boris Wezisla          : Elementary symmetry handling
   Frank Wennmohs         : Technical directorship


 We gratefully acknowledge several colleagues who have allowed us to
 interface, adapt or use parts of their codes:
   Stefan Grimme, W. Hujo, H. Kruse,             : VdW corrections, initial TS optimization,
                  C. Bannwarth                     DFT functionals, gCP, sTDA/sTD-DF
   Ed Valeev, F. Pavosevic, A. Kumar             : LibInt (2-el integral package), F12 methods
   Garnet Chan, S. Sharma, J. Yang, R. Olivares  : DMRG
   Ulf Ekstrom                                   : XCFun DFT Library
   Mihaly Kallay                                 : mrcc  (arbitrary order and MRCC methods)
   Andreas Klamt, Michael Diedenhofen            : otool_cosmo (COSMO solvation model)
   Jiri Pittner, Ondrej Demel                    : Mk-CCSD
   Frank Weinhold                                : gennbo (NPA and NBO analysis)
   Christopher J. Cramer and Donald G. Truhlar   : smd solvation model
   Lars Goerigk                                  : TD-DFT with DH, B97 family of functionals
   V. Asgeirsson, H. Jonsson                     : NEB implementation
   FAccTs GmbH                                   : IRC, NEB, NEB-TS, Multilevel, MM, QM/MM, CI optimization
   S Lehtola, MJT Oliveira, MAL Marques          : LibXC Library


 Your calculation uses the libint2 library for the computation of 2-el integrals
 For citations please refer to: http://libint.valeyev.net

 Your ORCA version has been built with support for libXC version: 4.2.3
 For citations please refer to: https://tddft.org/programs/libxc/

 This ORCA versions uses:
   CBLAS   interface :  Fast vector & matrix operations
   LAPACKE interface :  Fast linear algebra routines
   SCALAPACK package :  Parallel linear algebra routines


XCFun DFT library Copyright 2009-2010 Ulf Ekstrom and contributors.
See http://admol.org/xcfun for more information. This is free soft-
ware; see the source code for copying conditions. There is ABSOLUTELY
NO WARRANTY; not even for MERCHANTABILITY or FITNESS FOR A PARTICULAR
PURPOSE. For details see the documentation. Scientific users of this 
library should cite U. Ekstrom, L. Visscher, R. Bast, A. J. Thorvald-
sen and K. Ruud; J.Chem.Theor.Comp. 2010, DOI: 10.1021/ct100117s
XCFun Version 0.99 
----- Orbital basis set information -----
Your calculation utilizes the basis: def2-SVP
   F. Weigend and R. Ahlrichs, Phys. Chem. Chem. Phys. 7, 3297 (2005).

----- AuxJ basis set information -----
Your calculation utilizes the auxiliary basis: def2/J
   F. Weigend, Phys. Chem. Chem. Phys. 8, 1057 (2006).

================================================================================
                                        WARNINGS
                       Please study these warnings very carefully!
================================================================================

INFO   : Checking CIS options ...

WARNING: CIS/ROCIS methods need fully converged wavefunctions
  ===> : Setting SCFConvForced true
         You can overwrite this default with %scf ConvForced false 


INFO   : the flag for use of LIBINT has been found!

================================================================================
                                       INPUT FILE
================================================================================
NAME = FO-2F.inp
|  1> # ORCA input file
|  2> # FO-2F.out: Geometry 97
|  3> ! CAM-B3LYP def2-SVP def2/J RIJCOSX Grid4 TightSCF
|  4> %maxcore 5000
|  5> %tddft
|  6>     Mode sTDDFT
|  7>     Ethresh 5.0
|  8>     maxcore 5000
|  9> end
| 10> * xyz 0 1
| 11>    C        5.08002        -3.50737         1.97359
| 12>    O        6.23184        -3.34276         2.33578
| 13>    C        4.36498        -4.80815         1.99662
| 14>    C        4.89574        -6.04912         2.32864
| 15>    C        4.05598        -7.15227         2.23629
| 16>    F        4.50073        -8.37293         2.51971
| 17>    C        2.71745        -6.99568         1.83095
| 18>    F        1.95809        -8.08355         1.73941
| 19>    C        2.18384        -5.74794         1.51784
| 20>    C        3.02948        -4.63284         1.59057
| 21>    C        2.81624        -3.20009         1.27711
| 22>    C        1.59858        -2.62703         0.96209
| 23>    C        1.42547        -1.22510         0.73431
| 24>    N        1.25449        -0.09086         0.54722
| 25>    C        0.39317        -3.39052         0.85999
| 26>    N       -0.58769        -4.00705         0.76773
| 27>    C        4.11588        -2.52630         1.39062
| 28>    C        4.44351        -1.33334         0.77607
| 29>    C        5.70031        -0.67444         0.69515
| 30>    C        6.85014        -0.74600         1.48776
| 31>    C        7.94326        -0.05550         0.94663
| 32>    C        7.64958         0.56505        -0.27005
| 33>    S        5.99736         0.33909        -0.72376
| 34>    C        8.68095         1.16150        -1.08140
| 35>    C       10.01263         0.84371        -0.69063
| 36>    O       10.28581         0.13495         0.42391
| 37>    C        9.33375         0.08666         1.52445
| 38>    C        9.74974        -1.12801         2.36255
| 39>    C        9.74737        -2.45649         1.60960
| 40>    C        9.43858         1.41222         2.31357
| 41>    C       10.82111         1.71108         2.89255
| 42>    C       11.08646         1.18329        -1.51618
| 43>    C       10.83314         1.88657        -2.69255
| 44>    C        9.52171         2.28406        -3.05982
| 45>    C        8.45392         1.89697        -2.26729
| 46>    C        9.53798         3.05291        -4.38327
| 47>    C        8.73575         2.30601        -5.48199
| 48>    C        9.16725         0.86463        -5.74385
| 49>    C        9.04423         4.52020        -4.24642
| 50>    C        7.57397         4.72818        -3.88756
| 51>    C       11.03379         3.05215        -4.70383
| 52>    C       11.76077         2.33100        -3.72598
| 53>    C       13.13187         2.11014        -3.85002
| 54>    C       13.79566         2.64440        -4.95543
| 55>    C       13.10161         3.46318        -5.89052
| 56>    C       11.70465         3.63379        -5.76637
| 57>    C       13.93591         4.09582        -6.88232
| 58>    C       15.24177         3.66047        -7.12284
| 59>    C       15.76368         2.45864        -6.36634
| 60>    C       17.26146         2.56031        -6.04614
| 61>    C       17.66141         3.83930        -5.30976
| 62>    C       15.39859         1.17424        -7.14354
| 63>    C       15.62783        -0.13678        -6.39572
| 64>    O       15.12205         2.41676        -5.06261
| 65>    C       15.87916         4.41514        -8.11251
| 66>    C       15.09870         5.46759        -8.62139
| 67>    S       13.51868         5.46831        -7.84603
| 68>    C       15.66223         6.46967        -9.45295
| 69>    C       15.30730         7.72804        -9.88080
| 70>    C       14.09173         8.52282        -9.86082
| 71>    C       12.79780         8.05924       -10.02308
| 72>    C       11.65871         8.92004        -9.95489
| 73>    N       10.73162         9.61705        -9.87867
| 74>    C       12.52731         6.71832       -10.43199
| 75>    N       12.29644         5.64544       -10.81485
| 76>    C       14.49947         9.95099        -9.88599
| 77>    C       13.76656        11.13411        -9.73742
| 78>    C       14.44157        12.34528        -9.87288
| 79>    F       13.78252        13.48862        -9.70258
| 80>    C       15.81195        12.39815       -10.19161
| 81>    F       16.39205        13.58481       -10.35107
| 82>    C       16.54827        11.22714       -10.33293
| 83>    C       15.87840        10.01947       -10.17366
| 84>    C       16.44069         8.64556       -10.24461
| 85>    O       17.59006         8.33516       -10.47842
| 86>    H        5.93396        -6.15563         2.64629
| 87>    H        1.14349        -5.69795         1.20402
| 88>    H        3.66173        -0.87448         0.16667
| 89>    H        6.86955        -1.31405         2.41153
| 90>    H        9.08148        -1.17456         3.23799
| 91>    H       10.75798        -0.93137         2.75579
| 92>    H        8.73659        -2.75359         1.29513
| 93>    H       10.14339        -3.25693         2.25253
| 94>    H       10.38212        -2.39102         0.71440
| 95>    H        8.67846         1.38565         3.11224
| 96>    H        9.13276         2.22384         1.63249
| 97>    H       11.09813         1.00423         3.68847
| 98>    H       10.84794         2.72113         3.32991
| 99>    H       11.59294         1.65638         2.11017
|100>    H       12.09036         0.87227        -1.22328
|101>    H        7.42631         2.12854        -2.55353
|102>    H        8.80877         2.89515        -6.41258
|103>    H        7.67131         2.31476        -5.19810
|104>    H       10.21889         0.80588        -6.06532
|105>    H        8.55033         0.41564        -6.53682
|106>    H        9.05370         0.24279        -4.84222
|107>    H        9.24683         5.02086        -5.20861
|108>    H        9.68033         5.02440        -3.50139
|109>    H        6.89866         4.21374        -4.58644
|110>    H        7.32338         5.79954        -3.92926
|111>    H        7.34265         4.37623        -2.87134
|112>    H       13.70050         1.52941        -3.12208
|113>    H       11.17208         4.21946        -6.52006
|114>    H       17.82663         2.45332        -6.98650
|115>    H       17.51909         1.68534        -5.43076
|116>    H       17.57509         4.72934        -5.95021
|117>    H       18.70259         3.77809        -4.95824
|118>    H       17.01846         3.99473        -4.43193
|119>    H       15.96393         1.19450        -8.08897
|120>    H       14.33641         1.24931        -7.42875
|121>    H       16.68484        -0.29532        -6.13203
|122>    H       15.30779        -0.98662        -7.01785
|123>    H       15.04408        -0.16302        -5.46469
|124>    H       16.90088         4.24863        -8.45536
|125>    H       16.71375         6.26012        -9.69094
|126>    H       12.70398        11.15856        -9.50268
|127>    H       17.61158        11.26125       -10.57607
|128> *
|129> 
|130>                          ****END OF INPUT****
================================================================================

                       ****************************
                       * Single Point Calculation *
                       ****************************

---------------------------------
CARTESIAN COORDINATES (ANGSTROEM)
---------------------------------
  C      5.080020   -3.507370    1.973590
  O      6.231840   -3.342760    2.335780
  C      4.364980   -4.808150    1.996620
  C      4.895740   -6.049120    2.328640
  C      4.055980   -7.152270    2.236290
  F      4.500730   -8.372930    2.519710
  C      2.717450   -6.995680    1.830950
  F      1.958090   -8.083550    1.739410
  C      2.183840   -5.747940    1.517840
  C      3.029480   -4.632840    1.590570
  C      2.816240   -3.200090    1.277110
  C      1.598580   -2.627030    0.962090
  C      1.425470   -1.225100    0.734310
  N      1.254490   -0.090860    0.547220
  C      0.393170   -3.390520    0.859990
  N     -0.587690   -4.007050    0.767730
  C      4.115880   -2.526300    1.390620
  C      4.443510   -1.333340    0.776070
  C      5.700310   -0.674440    0.695150
  C      6.850140   -0.746000    1.487760
  C      7.943260   -0.055500    0.946630
  C      7.649580    0.565050   -0.270050
  S      5.997360    0.339090   -0.723760
  C      8.680950    1.161500   -1.081400
  C     10.012630    0.843710   -0.690630
  O     10.285810    0.134950    0.423910
  C      9.333750    0.086660    1.524450
  C      9.749740   -1.128010    2.362550
  C      9.747370   -2.456490    1.609600
  C      9.438580    1.412220    2.313570
  C     10.821110    1.711080    2.892550
  C     11.086460    1.183290   -1.516180
  C     10.833140    1.886570   -2.692550
  C      9.521710    2.284060   -3.059820
  C      8.453920    1.896970   -2.267290
  C      9.537980    3.052910   -4.383270
  C      8.735750    2.306010   -5.481990
  C      9.167250    0.864630   -5.743850
  C      9.044230    4.520200   -4.246420
  C      7.573970    4.728180   -3.887560
  C     11.033790    3.052150   -4.703830
  C     11.760770    2.331000   -3.725980
  C     13.131870    2.110140   -3.850020
  C     13.795660    2.644400   -4.955430
  C     13.101610    3.463180   -5.890520
  C     11.704650    3.633790   -5.766370
  C     13.935910    4.095820   -6.882320
  C     15.241770    3.660470   -7.122840
  C     15.763680    2.458640   -6.366340
  C     17.261460    2.560310   -6.046140
  C     17.661410    3.839300   -5.309760
  C     15.398590    1.174240   -7.143540
  C     15.627830   -0.136780   -6.395720
  O     15.122050    2.416760   -5.062610
  C     15.879160    4.415140   -8.112510
  C     15.098700    5.467590   -8.621390
  S     13.518680    5.468310   -7.846030
  C     15.662230    6.469670   -9.452950
  C     15.307300    7.728040   -9.880800
  C     14.091730    8.522820   -9.860820
  C     12.797800    8.059240  -10.023080
  C     11.658710    8.920040   -9.954890
  N     10.731620    9.617050   -9.878670
  C     12.527310    6.718320  -10.431990
  N     12.296440    5.645440  -10.814850
  C     14.499470    9.950990   -9.885990
  C     13.766560   11.134110   -9.737420
  C     14.441570   12.345280   -9.872880
  F     13.782520   13.488620   -9.702580
  C     15.811950   12.398150  -10.191610
  F     16.392050   13.584810  -10.351070
  C     16.548270   11.227140  -10.332930
  C     15.878400   10.019470  -10.173660
  C     16.440690    8.645560  -10.244610
  O     17.590060    8.335160  -10.478420
  H      5.933960   -6.155630    2.646290
  H      1.143490   -5.697950    1.204020
  H      3.661730   -0.874480    0.166670
  H      6.869550   -1.314050    2.411530
  H      9.081480   -1.174560    3.237990
  H     10.757980   -0.931370    2.755790
  H      8.736590   -2.753590    1.295130
  H     10.143390   -3.256930    2.252530
  H     10.382120   -2.391020    0.714400
  H      8.678460    1.385650    3.112240
  H      9.132760    2.223840    1.632490
  H     11.098130    1.004230    3.688470
  H     10.847940    2.721130    3.329910
  H     11.592940    1.656380    2.110170
  H     12.090360    0.872270   -1.223280
  H      7.426310    2.128540   -2.553530
  H      8.808770    2.895150   -6.412580
  H      7.671310    2.314760   -5.198100
  H     10.218890    0.805880   -6.065320
  H      8.550330    0.415640   -6.536820
  H      9.053700    0.242790   -4.842220
  H      9.246830    5.020860   -5.208610
  H      9.680330    5.024400   -3.501390
  H      6.898660    4.213740   -4.586440
  H      7.323380    5.799540   -3.929260
  H      7.342650    4.376230   -2.871340
  H     13.700500    1.529410   -3.122080
  H     11.172080    4.219460   -6.520060
  H     17.826630    2.453320   -6.986500
  H     17.519090    1.685340   -5.430760
  H     17.575090    4.729340   -5.950210
  H     18.702590    3.778090   -4.958240
  H     17.018460    3.994730   -4.431930
  H     15.963930    1.194500   -8.088970
  H     14.336410    1.249310   -7.428750
  H     16.684840   -0.295320   -6.132030
  H     15.307790   -0.986620   -7.017850
  H     15.044080   -0.163020   -5.464690
  H     16.900880    4.248630   -8.455360
  H     16.713750    6.260120   -9.690940
  H     12.703980   11.158560   -9.502680
  H     17.611580   11.261250  -10.576070

----------------------------
CARTESIAN COORDINATES (A.U.)
----------------------------
  NO LB      ZA    FRAG     MASS         X           Y           Z
   0 C     6.0000    0    12.011    9.599847   -6.627969    3.729545
   1 O     8.0000    0    15.999   11.776471   -6.316901    4.413985
   2 C     6.0000    0    12.011    8.248617   -9.086087    3.773065
   3 C     6.0000    0    12.011    9.251608  -11.431180    4.400492
   4 C     6.0000    0    12.011    7.664691  -13.515832    4.225976
   5 F     9.0000    0    18.998    8.505147  -15.822545    4.761562
   6 C     6.0000    0    12.011    5.135236  -13.219919    3.459994
   7 F     9.0000    0    18.998    3.700254  -15.275696    3.287009
   8 C     6.0000    0    12.011    4.126860  -10.862032    2.868302
   9 C     6.0000    0    12.011    5.724888   -8.754799    3.005742
  10 C     6.0000    0    12.011    5.321922   -6.047294    2.413388
  11 C     6.0000    0    12.011    3.020878   -4.964367    1.818087
  12 C     6.0000    0    12.011    2.693748   -2.315103    1.387645
  13 N     7.0000    0    14.007    2.370643   -0.171701    1.034096
  14 C     6.0000    0    12.011    0.742984   -6.407154    1.625146
  15 N     7.0000    0    14.007   -1.110573   -7.572227    1.450799
  16 C     6.0000    0    12.011    7.777886   -4.774015    2.627891
  17 C     6.0000    0    12.011    8.397017   -2.519647    1.466560
  18 C     6.0000    0    12.011   10.772025   -1.274507    1.313643
  19 C     6.0000    0    12.011   12.944889   -1.409736    2.811459
  20 C     6.0000    0    12.011   15.010586   -0.104880    1.788871
  21 C     6.0000    0    12.011   14.455611    1.067790   -0.510321
  22 S    16.0000    0    32.060   11.333368    0.640787   -1.367708
  23 C     6.0000    0    12.011   16.404618    2.194917   -2.043550
  24 C     6.0000    0    12.011   18.921129    1.594381   -1.305102
  25 O     8.0000    0    15.999   19.437364    0.255019    0.801074
  26 C     6.0000    0    12.011   17.638231    0.163764    2.880793
  27 C     6.0000    0    12.011   18.424338   -2.131630    4.464572
  28 C     6.0000    0    12.011   18.419860   -4.642093    3.041703
  29 C     6.0000    0    12.011   17.836331    2.668709    4.372014
  30 C     6.0000    0    12.011   20.448934    3.233473    5.466127
  31 C     6.0000    0    12.011   20.950373    2.236094   -2.865165
  32 C     6.0000    0    12.011   20.471668    3.565101   -5.088182
  33 C     6.0000    0    12.011   17.993424    4.316248   -5.782222
  34 C     6.0000    0    12.011   15.975594    3.584754   -4.284557
  35 C     6.0000    0    12.011   18.024170    5.769164   -8.283180
  36 C     6.0000    0    12.011   16.508175    4.357727  -10.359460
  37 C     6.0000    0    12.011   17.323592    1.633914  -10.854303
  38 C     6.0000    0    12.011   17.091118    8.541940   -8.024571
  39 C     6.0000    0    12.011   14.312729    8.934965   -7.346424
  40 C     6.0000    0    12.011   20.850841    5.767728   -8.888950
  41 C     6.0000    0    12.011   22.224634    4.404952   -7.041082
  42 C     6.0000    0    12.011   24.815638    3.987587   -7.275483
  43 C     6.0000    0    12.011   26.070019    4.997192   -9.364406
  44 C     6.0000    0    12.011   24.758455    6.544462  -11.131470
  45 C     6.0000    0    12.011   22.118583    6.866868  -10.896860
  46 C     6.0000    0    12.011   26.335053    7.739978  -13.005700
  47 C     6.0000    0    12.011   28.802771    6.917286  -13.460217
  48 C     6.0000    0    12.011   29.789038    4.646156  -12.030639
  49 C     6.0000    0    12.011   32.619432    4.838285  -11.425549
  50 C     6.0000    0    12.011   33.375228    7.255226  -10.033992
  51 C     6.0000    0    12.011   29.099118    2.218992  -13.499334
  52 C     6.0000    0    12.011   29.532319   -0.258477  -12.086159
  53 O     8.0000    0    15.999   28.576533    4.567015   -9.566946
  54 C     6.0000    0    12.011   30.007264    8.343405  -15.330422
  55 C     6.0000    0    12.011   28.532408   10.332248  -16.292066
  56 S    16.0000    0    32.060   25.546603   10.333608  -14.826848
  57 C     6.0000    0    12.011   29.597325   12.225904  -17.863487
  58 C     6.0000    0    12.011   28.926605   14.603879  -18.672006
  59 C     6.0000    0    12.011   26.629510   16.105796  -18.634249
  60 C     6.0000    0    12.011   24.184337   15.229756  -18.940876
  61 C     6.0000    0    12.011   22.031769   16.856433  -18.812016
  62 N     7.0000    0    14.007   20.279823   18.173591  -18.667981
  63 C     6.0000    0    12.011   23.673185   12.695785  -19.713604
  64 N     7.0000    0    14.007   23.236904   10.668336  -20.437105
  65 C     6.0000    0    12.011   27.400027   18.804646  -18.681814
  66 C     6.0000    0    12.011   26.015028   21.040419  -18.401057
  67 C     6.0000    0    12.011   27.290612   23.329198  -18.657039
  68 F     9.0000    0    18.998   26.045188   25.489798  -18.335219
  69 C     6.0000    0    12.011   29.880255   23.429108  -19.259352
  70 F     9.0000    0    18.998   30.976485   25.671570  -19.560687
  71 C     6.0000    0    12.011   31.271698   21.216220  -19.526408
  72 C     6.0000    0    12.011   30.005827   18.934054  -19.225431
  73 C     6.0000    0    12.011   31.068402   16.337741  -19.359507
  74 O     8.0000    0    15.999   33.240396   15.751170  -19.801344
  75 H     1.0000    0     1.008   11.213559  -11.632455    5.000763
  76 H     1.0000    0     1.008    2.160883  -10.767565    2.275268
  77 H     1.0000    0     1.008    6.919667   -1.652528    0.314961
  78 H     1.0000    0     1.008   12.981568   -2.483195    4.557131
  79 H     1.0000    0     1.008   17.161510   -2.219597    6.118914
  80 H     1.0000    0     1.008   20.329636   -1.760034    5.207688
  81 H     1.0000    0     1.008   16.509762   -5.203531    2.447441
  82 H     1.0000    0     1.008   19.168229   -6.154706    4.256665
  83 H     1.0000    0     1.008   19.619363   -4.518373    1.350020
  84 H     1.0000    0     1.008   16.399913    2.618499    5.881281
  85 H     1.0000    0     1.008   17.258415    4.202449    3.084959
  86 H     1.0000    0     1.008   20.972426    1.897720    6.970198
  87 H     1.0000    0     1.008   20.499636    5.142190    6.292618
  88 H     1.0000    0     1.008   21.907482    3.130105    3.987643
  89 H     1.0000    0     1.008   22.847469    1.648351   -2.311664
  90 H     1.0000    0     1.008   14.033692    4.022358   -4.825472
  91 H     1.0000    0     1.008   16.646163    5.471041  -12.118020
  92 H     1.0000    0     1.008   14.496675    4.374262   -9.822985
  93 H     1.0000    0     1.008   19.310903    1.522892  -11.461794
  94 H     1.0000    0     1.008   16.157782    0.785446  -12.352800
  95 H     1.0000    0     1.008   17.109013    0.458807   -9.150470
  96 H     1.0000    0     1.008   17.473976    9.488050   -9.842846
  97 H     1.0000    0     1.008   18.293173    9.494740   -6.616668
  98 H     1.0000    0     1.008   13.036578    7.962815   -8.667116
  99 H     1.0000    0     1.008   13.839183   10.959542   -7.425225
 100 H     1.0000    0     1.008   13.875598    8.269876   -5.426046
 101 H     1.0000    0     1.008   25.890193    2.890166   -5.899876
 102 H     1.0000    0     1.008   21.112172    7.973624  -12.321128
 103 H     1.0000    0     1.008   33.687449    4.636103  -13.202572
 104 H     1.0000    0     1.008   33.106282    3.184831  -10.262649
 105 H     1.0000    0     1.008   33.212107    8.937157  -11.244267
 106 H     1.0000    0     1.008   35.342773    7.139555   -9.369716
 107 H     1.0000    0     1.008   32.160229    7.548946   -8.375134
 108 H     1.0000    0     1.008   30.167456    2.257278  -15.285938
 109 H     1.0000    0     1.008   27.091889    2.360854  -14.038303
 110 H     1.0000    0     1.008   31.529778   -0.558074  -11.587857
 111 H     1.0000    0     1.008   28.927531   -1.864442  -13.261815
 112 H     1.0000    0     1.008   28.429191   -0.308063  -10.326768
 113 H     1.0000    0     1.008   31.938035    8.028747  -15.978315
 114 H     1.0000    0     1.008   31.584410   11.829912  -18.313223
 115 H     1.0000    0     1.008   24.007043   21.086622  -17.957463
 116 H     1.0000    0     1.008   33.281063   21.280678  -19.985876

--------------------------------
INTERNAL COORDINATES (ANGSTROEM)
--------------------------------
 C      0   0   0     0.000000000000     0.00000000     0.00000000
 O      1   0   0     1.218592368514     0.00000000     0.00000000
 C      1   2   0     1.484533997893   124.68178341     0.00000000
 C      3   1   2     1.389946041722   127.01955268   354.85671144
 C      4   3   1     1.389483825958   117.52757658   182.32647932
 F      5   4   3     1.329714365757   120.83087563   179.03085835
 C      5   4   3     1.407296523338   120.37379254   359.45155892
 F      7   5   4     1.329837703669   118.15880779   179.05855403
 C      7   5   4     1.392706936796   121.92889553   359.61818173
 C      9   7   5     1.401372424625   118.03565711     1.24426415
 C     10   9   7     1.482059726091   132.17873891   176.97933203
 C     11  10   9     1.382147329195   125.15460343     7.89623428
 C     12  11  10     1.430824421584   123.30628425   176.61044461
 N     13  12  11     1.162212203558   178.48302321   185.77122894
 C     12  11  10     1.430508531327   122.50284954   357.78057685
 N     15  12  11     1.162199418387   179.49924815   233.79365836
 C     11  10   9     1.468312505497   107.45259357   186.84730817
 C     17  11  10     1.381364065335   124.87862488   157.56009525
 C     18  17  11     1.421352699508   129.44921330   187.78679658
 C     19  18  17     1.398377801097   132.14996369   337.19270075
 C     20  19  18     1.401614519510   113.40574582   171.77684768
 C     21  20  19     1.397011262410   113.02431854     0.29628422
 S     22  21  20     1.728219203139   111.81062095     1.92328937
 C     22  21  20     1.441445629186   121.57424547   189.02058771
 C     24  22  21     1.423749732011   114.98571000    11.77628358
 O     25  24  22     1.348765161768   122.24477417   354.43218395
 C     26  25  24     1.456000844540   120.63664717   336.75081203
 C     27  26  25     1.533258784094   105.19078713   161.93265439
 C     28  27  26     1.527022733884   114.78812660   301.11073543
 C     27  26  25     1.546224116000   108.23969840   282.33236530
 C     30  27  26     1.528373102649   114.97960641   301.03189592
 C     25  24  22     1.396409054611   120.18033058   169.84395723
 C     32  25  24     1.393779092145   118.81072210     2.78613193
 C     33  32  25     1.418708637423   121.86203419     1.08080170
 C     34  33  32     1.384961354371   119.09384766   356.23387059
 C     34  33  32     1.530658334802   110.77745810   179.26956584
 C     36  34  33     1.551972364863   111.40040014   117.11961552
 C     37  36  34     1.527199795050   115.43921865   304.77596433
 C     36  34  33     1.554174034367   113.24786584   242.59736997
 C     39  36  34     1.527645458737   117.06343284   293.36890773
 C     36  34  33     1.529773462739   101.03008418   359.28790740
 C     41  36  34     1.415891191229   110.95155729     2.25079172
 C     42  41  36     1.394302790358   121.61022008   175.45648000
 C     43  42  41     1.395701321845   118.52263261     1.43688626
 C     44  43  42     1.423551684696   120.56668170     3.72187378
 C     41  36  34     1.384683892013   129.36938774   182.15293424
 C     45  44  43     1.442205637071   114.96031786   172.04515064
 C     47  45  44     1.397372474503   121.48720870    16.26731801
 C     48  47  45     1.512969810340   118.93274429     2.79277694
 C     49  48  47     1.534995034943   112.84767047   214.14792572
 C     50  49  48     1.529062106979   114.27306914    54.06362760
 C     49  48  47     1.544996410384   109.10653466    87.67150956
 C     52  49  48     1.526616903614   115.59596190   190.65464368
 O     44  43  42     1.350043685997   117.74881611   180.24608200
 C     48  47  45     1.398298798505   112.31254382   180.54404811
 C     55  48  47     1.405605801247   114.03175353     1.93054740
 S     47  45  44     1.728162792419   126.31400874   198.95798080
 C     56  55  48     1.418880692976   121.36284671   168.81246997
 C     58  56  55     1.375691093342   136.53703883   196.56800665
 C     59  58  56     1.452475429637   135.41147383   347.19904327
 C     60  59  58     1.384012127440   126.69304313   323.80247539
 C     61  60  59     1.429388870882   122.52930677   178.44064035
 N     62  61  60     1.162380444003   178.96500820   271.94270735
 C     61  60  59     1.427739007872   121.68747015   350.61252052
 N     64  61  60     1.162305566923   177.31674818   257.24630791
 C     60  59  58     1.485447739034   107.22582277   154.06591840
 C     66  60  59     1.399643900212   131.84933380   187.94695049
 C     67  66  60     1.393169293589   118.08891664   182.85575034
 F     68  67  66     1.330629681053   119.64192651   181.78040157
 C     68  67  66     1.407950778330   121.75185697     1.98422282
 F     70  68  67     1.330453102217   119.01291957   177.80838250
 C     70  68  67     1.390468591842   120.45097188   357.59147347
 C     72  70  68     1.390165306250   117.69718784     1.18014056
 C     73  72  70     1.486214195431   127.97398089   181.45828887
 O     74  73  72     1.213287547534   127.16464436   358.65324608
 H      4   3   1     1.090938435935   121.34056053     2.08550805
 H      9   7   5     1.087800586045   118.19430995   179.54718225
 H     18  17  11     1.092291548992   116.18335604     0.09963840
 H     20  19  18     1.084623696726   121.61865637   353.49427277
 H     28  27  26     1.102330950169   107.64291710   177.33461303
 H     28  27  26     1.099933127422   107.60705993    63.22804279
 H     29  28  27     1.099470781467   112.18171430   294.60216627
 H     29  28  27     1.100406751570   110.13154062   174.85756638
 H     29  28  27     1.099352956698   110.41457066    55.50376886
 H     30  27  26     1.102888094142   107.58970451   177.17125327
 H     30  27  26     1.102779607719   107.27434330    63.62851959
 H     31  30  27     1.099938929805   112.10308988   292.65175082
 H     31  30  27     1.101001644413   110.60440299   173.05107084
 H     31  30  27     1.100378163769   110.81943840    53.15893795
 H     32  25  24     1.091026608475   118.65577702   183.82870921
 H     35  34  33     1.091576985192   121.09506680   184.03508212
 H     37  36  34     1.103818648194   107.80579359   181.49167743
 H     37  36  34     1.101681718193   108.25118642    67.14985329
 H     38  37  36     1.101245301012   111.72918139   300.06955591
 H     38  37  36     1.100447057972   110.50189058   180.23280782
 H     38  37  36     1.101142699653   111.31255229    60.77714394
 H     39  36  34     1.103411433555   107.05303020   171.20496722
 H     39  36  34     1.101776089276   107.94881008    57.44906172
 H     40  39  36     1.099602366358   112.21437004   305.14423487
 H     40  39  36     1.101066068726   110.03619441   186.20069100
 H     40  39  36     1.100036741795   112.07610334    66.81373569
 H     43  42  41     1.091093054418   122.50953348   182.01571919
 H     46  41  36     1.093018192850   121.20748063     1.83611001
 H     50  49  48     1.102334304374   108.41487032   289.73465661
 H     50  49  48     1.100290080933   107.00572298   175.51106725
 H     51  50  49     1.099908426416   112.08049145   290.72755622
 H     51  50  49     1.100621990921   110.77701665   170.31725284
 H     51  50  49     1.099149078287   110.48107373    50.89434996
 H     52  49  48     1.101752090127   107.16516003    66.27360092
 H     52  49  48     1.102364096567   107.53139441   312.99537303
 H     53  52  49     1.100880324013   112.65523156   298.26057877
 H     53  52  49     1.100772167208   110.02901971   178.12629906
 H     53  52  49     1.099213109911   110.83390668    58.97870592
 H     55  48  47     1.090496887203   124.55487666   179.89455428
 H     58  56  55     1.098291743117   111.86974977     4.60352725
 H     67  66  60     1.088474586979   123.57737781     4.11623737
 H     72  70  68     1.091287637518   120.81667793   180.23801454

---------------------------
INTERNAL COORDINATES (A.U.)
---------------------------
 C      0   0   0     0.000000000000     0.00000000     0.00000000
 O      1   0   0     2.302805845377     0.00000000     0.00000000
 C      1   2   0     2.805362692513   124.68178341     0.00000000
 C      3   1   2     2.626617359783   127.01955268   354.85671144
 C      4   3   1     2.625743898574   117.52757658   182.32647932
 F      5   4   3     2.512795987621   120.83087563   179.03085835
 C      5   4   3     2.659405018329   120.37379254   359.45155892
 F      7   5   4     2.513029062497   118.15880779   179.05855403
 C      7   5   4     2.631834695357   121.92889553   359.61818173
 C      9   7   5     2.648210094171   118.03565711     1.24426415
 C     10   9   7     2.800686996426   132.17873891   176.97933203
 C     11  10   9     2.611879928909   125.15460343     7.89623428
 C     12  11  10     2.703866302519   123.30628425   176.61044461
 N     13  12  11     2.196262774226   178.48302321   185.77122894
 C     12  11  10     2.703269356446   122.50284954   357.78057685
 N     15  12  11     2.196238613755   179.49924815   233.79365836
 C     11  10   9     2.774708514402   107.45259357   186.84730817
 C     17  11  10     2.610399774724   124.87862488   157.56009525
 C     18  17  11     2.685967341781   129.44921330   187.78679658
 C     19  18  17     2.642551075828   132.14996369   337.19270075
 C     20  19  18     2.648667587201   113.40574582   171.77684768
 C     21  20  19     2.639968691958   113.02431854     0.29628422
 S     22  21  20     3.265860993317   111.81062095     1.92328937
 C     22  21  20     2.723937476100   121.57424547   189.02058771
 C     24  22  21     2.690497076744   114.98571000    11.77628358
 O     25  24  22     2.548796774716   122.24477417   354.43218395
 C     26  25  24     2.751442846938   120.63664717   336.75081203
 C     27  26  25     2.897439194366   105.19078713   161.93265439
 C     28  27  26     2.885654767313   114.78812660   301.11073543
 C     27  26  25     2.921940120904   108.23969840   282.33236530
 C     30  27  26     2.888206594458   114.97960641   301.03189592
 C     25  24  22     2.638830684143   120.18033058   169.84395723
 C     32  25  24     2.633860775339   118.81072210     2.78613193
 C     33  32  25     2.680970788559   121.86203419     1.08080170
 C     34  33  32     2.617197665825   119.09384766   356.23387059
 C     34  33  32     2.892525057380   110.77745810   179.26956584
 C     36  34  33     2.932802737006   111.40040014   117.11961552
 C     37  36  34     2.885989364425   115.43921865   304.77596433
 C     36  34  33     2.936963289405   113.24786584   242.59736997
 C     39  36  34     2.886831546742   117.06343284   293.36890773
 C     36  34  33     2.890852891517   101.03008418   359.28790740
 C     41  36  34     2.675646586854   110.95155729     2.25079172
 C     42  41  36     2.634850421539   121.61022008   175.45648000
 C     43  42  41     2.637493263039   118.52263261     1.43688626
 C     44  43  42     2.690122821557   120.56668170     3.72187378
 C     41  36  34     2.616673337957   129.36938774   182.15293424
 C     45  44  43     2.725373682862   114.96031786   172.04515064
 C     47  45  44     2.640651283891   121.48720870    16.26731801
 C     48  47  45     2.859098590433   118.93274429     2.79277694
 C     49  48  47     2.900720232971   112.84767047   214.14792572
 C     50  49  48     2.889508623947   114.27306914    54.06362760
 C     49  48  47     2.919620093518   109.10653466    87.67150956
 C     52  49  48     2.884887859245   115.59596190   190.65464368
 O     44  43  42     2.551212835364   117.74881611   180.24608200
 C     48  47  45     2.642401782565   112.31254382   180.54404811
 C     55  48  47     2.656210016608   114.03175353     1.93054740
 S     47  45  44     3.265754392504   126.31400874   198.95798080
 C     56  55  48     2.681295926433   121.36284671   168.81246997
 C     58  56  55     2.599679411291   136.53703883   196.56800665
 C     59  58  56     2.744780778264   135.41147383   347.19904327
 C     60  59  58     2.615403886887   126.69304313   323.80247539
 C     61  60  59     2.701153504841   122.52930677   178.44064035
 N     62  61  60     2.196580702591   178.96500820   271.94270735
 C     61  60  59     2.698035715595   121.68747015   350.61252052
 N     64  61  60     2.196439205416   177.31674818   257.24630791
 C     60  59  58     2.807089413026   107.22582277   154.06591840
 C     66  60  59     2.644943656414   131.84933380   187.94695049
 C     67  66  60     2.632708423072   118.08891664   182.85575034
 F     68  67  66     2.514525682858   119.64192651   181.78040157
 C     68  67  66     2.660641381085   121.75185697     1.98422282
 F     70  68  67     2.514191997217   119.01291957   177.80838250
 C     70  68  67     2.627604836401   120.45097188   357.59147347
 C     72  70  68     2.627031709690   117.69718784     1.18014056
 C     73  72  70     2.808537805710   127.97398089   181.45828887
 O     74  73  72     2.292781186535   127.16464436   358.65324608
 H      4   3   1     2.061574872885   121.34056053     2.08550805
 H      9   7   5     2.055645195944   118.19430995   179.54718225
 H     18  17  11     2.064131885992   116.18335604     0.09963840
 H     20  19  18     2.049641745174   121.61865637   353.49427277
 H     28  27  26     2.083103604764   107.64291710   177.33461303
 H     28  27  26     2.078572376455   107.60705993    63.22804279
 H     29  28  27     2.077698669221   112.18171430   294.60216627
 H     29  28  27     2.079467396384   110.13154062   174.85756638
 H     29  28  27     2.077476012675   110.41457066    55.50376886
 H     30  27  26     2.084156454291   107.58970451   177.17125327
 H     30  27  26     2.083951444661   107.27434330    63.62851959
 H     31  30  27     2.078583341369   112.10308988   292.65175082
 H     31  30  27     2.080591580937   110.60440299   173.05107084
 H     31  30  27     2.079413373271   110.81943840    53.15893795
 H     32  25  24     2.061741494838   118.65577702   183.82870921
 H     35  34  33     2.062781556104   121.09506680   184.03508212
 H     37  36  34     2.085914946601   107.80579359   181.49167743
 H     37  36  34     2.081876734132   108.25118642    67.14985329
 H     38  37  36     2.081052025179   111.72918139   300.06955591
 H     38  37  36     2.079543564447   110.50189058   180.23280782
 H     38  37  36     2.080858136712   111.31255229    60.77714394
 H     39  36  34     2.085145422456   107.05303020   171.20496722
 H     39  36  34     2.082055069634   107.94881008    57.44906172
 H     40  39  36     2.077947328628   112.21437004   305.14423487
 H     40  39  36     2.080713325246   110.03619441   186.20069100
 H     40  39  36     2.078768179244   112.07610334    66.81373569
 H     43  42  41     2.061867059474   122.50953348   182.01571919
 H     46  41  36     2.065505043879   121.20748063     1.83611001
 H     50  49  48     2.083109943294   108.41487032   289.73465661
 H     50  49  48     2.079246920834   107.00572298   175.51106725
 H     51  50  49     2.078525698318   112.08049145   290.72755622
 H     51  50  49     2.079874139813   110.77701665   170.31725284
 H     51  50  49     2.077090738315   110.48107373    50.89434996
 H     52  49  48     2.082009717816   107.16516003    66.27360092
 H     52  49  48     2.083166242379   107.53139441   312.99537303
 H     53  52  49     2.080362318608   112.65523156   298.26057877
 H     53  52  49     2.080157931866   110.02901971   178.12629906
 H     53  52  49     2.077211740547   110.83390668    58.97870592
 H     55  48  47     2.060740466708   124.55487666   179.89455428
 H     58  56  55     2.075470609639   111.86974977     4.60352725
 H     67  66  60     2.056918873124   123.57737781     4.11623737
 H     72  70  68     2.062234768243   120.81667793   180.23801454

---------------------
BASIS SET INFORMATION
---------------------
There are 6 groups of distinct atoms

 Group   1 Type C   : 7s4p1d contracted to 3s2p1d pattern {511/31/1}
 Group   2 Type O   : 7s4p1d contracted to 3s2p1d pattern {511/31/1}
 Group   3 Type F   : 7s4p1d contracted to 3s2p1d pattern {511/31/1}
 Group   4 Type N   : 7s4p1d contracted to 3s2p1d pattern {511/31/1}
 Group   5 Type S   : 10s7p1d contracted to 4s3p1d pattern {5311/511/1}
 Group   6 Type H   : 4s1p contracted to 2s1p pattern {31/1}

Atom   0C    basis set group =>   1
Atom   1O    basis set group =>   2
Atom   2C    basis set group =>   1
Atom   3C    basis set group =>   1
Atom   4C    basis set group =>   1
Atom   5F    basis set group =>   3
Atom   6C    basis set group =>   1
Atom   7F    basis set group =>   3
Atom   8C    basis set group =>   1
Atom   9C    basis set group =>   1
Atom  10C    basis set group =>   1
Atom  11C    basis set group =>   1
Atom  12C    basis set group =>   1
Atom  13N    basis set group =>   4
Atom  14C    basis set group =>   1
Atom  15N    basis set group =>   4
Atom  16C    basis set group =>   1
Atom  17C    basis set group =>   1
Atom  18C    basis set group =>   1
Atom  19C    basis set group =>   1
Atom  20C    basis set group =>   1
Atom  21C    basis set group =>   1
Atom  22S    basis set group =>   5
Atom  23C    basis set group =>   1
Atom  24C    basis set group =>   1
Atom  25O    basis set group =>   2
Atom  26C    basis set group =>   1
Atom  27C    basis set group =>   1
Atom  28C    basis set group =>   1
Atom  29C    basis set group =>   1
Atom  30C    basis set group =>   1
Atom  31C    basis set group =>   1
Atom  32C    basis set group =>   1
Atom  33C    basis set group =>   1
Atom  34C    basis set group =>   1
Atom  35C    basis set group =>   1
Atom  36C    basis set group =>   1
Atom  37C    basis set group =>   1
Atom  38C    basis set group =>   1
Atom  39C    basis set group =>   1
Atom  40C    basis set group =>   1
Atom  41C    basis set group =>   1
Atom  42C    basis set group =>   1
Atom  43C    basis set group =>   1
Atom  44C    basis set group =>   1
Atom  45C    basis set group =>   1
Atom  46C    basis set group =>   1
Atom  47C    basis set group =>   1
Atom  48C    basis set group =>   1
Atom  49C    basis set group =>   1
Atom  50C    basis set group =>   1
Atom  51C    basis set group =>   1
Atom  52C    basis set group =>   1
Atom  53O    basis set group =>   2
Atom  54C    basis set group =>   1
Atom  55C    basis set group =>   1
Atom  56S    basis set group =>   5
Atom  57C    basis set group =>   1
Atom  58C    basis set group =>   1
Atom  59C    basis set group =>   1
Atom  60C    basis set group =>   1
Atom  61C    basis set group =>   1
Atom  62N    basis set group =>   4
Atom  63C    basis set group =>   1
Atom  64N    basis set group =>   4
Atom  65C    basis set group =>   1
Atom  66C    basis set group =>   1
Atom  67C    basis set group =>   1
Atom  68F    basis set group =>   3
Atom  69C    basis set group =>   1
Atom  70F    basis set group =>   3
Atom  71C    basis set group =>   1
Atom  72C    basis set group =>   1
Atom  73C    basis set group =>   1
Atom  74O    basis set group =>   2
Atom  75H    basis set group =>   6
Atom  76H    basis set group =>   6
Atom  77H    basis set group =>   6
Atom  78H    basis set group =>   6
Atom  79H    basis set group =>   6
Atom  80H    basis set group =>   6
Atom  81H    basis set group =>   6
Atom  82H    basis set group =>   6
Atom  83H    basis set group =>   6
Atom  84H    basis set group =>   6
Atom  85H    basis set group =>   6
Atom  86H    basis set group =>   6
Atom  87H    basis set group =>   6
Atom  88H    basis set group =>   6
Atom  89H    basis set group =>   6
Atom  90H    basis set group =>   6
Atom  91H    basis set group =>   6
Atom  92H    basis set group =>   6
Atom  93H    basis set group =>   6
Atom  94H    basis set group =>   6
Atom  95H    basis set group =>   6
Atom  96H    basis set group =>   6
Atom  97H    basis set group =>   6
Atom  98H    basis set group =>   6
Atom  99H    basis set group =>   6
Atom 100H    basis set group =>   6
Atom 101H    basis set group =>   6
Atom 102H    basis set group =>   6
Atom 103H    basis set group =>   6
Atom 104H    basis set group =>   6
Atom 105H    basis set group =>   6
Atom 106H    basis set group =>   6
Atom 107H    basis set group =>   6
Atom 108H    basis set group =>   6
Atom 109H    basis set group =>   6
Atom 110H    basis set group =>   6
Atom 111H    basis set group =>   6
Atom 112H    basis set group =>   6
Atom 113H    basis set group =>   6
Atom 114H    basis set group =>   6
Atom 115H    basis set group =>   6
Atom 116H    basis set group =>   6
---------------------------------
AUXILIARY/J BASIS SET INFORMATION
---------------------------------
There are 6 groups of distinct atoms

 Group   1 Type C   : 12s5p4d2f1g contracted to 6s4p3d1f1g pattern {711111/2111/211/2/1}
 Group   2 Type O   : 12s5p4d2f1g contracted to 6s4p3d1f1g pattern {711111/2111/211/2/1}
 Group   3 Type F   : 12s5p4d2f1g contracted to 6s4p3d1f1g pattern {711111/2111/211/2/1}
 Group   4 Type N   : 12s5p4d2f1g contracted to 6s4p3d1f1g pattern {711111/2111/211/2/1}
 Group   5 Type S   : 14s5p5d2f1g contracted to 8s4p3d1f1g pattern {71111111/2111/311/2/1}
 Group   6 Type H   : 5s2p1d contracted to 3s1p1d pattern {311/2/1}

Atom   0C    basis set group =>   1
Atom   1O    basis set group =>   2
Atom   2C    basis set group =>   1
Atom   3C    basis set group =>   1
Atom   4C    basis set group =>   1
Atom   5F    basis set group =>   3
Atom   6C    basis set group =>   1
Atom   7F    basis set group =>   3
Atom   8C    basis set group =>   1
Atom   9C    basis set group =>   1
Atom  10C    basis set group =>   1
Atom  11C    basis set group =>   1
Atom  12C    basis set group =>   1
Atom  13N    basis set group =>   4
Atom  14C    basis set group =>   1
Atom  15N    basis set group =>   4
Atom  16C    basis set group =>   1
Atom  17C    basis set group =>   1
Atom  18C    basis set group =>   1
Atom  19C    basis set group =>   1
Atom  20C    basis set group =>   1
Atom  21C    basis set group =>   1
Atom  22S    basis set group =>   5
Atom  23C    basis set group =>   1
Atom  24C    basis set group =>   1
Atom  25O    basis set group =>   2
Atom  26C    basis set group =>   1
Atom  27C    basis set group =>   1
Atom  28C    basis set group =>   1
Atom  29C    basis set group =>   1
Atom  30C    basis set group =>   1
Atom  31C    basis set group =>   1
Atom  32C    basis set group =>   1
Atom  33C    basis set group =>   1
Atom  34C    basis set group =>   1
Atom  35C    basis set group =>   1
Atom  36C    basis set group =>   1
Atom  37C    basis set group =>   1
Atom  38C    basis set group =>   1
Atom  39C    basis set group =>   1
Atom  40C    basis set group =>   1
Atom  41C    basis set group =>   1
Atom  42C    basis set group =>   1
Atom  43C    basis set group =>   1
Atom  44C    basis set group =>   1
Atom  45C    basis set group =>   1
Atom  46C    basis set group =>   1
Atom  47C    basis set group =>   1
Atom  48C    basis set group =>   1
Atom  49C    basis set group =>   1
Atom  50C    basis set group =>   1
Atom  51C    basis set group =>   1
Atom  52C    basis set group =>   1
Atom  53O    basis set group =>   2
Atom  54C    basis set group =>   1
Atom  55C    basis set group =>   1
Atom  56S    basis set group =>   5
Atom  57C    basis set group =>   1
Atom  58C    basis set group =>   1
Atom  59C    basis set group =>   1
Atom  60C    basis set group =>   1
Atom  61C    basis set group =>   1
Atom  62N    basis set group =>   4
Atom  63C    basis set group =>   1
Atom  64N    basis set group =>   4
Atom  65C    basis set group =>   1
Atom  66C    basis set group =>   1
Atom  67C    basis set group =>   1
Atom  68F    basis set group =>   3
Atom  69C    basis set group =>   1
Atom  70F    basis set group =>   3
Atom  71C    basis set group =>   1
Atom  72C    basis set group =>   1
Atom  73C    basis set group =>   1
Atom  74O    basis set group =>   2
Atom  75H    basis set group =>   6
Atom  76H    basis set group =>   6
Atom  77H    basis set group =>   6
Atom  78H    basis set group =>   6
Atom  79H    basis set group =>   6
Atom  80H    basis set group =>   6
Atom  81H    basis set group =>   6
Atom  82H    basis set group =>   6
Atom  83H    basis set group =>   6
Atom  84H    basis set group =>   6
Atom  85H    basis set group =>   6
Atom  86H    basis set group =>   6
Atom  87H    basis set group =>   6
Atom  88H    basis set group =>   6
Atom  89H    basis set group =>   6
Atom  90H    basis set group =>   6
Atom  91H    basis set group =>   6
Atom  92H    basis set group =>   6
Atom  93H    basis set group =>   6
Atom  94H    basis set group =>   6
Atom  95H    basis set group =>   6
Atom  96H    basis set group =>   6
Atom  97H    basis set group =>   6
Atom  98H    basis set group =>   6
Atom  99H    basis set group =>   6
Atom 100H    basis set group =>   6
Atom 101H    basis set group =>   6
Atom 102H    basis set group =>   6
Atom 103H    basis set group =>   6
Atom 104H    basis set group =>   6
Atom 105H    basis set group =>   6
Atom 106H    basis set group =>   6
Atom 107H    basis set group =>   6
Atom 108H    basis set group =>   6
Atom 109H    basis set group =>   6
Atom 110H    basis set group =>   6
Atom 111H    basis set group =>   6
Atom 112H    basis set group =>   6
Atom 113H    basis set group =>   6
Atom 114H    basis set group =>   6
Atom 115H    basis set group =>   6
Atom 116H    basis set group =>   6
------------------------------------------------------------------------------
                           ORCA GTO INTEGRAL CALCULATION
                           -- RI-GTO INTEGRALS CHOSEN --
------------------------------------------------------------------------------

                         BASIS SET STATISTICS AND STARTUP INFO

Gaussian basis set:
 # of primitive gaussian shells          ... 1122
 # of primitive gaussian functions       ... 2118
 # of contracted shells                  ...  580
 # of contracted basis functions         ... 1268
 Highest angular momentum                ...    2
 Maximum contraction depth               ...    5
Auxiliary gaussian basis set:
 # of primitive gaussian shells          ... 2142
 # of primitive gaussian functions       ... 5936
 # of contracted shells                  ... 1339
 # of contracted aux-basis functions     ... 4141
 Highest angular momentum                ...    4
 Maximum contraction depth               ...    7
Ratio of auxiliary to basis functions    ...  3.27
Integral package used                  ... LIBINT
 One Electron integrals                  ... done
 Ordering auxiliary basis shells         ... done
 Integral threshhold             Thresh  ...  2.500e-11
 Primitive cut-off               TCut    ...  2.500e-12
 Pre-screening matrix                    ... done
 Shell pair data                         ... 
 Ordering of the shell pairs             ... done (   0.012 sec) 56544 of 168490 pairs
 Determination of significant pairs      ... done (   0.000 sec)
 Creation of shell pair data             ... done (   0.008 sec)
 Storage of shell pair data              ... done (   0.014 sec)
 Shell pair data done in (   0.035 sec)
 Computing two index integrals           ... done
 Cholesky decomposition of the V-matrix  ... done


Timings:
 Total evaluation time                   ...   2.568 sec (  0.043 min)
 One electron matrix time                ...   0.738 sec (  0.012 min) = 28.7%
 Schwartz matrix evaluation time         ...   0.743 sec (  0.012 min) = 28.9%
 Two index repulsion integral time       ...   0.422 sec (  0.007 min) = 16.4%
 Cholesky decomposition of V             ...   0.613 sec (  0.010 min) = 23.9%
 Three index repulsion integral time     ...   0.000 sec (  0.000 min) =  0.0%

-------------------------------------------------------------------------------
                                 ORCA SCF
-------------------------------------------------------------------------------

------------
SCF SETTINGS
------------
Hamiltonian:
 Density Functional     Method          .... DFT(GTOs)
 Exchange Functional    Exchange        .... WB88
 Correlation Functional Correlation     .... LYP
 LDA part of GGA corr.  LDAOpt          .... VWN-5
 Gradients option       PostSCFGGA      .... off
 Hybrid DFT is turned on
   Fraction HF Exchange ScalHFX         ....  0.190000
   Scaling of DF-GGA-X  ScalDFX         ....  0.350000
   Scaling of DF-GGA-C  ScalDFC         ....  0.810000
   Scaling of DF-LDA-C  ScalLDAC        ....  1.000000
   Perturbative correction              ....  0.000000
   Density functional embedding theory  .... OFF
 Long-range corrected/Screened/Range-Separated Hybrid DFT is turned on
   Amount of maximum screened exact exchange              ....  0.460000
   Range separation parameter mu (erf(mu*r12)/r12)        ....  0.330000
 RI-approximation to the Coulomb term is turned on
   Number of auxiliary basis functions  .... 4141
   RIJ-COSX (HFX calculated with COS-X)).... on


General Settings:
 Integral files         IntName         .... FO-2F
 Hartree-Fock type      HFTyp           .... RHF
 Total Charge           Charge          ....    0
 Multiplicity           Mult            ....    1
 Number of Electrons    NEL             ....  536
 Basis Dimension        Dim             .... 1268
 Nuclear Repulsion      ENuc            ....  11087.9271855525 Eh

Convergence Acceleration:
 DIIS                   CNVDIIS         .... on
   Start iteration      DIISMaxIt       ....    12
   Startup error        DIISStart       ....  0.200000
   # of expansion vecs  DIISMaxEq       ....     5
   Bias factor          DIISBfac        ....   1.050
   Max. coefficient     DIISMaxC        ....  10.000
 Newton-Raphson         CNVNR           .... off
 SOSCF                  CNVSOSCF        .... on
   Start iteration      SOSCFMaxIt      ....   150
   Startup grad/error   SOSCFStart      ....  0.003300
 Level Shifting         CNVShift        .... on
   Level shift para.    LevelShift      ....    0.2500
   Turn off err/grad.   ShiftErr        ....    0.0010
 Zerner damping         CNVZerner       .... off
 Static damping         CNVDamp         .... on
   Fraction old density DampFac         ....    0.7000
   Max. Damping (<1)    DampMax         ....    0.9800
   Min. Damping (>=0)   DampMin         ....    0.0000
   Turn off err/grad.   DampErr         ....    0.1000
 Fernandez-Rico         CNVRico         .... off

SCF Procedure:
 Maximum # iterations   MaxIter         ....   125
 SCF integral mode      SCFMode         .... Direct
   Integral package                     .... LIBINT
 Reset frequency        DirectResetFreq ....    20
 Integral Threshold     Thresh          ....  2.500e-11 Eh
 Primitive CutOff       TCut            ....  2.500e-12 Eh

Convergence Tolerance:
 Convergence Check Mode ConvCheckMode   .... Total+1el-Energy
 Convergence forced     ConvForced      .... 1
 Energy Change          TolE            ....  1.000e-08 Eh
 1-El. energy change                    ....  1.000e-05 Eh
 Orbital Gradient       TolG            ....  1.000e-05
 Orbital Rotation angle TolX            ....  1.000e-05
 DIIS Error             TolErr          ....  5.000e-07


Diagonalization of the overlap matrix:
Smallest eigenvalue                        ... 2.029e-04
Time for diagonalization                   ...    0.388 sec
Threshold for overlap eigenvalues          ... 1.000e-08
Number of eigenvalues below threshold      ... 0
Time for construction of square roots      ...    0.175 sec
Total time needed                          ...    0.567 sec

-------------------
DFT GRID GENERATION
-------------------

General Integration Accuracy     IntAcc      ...  4.670
Radial Grid Type                 RadialGrid  ... Gauss-Chebyshev
Angular Grid (max. acc.)         AngularGrid ... Lebedev-302
Angular grid pruning method      GridPruning ... 3 (G Style)
Weight generation scheme         WeightScheme... Becke
Basis function cutoff            BFCut       ...    1.0000e-11
Integration weight cutoff        WCut        ...    1.0000e-14
Grids for H and He will be reduced by one unit

# of grid points (after initial pruning)     ... 609956 (   1.5 sec)
# of grid points (after weights+screening)   ... 514815 (  33.1 sec)
nearest neighbour list constructed           ...    0.0 sec
Grid point re-assignment to atoms done       ...    0.1 sec
Grid point division into batches done        ...    1.8 sec
Reduced shell lists constructed in    9.4 sec

Total number of grid points                  ...   514815
Total number of batches                      ...     8105
Average number of points per batch           ...       63
Average number of grid points per atom       ...     4400
Average number of shells per batch           ...   103.49 (17.84%)
Average number of basis functions per batch  ...   208.33 (16.43%)
Average number of large shells per batch     ...    61.40 (59.33%)
Average number of large basis fcns per batch ...   125.38 (60.18%)
Maximum spatial batch extension              ...  21.71, 20.66, 22.18 au
Average spatial batch extension              ...   2.03,  2.07,  2.18 au

Time for grid setup =   44.054 sec

------------------------------
INITIAL GUESS: MODEL POTENTIAL
------------------------------
Loading Hartree-Fock densities                     ... done
Calculating cut-offs                               ... done
Setting up the integral package                    ... done
Initializing the effective Hamiltonian             ... done
Starting the Coulomb interaction                   ... done (  10.9 sec)
Reading the grid                                   ... done
Mapping shells                                     ... done
Starting the XC term evaluation                    ... done (  10.0 sec)
  promolecular density results
     # of electrons  =    535.980651408
     EX              =   -472.883204052
     EC              =    -18.318419145
     EX+EC           =   -491.201623197
Transforming the Hamiltonian                       ... done (   0.2 sec)
Diagonalizing the Hamiltonian                      ... done (   0.4 sec)
Back transforming the eigenvectors                 ... done (   0.1 sec)
Now organizing SCF variables                       ... done
                      ------------------
                      INITIAL GUESS DONE (  65.8 sec)
                      ------------------
--------------------
COSX GRID GENERATION
--------------------

General Integration Accuracy     IntAcc      ...  3.340
Radial Grid Type                 RadialGrid  ... Gauss-Chebyshev
Angular Grid (max. acc.)         AngularGrid ... Lebedev-50
Angular grid pruning method      GridPruning ... 3 (G Style)
Weight generation scheme         WeightScheme... Becke
Basis function cutoff            BFCut       ...    1.0000e-11
Integration weight cutoff        WCut        ...    1.0000e-14
Grids for H and He will be reduced by one unit

# of grid points (after initial pruning)     ...  57136 (   0.1 sec)
# of grid points (after weights+screening)   ...  50582 (   3.1 sec)
nearest neighbour list constructed           ...    0.0 sec
Grid point re-assignment to atoms done       ...    0.0 sec
Grid point division into batches done        ...    0.0 sec
Reduced shell lists constructed in    1.0 sec

Total number of grid points                  ...    50582
Total number of batches                      ...      851
Average number of points per batch           ...       59
Average number of grid points per atom       ...      432
Average number of shells per batch           ...   125.94 (21.71%)
Average number of basis functions per batch  ...   255.98 (20.19%)
Average number of large shells per batch     ...    74.99 (59.55%)
Average number of large basis fcns per batch ...   155.49 (60.74%)
Maximum spatial batch extension              ...  21.11, 17.85, 26.22 au
Average spatial batch extension              ...   4.10,  4.12,  4.76 au

Overlap Fitting                  UseSFitting ... on
Constructing numerical overlap ... done (      0.7 sec)
Inverting numerical overlap    ... done (      0.0 sec)
Obtaining analytic overlap     ... done (      0.0 sec)
Final contraction and storage  ... done (      0.1 sec)


General Integration Accuracy     IntAcc      ...  3.670
Radial Grid Type                 RadialGrid  ... Gauss-Chebyshev
Angular Grid (max. acc.)         AngularGrid ... Lebedev-50
Angular grid pruning method      GridPruning ... 3 (G Style)
Weight generation scheme         WeightScheme... Becke
Basis function cutoff            BFCut       ...    1.0000e-11
Integration weight cutoff        WCut        ...    1.0000e-14
Grids for H and He will be reduced by one unit

# of grid points (after initial pruning)     ...  71686 (   0.1 sec)
# of grid points (after weights+screening)   ...  63172 (   3.9 sec)
nearest neighbour list constructed           ...    0.0 sec
Grid point re-assignment to atoms done       ...    0.0 sec
Grid point division into batches done        ...    0.0 sec
Reduced shell lists constructed in    1.2 sec

Total number of grid points                  ...    63172
Total number of batches                      ...     1046
Average number of points per batch           ...       60
Average number of grid points per atom       ...      540
Average number of shells per batch           ...   123.29 (21.26%)
Average number of basis functions per batch  ...   250.49 (19.76%)
Average number of large shells per batch     ...    73.30 (59.45%)
Average number of large basis fcns per batch ...   151.64 (60.54%)
Maximum spatial batch extension              ...  23.06, 20.56, 22.46 au
Average spatial batch extension              ...   3.79,  3.87,  4.39 au

Overlap Fitting                  UseSFitting ... on
Constructing numerical overlap ... done (      0.8 sec)
Inverting numerical overlap    ... done (      0.0 sec)
Obtaining analytic overlap     ... done (      0.0 sec)
Final contraction and storage  ... done (      0.1 sec)


General Integration Accuracy     IntAcc      ...  4.010
Radial Grid Type                 RadialGrid  ... Gauss-Chebyshev
Angular Grid (max. acc.)         AngularGrid ... Lebedev-110
Angular grid pruning method      GridPruning ... 3 (G Style)
Weight generation scheme         WeightScheme... Becke
Basis function cutoff            BFCut       ...    1.0000e-11
Integration weight cutoff        WCut        ...    1.0000e-14
Grids for H and He will be reduced by one unit

# of grid points (after initial pruning)     ... 138212 (   0.2 sec)
# of grid points (after weights+screening)   ... 120555 (   7.5 sec)
nearest neighbour list constructed           ...    0.0 sec
Grid point re-assignment to atoms done       ...    0.0 sec
Grid point division into batches done        ...    0.1 sec
Reduced shell lists constructed in    2.2 sec

Total number of grid points                  ...   120555
Total number of batches                      ...     1950
Average number of points per batch           ...       61
Average number of grid points per atom       ...     1030
Average number of shells per batch           ...   116.61 (20.10%)
Average number of basis functions per batch  ...   236.54 (18.65%)
Average number of large shells per batch     ...    69.68 (59.75%)
Average number of large basis fcns per batch ...   143.76 (60.78%)
Maximum spatial batch extension              ...  20.29, 21.13, 23.57 au
Average spatial batch extension              ...   3.21,  3.29,  3.63 au

Overlap Fitting                  UseSFitting ... on
Constructing numerical overlap ... done (      1.4 sec)
Inverting numerical overlap    ... done (      0.0 sec)
Obtaining analytic overlap     ... done (      0.0 sec)
Final contraction and storage  ... done (      0.1 sec)

Time for X-Grid setup             =   22.660 sec
--------------
SCF ITERATIONS
--------------
ITER       Energy         Delta-E        Max-DP      RMS-DP      [F,P]     Damp
               ***  Starting incremental Fock matrix formation  ***
  0  -4059.7056068067   0.000000000000 0.07954061  0.00087506  0.2379378 0.7000
  1  -4060.3257449891  -0.620138182469 0.04860245  0.00061179  0.0968905 0.7000
                               ***Turning on DIIS***
  2  -4060.5897858970  -0.264040907878 0.08404176  0.00110069  0.0406472 0.0000
  3  -4061.0267116808  -0.436925783790 0.05003418  0.00045914  0.0513297 0.0000
  4  -4061.1047183612  -0.078006680427 0.01728829  0.00013675  0.0262585 0.0000
  5  -4061.1108649012  -0.006146539972 0.00704636  0.00005231  0.0085085 0.0000
                      *** Initiating the SOSCF procedure ***
                           *** Shutting down DIIS ***
                      *** Re-Reading the Fockian *** 
                      *** Removing any level shift *** 
ITER      Energy       Delta-E        Grad      Rot      Max-DP    RMS-DP
  6  -4061.11179553  -0.0009306327  0.002312  0.002312  0.002703  0.000029
               *** Restarting incremental Fock matrix formation ***
  7  -4061.11199067  -0.0001951404  0.001662  0.010228  0.001927  0.000028
  8  -4061.11215383  -0.0001631588  0.000502  0.009519  0.002233  0.000032
  9  -4061.11216000  -0.0000061640  0.000710  0.003306  0.001349  0.000012
 10  -4061.11220106  -0.0000410607  0.000167  0.001263  0.000719  0.000007
 11  -4061.11219966   0.0000014003  0.000134  0.000898  0.000436  0.000004
 12  -4061.11220420  -0.0000045433  0.000018  0.000101  0.000110  0.000001
 13  -4061.11220418   0.0000000226  0.000023  0.000069  0.000062  0.000001
 14  -4061.11220434  -0.0000001579  0.000006  0.000035  0.000023  0.000000
 15  -4061.11220432   0.0000000178  0.000008  0.000011  0.000013  0.000000
                  ***Gradient check signals convergence***
              ***Rediagonalizing the Fockian in SOSCF/NRSCF***

               *****************************************************
               *                     SUCCESS                       *
               *           SCF CONVERGED AFTER  16 CYCLES          *
               *****************************************************

Setting up the final grid:

General Integration Accuracy     IntAcc      ...  5.010
Radial Grid Type                 RadialGrid  ... Gauss-Chebyshev
Angular Grid (max. acc.)         AngularGrid ... Lebedev-434
Angular grid pruning method      GridPruning ... 3 (G Style)
Weight generation scheme         WeightScheme... Becke
Basis function cutoff            BFCut       ...    1.0000e-11
Integration weight cutoff        WCut        ...    1.0000e-14
Grids for H and He will be reduced by one unit

# of grid points (after initial pruning)     ... 1086122 (   2.1 sec)
# of grid points (after weights+screening)   ... 913528 (  58.9 sec)
nearest neighbour list constructed           ...    0.0 sec
Grid point re-assignment to atoms done       ...    0.1 sec
Grid point division into batches done        ...    5.9 sec
Reduced shell lists constructed in   18.5 sec

Total number of grid points                  ...   913528
Total number of batches                      ...    14331
Average number of points per batch           ...       63
Average number of grid points per atom       ...     7808
Average number of shells per batch           ...    99.82 (17.21%)
Average number of basis functions per batch  ...   200.24 (15.79%)
Average number of large shells per batch     ...    59.14 (59.25%)
Average number of large basis fcns per batch ...   120.29 (60.07%)
Maximum spatial batch extension              ...  22.06, 20.85, 23.03 au
Average spatial batch extension              ...   1.66,  1.67,  1.76 au

Final grid set up in   79.6 sec
Final integration                            ... done (  24.2 sec)
Change in XC energy                          ...     0.000011963
Integrated number of electrons               ...   536.000001753
Previous integrated no of electrons          ...   536.000328262
Old exchange energy                            =   -133.250308981 Eh
New exchange energy                            =   -133.248822063 Eh
Exchange energy change after final integration =      0.001486918 Eh
Total energy after final integration           =  -4061.110705433 Eh
Final COS-X integration done in                =   469.949 sec

----------------
TOTAL SCF ENERGY
----------------

Total Energy       :        -4061.11070543 Eh         -110508.44044 eV

Components:
Nuclear Repulsion  :        11087.92718555 Eh          301717.83776 eV
Electronic Energy  :       -15149.03789099 Eh         -412226.27819 eV
One Electron Energy:       -27631.86103179 Eh         -751901.16459 eV
Two Electron Energy:        12482.82314080 Eh          339674.88640 eV

Virial components:
Potential Energy   :        -8087.74525706 Eh         -220078.73703 eV
Kinetic Energy     :         4026.63455163 Eh          109570.29660 eV
Virial Ratio       :            2.00856203


DFT components:
N(Alpha)           :      268.000000876694 electrons
N(Beta)            :      268.000000876694 electrons
N(Total)           :      536.000001753388 electrons
E(XC)              :     -366.485598538005 Eh       
DFET-embed. en.    :        0.000000000000 Eh       

---------------
SCF CONVERGENCE
---------------

  Last Energy change         ...    4.0509e-09  Tolerance :   1.0000e-08
  Last MAX-Density change    ...    1.1546e-14  Tolerance :   1.0000e-07
  Last RMS-Density change    ...    3.3212e-17  Tolerance :   5.0000e-09
  Last Orbital Gradient      ...    2.3324e-06  Tolerance :   1.0000e-05
  Last Orbital Rotation      ...    7.1597e-06  Tolerance :   1.0000e-05

             **** THE GBW FILE WAS UPDATED (FO-2F.gbw) ****
             **** DENSITY FILE WAS UPDATED (FO-2F.scfp) ****
             **** ENERGY FILE WAS UPDATED (FO-2F.en.tmp) ****
             **** THE GBW FILE WAS UPDATED (FO-2F.gbw) ****
             **** DENSITY FILE WAS UPDATED (FO-2F.scfp) ****
----------------
ORBITAL ENERGIES
----------------

  NO   OCC          E(Eh)            E(eV) 
   0   2.0000     -88.979883     -2421.2657 
   1   2.0000     -88.975394     -2421.1436 
   2   2.0000     -24.806698      -675.0246 
   3   2.0000     -24.804646      -674.9687 
   4   2.0000     -24.804460      -674.9637 
   5   2.0000     -24.803568      -674.9394 
   6   2.0000     -19.255900      -523.9797 
   7   2.0000     -19.254715      -523.9474 
   8   2.0000     -19.228092      -523.2230 
   9   2.0000     -19.221457      -523.0424 
  10   2.0000     -14.424696      -392.5159 
  11   2.0000     -14.424435      -392.5088 
  12   2.0000     -14.424312      -392.5055 
  13   2.0000     -14.421485      -392.4286 
  14   2.0000     -10.390608      -282.7428 
  15   2.0000     -10.389857      -282.7224 
  16   2.0000     -10.389133      -282.7027 
  17   2.0000     -10.388618      -282.6887 
  18   2.0000     -10.380814      -282.4763 
  19   2.0000     -10.373996      -282.2908 
  20   2.0000     -10.354859      -281.7701 
  21   2.0000     -10.353990      -281.7464 
  22   2.0000     -10.353922      -281.7445 
  23   2.0000     -10.352524      -281.7065 
  24   2.0000     -10.352488      -281.7055 
  25   2.0000     -10.350753      -281.6583 
  26   2.0000     -10.350464      -281.6504 
  27   2.0000     -10.348527      -281.5977 
  28   2.0000     -10.333558      -281.1904 
  29   2.0000     -10.330724      -281.1133 
  30   2.0000     -10.330109      -281.0965 
  31   2.0000     -10.328554      -281.0542 
  32   2.0000     -10.328060      -281.0408 
  33   2.0000     -10.327997      -281.0391 
  34   2.0000     -10.327668      -281.0301 
  35   2.0000     -10.326593      -281.0009 
  36   2.0000     -10.323977      -280.9297 
  37   2.0000     -10.323765      -280.9239 
  38   2.0000     -10.323027      -280.9038 
  39   2.0000     -10.321897      -280.8731 
  40   2.0000     -10.313866      -280.6546 
  41   2.0000     -10.313645      -280.6485 
  42   2.0000     -10.312595      -280.6200 
  43   2.0000     -10.312379      -280.6141 
  44   2.0000     -10.309280      -280.5298 
  45   2.0000     -10.308922      -280.5200 
  46   2.0000     -10.307574      -280.4834 
  47   2.0000     -10.306494      -280.4539 
  48   2.0000     -10.302954      -280.3576 
  49   2.0000     -10.301720      -280.3241 
  50   2.0000     -10.300342      -280.2866 
  51   2.0000     -10.298554      -280.2379 
  52   2.0000     -10.296996      -280.1955 
  53   2.0000     -10.294194      -280.1193 
  54   2.0000     -10.293943      -280.1124 
  55   2.0000     -10.293276      -280.0943 
  56   2.0000     -10.293155      -280.0910 
  57   2.0000     -10.292272      -280.0670 
  58   2.0000     -10.292015      -280.0600 
  59   2.0000     -10.284157      -279.8461 
  60   2.0000     -10.282879      -279.8114 
  61   2.0000     -10.282360      -279.7972 
  62   2.0000     -10.282108      -279.7904 
  63   2.0000     -10.279471      -279.7186 
  64   2.0000     -10.277737      -279.6715 
  65   2.0000     -10.275657      -279.6148 
  66   2.0000     -10.273479      -279.5556 
  67   2.0000     -10.272578      -279.5311 
  68   2.0000     -10.272360      -279.5251 
  69   2.0000     -10.265886      -279.3490 
  70   2.0000     -10.264027      -279.2984 
  71   2.0000     -10.263963      -279.2966 
  72   2.0000     -10.262683      -279.2618 
  73   2.0000     -10.257842      -279.1301 
  74   2.0000     -10.254221      -279.0315 
  75   2.0000      -8.074217      -219.7106 
  76   2.0000      -8.070477      -219.6088 
  77   2.0000      -6.043471      -164.4512 
  78   2.0000      -6.039730      -164.3494 
  79   2.0000      -6.039358      -164.3393 
  80   2.0000      -6.036481      -164.2610 
  81   2.0000      -6.035765      -164.2415 
  82   2.0000      -6.032561      -164.1543 
  83   2.0000      -1.332593       -36.2617 
  84   2.0000      -1.330524       -36.2054 
  85   2.0000      -1.316436       -35.8220 
  86   2.0000      -1.314888       -35.7799 
  87   2.0000      -1.163492       -31.6602 
  88   2.0000      -1.161111       -31.5954 
  89   2.0000      -1.139355       -31.0034 
  90   2.0000      -1.134090       -30.8602 
  91   2.0000      -1.019219       -27.7344 
  92   2.0000      -1.017688       -27.6927 
  93   2.0000      -1.004011       -27.3205 
  94   2.0000      -1.001579       -27.2544 
  95   2.0000      -1.000179       -27.2163 
  96   2.0000      -0.998553       -27.1720 
  97   2.0000      -0.994409       -27.0592 
  98   2.0000      -0.992207       -26.9993 
  99   2.0000      -0.991233       -26.9728 
 100   2.0000      -0.957000       -26.0413 
 101   2.0000      -0.954943       -25.9853 
 102   2.0000      -0.952962       -25.9314 
 103   2.0000      -0.930492       -25.3200 
 104   2.0000      -0.918841       -25.0029 
 105   2.0000      -0.916501       -24.9393 
 106   2.0000      -0.902576       -24.5603 
 107   2.0000      -0.900950       -24.5161 
 108   2.0000      -0.896454       -24.3938 
 109   2.0000      -0.890141       -24.2220 
 110   2.0000      -0.876301       -23.8454 
 111   2.0000      -0.873960       -23.7817 
 112   2.0000      -0.872530       -23.7427 
 113   2.0000      -0.858568       -23.3628 
 114   2.0000      -0.849564       -23.1178 
 115   2.0000      -0.847514       -23.0620 
 116   2.0000      -0.847179       -23.0529 
 117   2.0000      -0.842424       -22.9235 
 118   2.0000      -0.839093       -22.8329 
 119   2.0000      -0.835637       -22.7388 
 120   2.0000      -0.832899       -22.6643 
 121   2.0000      -0.828777       -22.5522 
 122   2.0000      -0.810343       -22.0505 
 123   2.0000      -0.794568       -21.6213 
 124   2.0000      -0.785904       -21.3855 
 125   2.0000      -0.778695       -21.1894 
 126   2.0000      -0.772343       -21.0165 
 127   2.0000      -0.769173       -20.9303 
 128   2.0000      -0.757435       -20.6109 
 129   2.0000      -0.755153       -20.5487 
 130   2.0000      -0.747179       -20.3318 
 131   2.0000      -0.729683       -19.8557 
 132   2.0000      -0.719440       -19.5770 
 133   2.0000      -0.716467       -19.4961 
 134   2.0000      -0.712215       -19.3804 
 135   2.0000      -0.709147       -19.2969 
 136   2.0000      -0.708037       -19.2667 
 137   2.0000      -0.701321       -19.0839 
 138   2.0000      -0.696920       -18.9642 
 139   2.0000      -0.694109       -18.8877 
 140   2.0000      -0.690731       -18.7958 
 141   2.0000      -0.685912       -18.6646 
 142   2.0000      -0.685596       -18.6560 
 143   2.0000      -0.681183       -18.5359 
 144   2.0000      -0.672232       -18.2924 
[...]
Calculating the dipole velocity integrals ... 
Transforming integrals ... 
Calculating magnetic dipole integrals ... 
Transforming integrals ... 

SCF atom population (using active MOs):

   1.782   4.237   1.943   2.062   1.195   2.862   1.214   2.955   2.110   1.948
   1.728   1.421   2.137   3.869   2.134   3.872   2.045   1.931   2.160   2.104
   2.031   2.098   3.684   2.032   1.724   3.572   1.771   2.635   3.011   2.767
   2.990   2.336   2.080   2.144   2.278   2.155   2.638   2.989   2.685   2.963
   2.143   2.096   2.310   1.745   2.001   2.268   2.072   2.070   1.776   2.632
   3.000   2.760   2.991   3.575   2.148   2.136   3.599   2.013   2.035   1.683
   1.410   2.126   3.871   2.152   3.869   1.945   2.134   1.221   2.962   1.234
   2.969   2.117   1.984   1.857   4.416   0.536   0.568   0.449   0.459   0.634
   0.640   0.669   0.680   0.674   0.675   0.670   0.667   0.663   0.674   0.627
   0.592   0.634   0.641   0.668   0.678   0.664   0.645   0.658   0.662   0.665
   0.660   0.598   0.609   0.627   0.644   0.670   0.677   0.668   0.668   0.674
   0.671   0.663   0.672   0.451   0.520   0.575   0.546

Number of electrons in sTDA:  206.000

ax(DF)   :  0.3800
s^k      :  2.0000
beta  (J):  1.8600
alpha (K):  0.9000

hardness table read
setting up gammas ...
computing q(ij,n)
memory needed for q data:            11.3 MB 
memory available for q data:       2478.3 MB 

CSF included by energy:           23 
CSF considered in PT2:          8320 

ordered frontier orbitals
           eV         # centers 
  92      -9.477      13.0
  93      -9.345       6.8
  94      -9.155       4.9
  95      -9.049       4.1
  96      -8.834      26.3
  97      -8.636      21.9
  98      -8.560      21.2
  99      -8.340      23.6
 100      -8.259      20.6
 101      -7.518      27.1
 102      -6.913      23.2

 103      -2.686      27.6
 104      -2.481      22.9
 105      -1.906      19.8
 106      -1.774      19.6
 107      -0.987      32.9
 108      -0.413      25.4
 109       0.025      23.0
 110       0.392      12.1
 111       0.482      32.9
 112       0.873      15.2
 113       0.907       6.4

           eV        nm       excitation i->a                     eV 
   0      2.63     472.1   102 -> 103      gap,J,K:    4.227     1.851     0.125
   1      2.98     415.8   102 -> 104      gap,J,K:    4.431     1.730     0.140
   2      3.35     369.8   101 -> 103      gap,J,K:    4.832     1.848     0.185
   3      3.52     352.2   102 -> 105      gap,J,K:    5.007     1.647     0.080
   4      3.57     347.0   101 -> 104      gap,J,K:    5.036     1.762     0.149
   5      3.71     334.0   102 -> 106      gap,J,K:    5.139     1.600     0.087
   6      4.01     309.4   100 -> 103      gap,J,K:    5.573     1.803     0.119
   7      4.12     301.3    99 -> 103      gap,J,K:    5.654     1.807     0.134
   8      4.15     298.5   101 -> 105      gap,J,K:    5.612     1.646     0.094
   9      4.28     289.7   101 -> 106      gap,J,K:    5.744     1.685     0.110
  10      4.28     289.6   100 -> 104      gap,J,K:    5.777     1.662     0.083
  11      4.36     284.6   102 -> 107      gap,J,K:    5.926     1.991     0.210
  12      4.39     282.7    99 -> 104      gap,J,K:    5.859     1.707     0.117
  13      4.45     278.5    98 -> 103      gap,J,K:    5.874     1.708     0.143
  14      4.56     271.7    97 -> 103      gap,J,K:    5.950     1.709     0.161
  15      4.68     264.7    98 -> 104      gap,J,K:    6.079     1.726     0.165
  16      4.69     264.3    96 -> 103      gap,J,K:    6.148     1.739     0.141
  17      4.77     259.8    95 -> 103      gap,J,K:    6.363     1.886     0.148
  18      4.80     258.2    97 -> 104      gap,J,K:    6.155     1.720     0.184
  19      4.88     254.3   100 -> 105      gap,J,K:    6.353     1.632     0.078
  20      4.89     253.6    96 -> 104      gap,J,K:    6.352     1.691     0.114
  21      4.93     251.4   101 -> 107      gap,J,K:    6.531     1.916     0.158
  22      4.96     250.0    94 -> 103      gap,J,K:    6.469     1.816     0.154

average / max PT2 energy lowering (eV):       0.046       0.090

CSF included by PT:                   148 
total number of CSF included:         171 
 
sTD-DFT procedure...
setting up A+B and A-B matrices...  done
estimated time (min):    0.000
calculating (A-B)^0.5 ... done
calculating (A+B)*(A-B)^0.5 ... done
calculating (A-B)^0.5 *(A+B)*(A-B)^0.5 ... done
diagonalizing ...using LAPACKE_ssyevr ...done

   32 roots found, lowest/highest eigenvalue :     2.309     4.992

excitation energies, transition moments and amplitudes

molecular weight: 1035.143
state   eV        nm        fL         fV        Rl        RV
   0   2.309     536.9   1.943187   2.153970  879.793433  978.034007     0.82 ( 102-> 103)    0.15 ( 101-> 104)    0.01 ( 102-> 105)
   1   2.597     477.4   0.360791   0.406333  -1200.286976  -1259.074251     0.67 ( 102-> 104)    0.28 ( 101-> 103)    0.01 (  96-> 104)
   2   3.094     400.7   0.125182   0.121121  -9.595084  -10.882573     0.61 ( 102-> 105)    0.13 ( 101-> 105)    0.08 ( 101-> 106)
   3   3.248     381.7   0.126276   0.119068  -58.060213  -59.378430     0.47 ( 102-> 106)    0.14 ( 101-> 105)    0.11 ( 101-> 106)
   4   3.349     370.2   0.044151   0.042009  21.254958  21.660865     0.51 ( 101-> 103)    0.23 ( 102-> 104)    0.10 ( 102-> 106)
   5   3.579     346.4   0.055837   0.058282  229.196375  231.639322     0.34 ( 101-> 104)    0.16 ( 100-> 103)    0.07 (  99-> 103)
   6   3.613     343.2   0.042628   0.046576  -32.730712  -34.000873     0.41 ( 100-> 103)    0.20 ( 101-> 104)    0.14 (  99-> 104)
   7   3.644     340.3   0.028305   0.023993  -5.515644  -3.997950     0.46 (  99-> 103)    0.22 ( 100-> 104)    0.09 ( 101-> 104)
   8   3.804     326.0   0.328713   0.306642  171.128689  159.546247     0.36 (  98-> 103)    0.20 (  98-> 104)    0.06 ( 102-> 106)
   9   3.891     318.7   0.159177   0.134662  77.943691  83.031977     0.12 (  97-> 103)    0.10 (  90-> 105)    0.09 (  95-> 103)
  10   3.926     315.8   0.127970   0.118691  -42.936174  -42.027186     0.24 (  97-> 103)    0.15 (  97-> 104)    0.10 (  96-> 103)
  11   4.005     309.6   0.070295   0.065998  -23.004784  -19.971917     0.37 ( 102-> 107)    0.07 ( 101-> 106)    0.05 ( 100-> 104)
  12   4.066     304.9   0.056046   0.046377  -121.183616  -117.979890     0.24 (  93-> 103)    0.17 (  93-> 104)    0.07 (  90-> 105)
  13   4.079     303.9   0.051060   0.048033  112.072936  103.076809     0.15 ( 102-> 107)    0.15 (  90-> 105)    0.05 (  93-> 106)
  14   4.090     303.2   0.096327   0.085919  82.744122  82.845468     0.30 (  93-> 106)    0.13 (  92-> 106)    0.09 (  93-> 104)
  15   4.240     292.4   0.027904   0.025070  -11.965827  -17.973151     0.41 (  94-> 103)    0.30 (  94-> 104)    0.05 ( 100-> 104)
  16   4.264     290.7   0.005623   0.006083  59.796854  68.608416     0.37 ( 101-> 105)    0.14 ( 102-> 106)    0.05 ( 100-> 104)
  17   4.309     287.8   0.110518   0.096816  113.920440  117.323488     0.22 ( 100-> 104)    0.10 ( 101-> 105)    0.10 (  94-> 103)
  18   4.371     283.7   0.057061   0.044832  54.236009  51.968418     0.44 (  99-> 104)    0.07 (  98-> 104)    0.07 ( 100-> 103)
  19   4.397     282.0   0.092403   0.072430  -17.409821  -9.571966     0.14 (  95-> 103)    0.09 (  90-> 103)    0.08 ( 100-> 104)
  20   4.442     279.1   0.091704   0.085167  81.266790  61.656362     0.34 ( 101-> 106)    0.10 ( 102-> 105)    0.08 ( 102-> 107)
  21   4.483     276.6   0.199158   0.167761  44.339325  41.856564     0.08 ( 100-> 105)    0.07 (  90-> 104)    0.06 (  97-> 104)
  22   4.490     276.1   0.010831   0.010951  34.027570  40.603370     0.17 ( 101-> 107)    0.11 ( 102-> 108)    0.06 (  98-> 106)
  23   4.511     274.8   0.337860   0.297280  681.753323  634.422435     0.10 (  91-> 104)    0.10 (  92-> 103)    0.09 (  98-> 104)
  24   4.575     271.0   0.439940   0.380563  -1545.087714  -1436.225683     0.10 (  96-> 103)    0.09 (  97-> 106)    0.08 (  98-> 105)
  25   4.668     265.6   0.146599   0.118922  -137.103849  -120.356558     0.21 ( 100-> 105)    0.12 (  91-> 104)    0.08 (  92-> 103)
  26   4.683     264.7   0.246623   0.187375  245.476099  201.935643     0.15 ( 100-> 106)    0.10 (  99-> 106)    0.09 (  99-> 105)
  27   4.702     263.7   0.068718   0.047645  555.302210  463.909367     0.18 (  96-> 104)    0.12 (  91-> 103)    0.10 (  97-> 105)
  28   4.784     259.2   0.082664   0.070554  367.274564  317.124067     0.12 (  91-> 103)    0.07 (  92-> 104)    0.07 ( 100-> 106)
  29   4.863     255.0   0.093808   0.071161  -332.385813  -292.183127     0.12 ( 100-> 105)    0.09 (  99-> 106)    0.08 (  89-> 103)
  30   4.964     249.8   0.025726   0.019906  -79.816206  -73.470723     0.34 ( 102-> 110)    0.11 (  99-> 107)    0.07 ( 102-> 109)
  31   4.992     248.4   0.003416   0.003589   4.574769   6.497936     0.36 ( 102-> 108)    0.12 ( 101-> 107)    0.09 ( 101-> 109)

-----------------------------------------------------------------------------
         ABSORPTION SPECTRUM VIA TRANSITION ELECTRIC DIPOLE MOMENTS
-----------------------------------------------------------------------------
State   Energy  Wavelength   fosc         T2         TX        TY        TZ  
        (cm-1)    (nm)                  (au**2)     (au)      (au)      (au) 
-----------------------------------------------------------------------------
   0   18624.2    536.9   1.943186638  34.34881  -3.12153  -3.75448   3.24172
   1   20944.7    477.4   0.360791034   5.67097  -2.29472   0.23918  -0.58993
   2   24956.7    400.7   0.125182011   1.65132   0.72387   0.68054  -0.81498
   3   26197.2    381.7   0.126276123   1.58687  -0.53853  -0.49144   1.02730
   4   27009.2    370.2   0.044151003   0.53815   0.63933  -0.34310   0.10811
   5   28864.8    346.4   0.055837467   0.63684  -0.18985  -0.77289  -0.05862
   6   29137.8    343.2   0.042627774   0.48163   0.60526  -0.33511   0.05469
   7   29390.0    340.3   0.028305238   0.31706   0.00558  -0.34971   0.44129
   8   30678.6    326.0   0.328713027   3.52742  -1.13014  -1.42720   0.46186
   9   31382.3    318.7   0.159177470   1.66983  -0.42684  -1.06140   0.60088
  10   31669.2    315.8   0.127969519   1.33028   0.73206  -0.88822   0.07375
  11   32298.9    309.6   0.070294948   0.71649  -0.63668   0.31785   0.45837
  12   32797.9    304.9   0.056046429   0.56257   0.28724   0.68477  -0.10562
  13   32902.9    303.9   0.051059871   0.51088   0.11031   0.02802   0.70564
  14   32986.5    303.2   0.096327062   0.96136  -0.79317  -0.47455   0.32718
  15   34200.6    292.4   0.027903767   0.26860   0.17136   0.35994  -0.33118
  16   34394.8    290.7   0.005623431   0.05382   0.00092   0.00121   0.23200
  17   34751.9    287.8   0.110518179   1.04696  -0.86227   0.30879   0.45618
  18   35252.1    283.7   0.057060727   0.53288  -0.67641   0.22324  -0.15972
  19   35460.9    282.0   0.092402729   0.85785   0.33093   0.60403  -0.61926
  20   35823.3    279.1   0.091704374   0.84275   0.18453   0.86236  -0.25500
  21   36154.3    276.6   0.199157913   1.81348  -0.39375   1.08240  -0.69774
  22   36212.6    276.1   0.010830776   0.09846  -0.28713  -0.04258  -0.11918
  23   36386.6    274.8   0.337859822   3.05683  -1.73976  -0.17316  -0.00787
  24   36896.2    271.0   0.439939589   3.92543  -0.26877   1.96275   0.02850
  25   37653.2    265.6   0.146598944   1.28175  -0.94706   0.61428  -0.08654
  26   37773.6    264.7   0.246622572   2.14942  -1.29008  -0.68743   0.11198
  27   37921.1    263.7   0.068718173   0.59658  -0.61007   0.21406  -0.42258
  28   38587.0    259.2   0.082664450   0.70527   0.50447   0.63042   0.23097
  29   39219.2    255.0   0.093807619   0.78744  -0.85462  -0.03163  -0.23677
  30   40034.2    249.8   0.025725579   0.21155   0.44089  -0.12384  -0.04278
  31   40262.9    248.4   0.003416415   0.02793  -0.15650  -0.00462  -0.05849

-----------------------------------------------------------------------------
         ABSORPTION SPECTRUM VIA TRANSITION VELOCITY DIPOLE MOMENTS
-----------------------------------------------------------------------------
State   Energy  Wavelength   fosc         P2         PX        PY        PZ  
        (cm-1)    (nm)                  (au**2)     (au)      (au)      (au) 
-----------------------------------------------------------------------------
   0   18624.2    536.9   2.153970319   0.27417  -0.27843  -0.33699   0.28825
   1   20944.7    477.4   0.406333154   0.05817  -0.23238   0.02562  -0.05922
   2   24956.7    400.7   0.121120621   0.02066   0.08096   0.07450  -0.09249
   3   26197.2    381.7   0.119068178   0.02132  -0.06453  -0.05494   0.11889
   4   27009.2    370.2   0.042009419   0.00775   0.07647  -0.04166   0.01307
   5   28864.8    346.4   0.058282019   0.01150  -0.03302  -0.10181  -0.00639
   6   29137.8    343.2   0.046575655   0.00928   0.08170  -0.04991   0.01043
   7   29390.0    340.3   0.023992809   0.00482   0.00591  -0.04323   0.05399
   8   30678.6    326.0   0.306642045   0.06429  -0.15246  -0.19250   0.06319
   9   31382.3    318.7   0.134662219   0.02888  -0.05934  -0.14074   0.07453
  10   31669.2    315.8   0.118691227   0.02569   0.09966  -0.12461   0.01518
  11   32298.9    309.6   0.065997674   0.01457  -0.09149   0.04379   0.06543
  12   32797.9    304.9   0.046377489   0.01040   0.03485   0.09506  -0.01203
  13   32902.9    303.9   0.048032639   0.01080   0.01520   0.00476   0.10270
  14   32986.5    303.2   0.085919434   0.01937  -0.11361  -0.06530   0.04689
  15   34200.6    292.4   0.025070090   0.00586   0.02822   0.04876  -0.05183
  16   34394.8    290.7   0.006083007   0.00143   0.00433  -0.00080   0.03756
  17   34751.9    287.8   0.096816392   0.02300  -0.12660   0.04389   0.07100
  18   35252.1    283.7   0.044831650   0.01080  -0.09766   0.03090  -0.01757
  19   35460.9    282.0   0.072429818   0.01755   0.05167   0.08746  -0.08506
  20   35823.3    279.1   0.085166987   0.02085   0.03178   0.13360  -0.04463
  21   36154.3    276.6   0.167761130   0.04145  -0.05673   0.16501  -0.10492
  22   36212.6    276.1   0.010951012   0.00271  -0.04623  -0.00053  -0.02394
  23   36386.6    274.8   0.297279688   0.07393  -0.27051  -0.02737   0.00219
  24   36896.2    271.0   0.380563068   0.09597  -0.04153   0.30696   0.00410
  25   37653.2    265.6   0.118921931   0.03060  -0.14461   0.09746  -0.01391
  26   37773.6    264.7   0.187374688   0.04837  -0.19178  -0.10640   0.01649
  27   37921.1    263.7   0.047644982   0.01235  -0.08694   0.03162  -0.06156
  28   38587.0    259.2   0.070553788   0.01861   0.08239   0.10365   0.03281
  29   39219.2    255.0   0.071161090   0.01907  -0.13271  -0.00573  -0.03780
  30   40034.2    249.8   0.019906380   0.00545   0.06947  -0.02488  -0.00143
  31   40262.9    248.4   0.003589206   0.00099  -0.02909   0.00241  -0.01166

-------------------------------------------------------------------
                             CD SPECTRUM
-------------------------------------------------------------------
State   Energy Wavelength       R         MX        MY        MZ   
        (cm-1)   (nm)       (1e40*cgs)   (au)      (au)      (au)  
-------------------------------------------------------------------
   0   18624.2    536.9    879.79343   1.20039   6.08700   7.05436
   1   20944.7    477.4    -1200.28698  -1.62647  -2.93325  -3.49403
   2   24956.7    400.7     -9.59508   0.41394  -0.41191  -0.02624
   3   26197.2    381.7    -58.06021   0.59648   1.48468   1.26269
   4   27009.2    370.2     21.25496   0.23720   1.16721   1.46757
   5   28864.8    346.4    229.19637   0.58253   0.91555   2.62878
   6   29137.8    343.2    -32.73071   0.95827   1.78406   2.86556
   7   29390.0    340.3     -5.51564   0.09835   2.46969   2.00893
   8   30678.6    326.0    171.12869   2.82146  -0.50187   3.78120
   9   31382.3    318.7     77.94369  -0.40962   1.31746   1.48591
  10   31669.2    315.8    -42.93617  -0.24914  -0.42041  -0.12050
  11   32298.9    309.6    -23.00478  -0.33125   1.05273  -0.97719
  12   32797.9    304.9    -121.18362  -1.01660   1.07844  -0.64028
  13   32902.9    303.9    112.07294  -2.08537   2.72379  -0.45596
  14   32986.5    303.2     82.74412   1.04950  -0.95390   0.08784
  15   34200.6    292.4    -11.96583  -0.64251  -0.63909  -1.18033
  16   34394.8    290.7     59.79685  -0.96416   0.51724  -1.09232
  17   34751.9    287.8    113.92044  -0.56126  -0.16121  -2.01118
  18   35252.1    283.7     54.23601   0.18863  -0.89991  -0.61610
  19   35460.9    282.0    -17.40982  -0.43071  -0.20272  -0.54717
  20   35823.3    279.1     81.26679  -0.62347  -0.99958  -2.47957
  21   36154.3    276.6     44.33932  -0.16517  -0.24781  -0.02163
  22   36212.6    276.1     34.02757   0.46262  -0.58810   0.30679
  23   36386.6    274.8    681.75332   1.86799  -2.09962   0.74956
  24   36896.2    271.0    -1545.08771  -3.36290   2.91405  -2.41044
  25   37653.2    265.6    -137.10385  -0.89200  -0.71048  -2.00236
  26   37773.6    264.7    245.47610   1.85931  -1.79062   1.12837
  27   37921.1    263.7    555.30221   1.46909   0.69429   3.80548
  28   38587.0    259.2    367.27456  -0.38719  -0.78496  -3.75766
  29   39219.2    255.0    -332.38581  -1.21698  -1.34314  -1.38335
  30   40034.2    249.8    -79.81621   0.49551  -0.88796  -0.23780
  31   40262.9    248.4      4.57477   0.11313  -0.42844   0.06294

sTD-DFT done

Total run time:        4.942 sec

           *** ORCA-CIS/TD-DFT FINISHED WITHOUT ERROR ***

-------------------------   --------------------
FINAL SINGLE POINT ENERGY     -4061.110705432547
-------------------------   --------------------


                            ***************************************
                            *     ORCA property calculations      *
                            ***************************************

                                    ---------------------
                                    Active property flags
                                    ---------------------
   (+) Dipole Moment


------------------------------------------------------------------------------
                       ORCA ELECTRIC PROPERTIES CALCULATION
------------------------------------------------------------------------------

Dipole Moment Calculation                       ... on
Quadrupole Moment Calculation                   ... off
Polarizability Calculation                      ... off
GBWName                                         ... FO-2F.gbw
Electron density file                           ... FO-2F.scfp
The origin for moment calculation is the CENTER OF MASS  = (19.079042,  4.359103 -7.049948)

-------------
DIPOLE MOMENT
-------------
                                X             Y             Z
Electronic contribution:    -49.96700      21.18558     -22.57229
Nuclear contribution   :     53.36417     -21.99009      23.88847
                        -----------------------------------------
Total Dipole Moment    :      3.39717      -0.80451       1.31618
                        -----------------------------------------
Magnitude (a.u.)       :      3.73099
Magnitude (Debye)      :      9.48343



--------------------
Rotational spectrum 
--------------------
 
Rotational constants in cm-1:     0.001861     0.000237     0.000226 
Rotational constants in MHz :    55.780428     7.096787     6.762904 

 Dipole components along the rotational axes: 
x,y,z [a.u.] :     0.636691    -3.453179     1.261149 
x,y,z [Debye]:     1.618339    -8.777284     3.205585 

 

Timings for individual modules:

Sum of individual times         ...     4376.785 sec (=  72.946 min)
GTO integral calculation        ...        4.355 sec (=   0.073 min)   0.1 %
SCF iterations                  ...     4367.424 sec (=  72.790 min)  99.8 %
CIS module                      ...        5.006 sec (=   0.083 min)   0.1 %
                             ****ORCA TERMINATED NORMALLY****
TOTAL RUN TIME: 0 days 1 hours 12 minutes 57 seconds 352 msec
