
                                 *****************
                                 * O   R   C   A *
                                 *****************

           --- An Ab Initio, DFT and Semiempirical electronic structure package ---

                  #######################################################
                  #                        -***-                        #
                  #          Department of theory and spectroscopy      #
                  #               Directorship: Frank Neese             #
                  #        Max Planck Institute fuer Kohlenforschung    #
                  #                Kaiser Wilhelm Platz 1               #
                  #                 D-45470 Muelheim/Ruhr               #
                  #                      Germany                        #
                  #                                                     #
                  #                  All rights reserved                #
                  #                        -***-                        #
                  #######################################################


                         Program Version 4.2.0 -  RELEASE  -


 With contributions from (in alphabetic order):
   Daniel Aravena         : Magnetic Suceptibility
   Michael Atanasov       : Ab Initio Ligand Field Theory (pilot matlab implementation)
   Alexander A. Auer      : GIAO ZORA, VPT2
   Ute Becker             : Parallelization
   Giovanni Bistoni       : ED, misc. LED, open-shell LED, HFLED
   Martin Brehm           : Molecular dynamics
   Dmytro Bykov           : SCF Hessian
   Vijay G. Chilkuri      : MRCI spin determinant printing, contributions to CSF-ICE
   Dipayan Datta          : RHF DLPNO-CCSD density
   Achintya Kumar Dutta   : EOM-CC, STEOM-CC
   Dmitry Ganyushin       : Spin-Orbit,Spin-Spin,Magnetic field MRCI
   Miquel Garcia          : C-PCM Hessian, Gaussian charge scheme
   Yang Guo               : DLPNO-NEVPT2, CIM, IAO-localization
   Andreas Hansen         : Spin unrestricted coupled pair/coupled cluster methods
   Benjamin Helmich-Paris : CASSCF linear response (MC-RPA)
   Lee Huntington         : MR-EOM, pCC
   Robert Izsak           : Overlap fitted RIJCOSX, COSX-SCS-MP3, EOM
   Christian Kollmar      : KDIIS, OOCD, Brueckner-CCSD(T), CCSD density
   Simone Kossmann        : Meta GGA functionals, TD-DFT gradient, OOMP2, MP2 Hessian
   Martin Krupicka        : AUTO-CI
   Lucas Lang             : DCDCAS
   Dagmar Lenk            : GEPOL surface, SMD
   Dimitrios Liakos       : Extrapolation schemes; Compound Job, initial MDCI parallelization
   Dimitrios Manganas     : Further ROCIS development; embedding schemes
   Dimitrios Pantazis     : SARC Basis sets
   Taras Petrenko         : DFT Hessian,TD-DFT gradient, ASA, ECA, R-Raman, ABS, FL, XAS/XES, NRVS
   Peter Pinski           : DLPNO-MP2, DLPNO-MP2 Gradient
   Christoph Reimann      : Effective Core Potentials
   Marius Retegan         : Local ZFS, SOC
   Christoph Riplinger    : Optimizer, TS searches, QM/MM, DLPNO-CCSD(T), (RO)-DLPNO pert. Triples
   Tobias Risthaus        : Range-separated hybrids, TD-DFT gradient, RPA, STAB
   Michael Roemelt        : Original ROCIS implementation
   Masaaki Saitow         : Open-shell DLPNO-CCSD energy and density
   Barbara Sandhoefer     : DKH picture change effects
   Avijit Sen             : IP-ROCIS
   Kantharuban Sivalingam : CASSCF convergence, NEVPT2, FIC-MRCI
   Bernardo de Souza      : ESD, SOC TD-DFT
   Georgi Stoychev        : AutoAux, RI-MP2 NMR
   Willem Van den Heuvel  : Paramagnetic NMR
   Boris Wezisla          : Elementary symmetry handling
   Frank Wennmohs         : Technical directorship


 We gratefully acknowledge several colleagues who have allowed us to
 interface, adapt or use parts of their codes:
   Stefan Grimme, W. Hujo, H. Kruse,             : VdW corrections, initial TS optimization,
                  C. Bannwarth                     DFT functionals, gCP, sTDA/sTD-DF
   Ed Valeev, F. Pavosevic, A. Kumar             : LibInt (2-el integral package), F12 methods
   Garnet Chan, S. Sharma, J. Yang, R. Olivares  : DMRG
   Ulf Ekstrom                                   : XCFun DFT Library
   Mihaly Kallay                                 : mrcc  (arbitrary order and MRCC methods)
   Andreas Klamt, Michael Diedenhofen            : otool_cosmo (COSMO solvation model)
   Jiri Pittner, Ondrej Demel                    : Mk-CCSD
   Frank Weinhold                                : gennbo (NPA and NBO analysis)
   Christopher J. Cramer and Donald G. Truhlar   : smd solvation model
   Lars Goerigk                                  : TD-DFT with DH, B97 family of functionals
   V. Asgeirsson, H. Jonsson                     : NEB implementation
   FAccTs GmbH                                   : IRC, NEB, NEB-TS, Multilevel, MM, QM/MM, CI optimization
   S Lehtola, MJT Oliveira, MAL Marques          : LibXC Library


 Your calculation uses the libint2 library for the computation of 2-el integrals
 For citations please refer to: http://libint.valeyev.net

 Your ORCA version has been built with support for libXC version: 4.2.3
 For citations please refer to: https://tddft.org/programs/libxc/

 This ORCA versions uses:
   CBLAS   interface :  Fast vector & matrix operations
   LAPACKE interface :  Fast linear algebra routines
   SCALAPACK package :  Parallel linear algebra routines


XCFun DFT library Copyright 2009-2010 Ulf Ekstrom and contributors.
See http://admol.org/xcfun for more information. This is free soft-
ware; see the source code for copying conditions. There is ABSOLUTELY
NO WARRANTY; not even for MERCHANTABILITY or FITNESS FOR A PARTICULAR
PURPOSE. For details see the documentation. Scientific users of this 
library should cite U. Ekstrom, L. Visscher, R. Bast, A. J. Thorvald-
sen and K. Ruud; J.Chem.Theor.Comp. 2010, DOI: 10.1021/ct100117s
XCFun Version 0.99 
----- Orbital basis set information -----
Your calculation utilizes the basis: def2-SVP
   F. Weigend and R. Ahlrichs, Phys. Chem. Chem. Phys. 7, 3297 (2005).

----- AuxJ basis set information -----
Your calculation utilizes the auxiliary basis: def2/J
   F. Weigend, Phys. Chem. Chem. Phys. 8, 1057 (2006).

================================================================================
                                        WARNINGS
                       Please study these warnings very carefully!
================================================================================

INFO   : Checking CIS options ...

WARNING: CIS/ROCIS methods need fully converged wavefunctions
  ===> : Setting SCFConvForced true
         You can overwrite this default with %scf ConvForced false 


INFO   : the flag for use of LIBINT has been found!

================================================================================
                                       INPUT FILE
================================================================================
NAME = H2.inp
|  1> # ORCA input file
|  2> # H2.out: Geometry 34
|  3> ! CAM-B3LYP def2-SVP def2/J RIJCOSX Grid4 TightSCF
|  4> %maxcore 5000
|  5> %tddft
|  6>     Mode sTDDFT
|  7>     Ethresh 5.0
|  8>     maxcore 5000
|  9> end
| 10> * xyz 0 1
| 11>    C        2.16198        -2.52513        -2.22716
| 12>    O        2.60751        -2.38511        -3.34833
| 13>    C        2.92380        -2.65751        -0.95797
| 14>    C        4.30088        -2.70481        -0.77642
| 15>    C        4.80065        -2.82213         0.52226
| 16>    C        3.90838        -2.87729         1.60340
| 17>   Cl        4.54777        -3.01374         3.21603
| 18>    C        2.51803        -2.82506         1.43292
| 19>    C        2.02470        -2.72408         0.12948
| 20>    C        0.63834        -2.59306        -0.39224
| 21>    C       -0.47244        -2.23194         0.35330
| 22>    C       -1.65237        -1.71134        -0.26208
| 23>    N       -2.58651        -1.23232        -0.76064
| 24>    C       -0.47649        -2.23135         1.78097
| 25>    N       -0.49324        -2.25478         2.94312
| 26>    C        0.72019        -2.64815        -1.84108
| 27>    C       -0.20401        -2.84374        -2.83843
| 28>    C       -1.50917        -3.39285        -2.83669
| 29>    S       -2.08721        -4.52107        -1.59813
| 30>    C       -3.60737        -4.68042        -2.41508
| 31>    C       -3.64050        -3.90664        -3.59661
| 32>    C       -2.46362        -3.17843        -3.84688
| 33>    C       -2.27035        -2.19542        -4.96491
| 34>    C       -2.30659        -0.73946        -4.47264
| 35>    S       -5.13890        -4.09060        -4.51043
| 36>    C       -5.70556        -5.21456        -3.30599
| 37>    C       -4.80800        -5.40407        -2.24200
| 38>    N       -5.33619        -6.31670        -1.34684
| 39>    C       -4.50568        -6.92686        -0.31453
| 40>    C       -6.57585        -6.73381        -1.83865
| 41>    C       -6.79774        -6.07851        -3.09268
| 42>    C       -7.86832        -6.46777        -3.96004
| 43>    N       -8.11234        -6.01359        -5.18122
| 44>    S       -9.38306        -6.89490        -5.77612
| 45>    N       -9.63798        -7.88560        -4.47335
| 46>    C       -8.74452        -7.54735        -3.55322
| 47>    C       -8.59094        -8.10701        -2.24424
| 48>    C       -7.55321        -7.67418        -1.35816
| 49>    N       -7.72710        -8.32862        -0.13448
| 50>    C       -7.17982        -8.00360         1.18266
| 51>    C       -7.32709        -6.54153         1.63795
| 52>    C       -8.79417        -9.20205        -0.26883
| 53>    C       -9.34514        -9.07585        -1.55332
| 54>    S      -10.66484       -10.16819        -1.86139
| 55>    C      -10.45087       -10.85151        -0.24528
| 56>    C       -9.43442       -10.20734         0.49473
| 57>    S       -9.25583       -10.92172         2.05799
| 58>    C      -10.49687       -12.14170         1.68091
| 59>    C      -11.06741       -11.94229         0.41033
| 60>    C      -12.28024       -12.64971        -0.13486
| 61>    C      -12.08386       -13.28365        -1.51994
| 62>    C      -10.79907       -13.06761         2.72197
| 63>    C      -11.17446       -14.38905         2.60297
| 64>    C      -11.68115       -15.26657         3.65923
| 65>    C      -12.05014       -14.91300         4.94475
| 66>    C      -11.98204       -13.57592         5.44820
| 67>    N      -11.93544       -12.50513         5.89820
| 68>    C      -12.52901       -15.85794         5.90570
| 69>    N      -12.91203       -16.60641         6.70817
| 70>    C      -11.77852       -16.63733         3.09196
| 71>    C      -12.23818       -17.84151         3.63497
| 72>    C      -12.22170       -18.97876         2.81576
| 73>   Cl      -12.80966       -20.48369         3.45875
| 74>    C      -11.75391       -18.94736         1.49339
| 75>    C      -11.28740       -17.74556         0.96129
| 76>    C      -11.31485       -16.61042         1.76272
| 77>    C      -10.89794       -15.23629         1.39970
| 78>    O      -10.36145       -14.91034         0.35888
| 79>    C       -4.15110        -8.40331        -0.54490
| 80>    C       -3.30862        -8.63845        -1.81439
| 81>    C       -3.43205        -8.92951         0.71249
| 82>    C       -3.40863       -10.45111         0.82354
| 83>    C       -4.06650        -8.64909        -3.14424
| 84>    C       -8.79172        -6.08783         1.78427
| 85>    C       -9.55015        -5.80030         0.48622
| 86>    C       -6.54626        -6.37472         2.96054
| 87>    C       -6.22445        -4.92583         3.32870
| 88>    H        4.96541        -2.64572        -1.64079
| 89>    H        5.87361        -2.86761         0.71504
| 90>    H        1.87156        -2.86689         2.30669
| 91>    H        0.18655        -2.58963        -3.83275
| 92>    H       -3.04934        -2.36198        -5.72583
| 93>    H       -1.30747        -2.39298        -5.46655
| 94>    H       -3.25751        -0.51562        -3.96564
| 95>    H       -2.18075        -0.04433        -5.31630
| 96>    H       -1.50256        -0.54848        -3.74670
| 97>    H       -4.98260        -6.79155         0.66170
| 98>    H       -3.57846        -6.34028        -0.27339
| 99>    H       -6.12949        -8.31674         1.22777
|100>    H       -7.71379        -8.64074         1.90092
|101>    H       -6.84873        -5.89192         0.88402
|102>    H      -13.08618       -11.89468        -0.19015
|103>    H      -12.62295       -13.40527         0.58263
|104>    H      -11.83126       -12.53029        -2.28086
|105>    H      -13.01076       -13.78284        -1.84371
|106>    H      -11.27764       -14.02649        -1.49404
|107>    H      -10.67895       -12.66709         3.73228
|108>    H      -12.60900       -17.92759         4.65252
|109>    H      -11.76465       -19.86342         0.90133
|110>    H      -10.90952       -17.67793        -0.06037
|111>    H       -5.09572        -8.96564        -0.65194
|112>    H       -2.80447        -9.61141        -1.70422
|113>    H       -2.49768        -7.88845        -1.84709
|114>    H       -3.92058        -8.51688         1.61284
|115>    H       -2.40244        -8.52953         0.72828
|116>    H       -4.43160       -10.85979         0.86814
|117>    H       -2.87717       -10.77437         1.73133
|118>    H       -2.90271       -10.92269        -0.03231
|119>    H       -4.94290        -9.31542        -3.09788
|120>    H       -3.41478        -9.01363        -3.95297
|121>    H       -4.42522        -7.65483        -3.44157
|122>    H       -8.79373        -5.16833         2.39075
|123>    H       -9.33809        -6.83785         2.38445
|124>    H       -8.95792        -5.16139        -0.18913
|125>    H      -10.48968        -5.26997         0.70597
|126>    H       -9.81632        -6.71108        -0.06720
|127>    H       -5.59837        -6.93703         2.89375
|128>    H       -7.11700        -6.85660         3.77456
|129>    H       -5.66360        -4.42797         2.52016
|130>    H       -5.60884        -4.87594         4.23973
|131>    H       -7.13244        -4.33348         3.51639
|132> *
|133> 
|134>                          ****END OF INPUT****
================================================================================

                       ****************************
                       * Single Point Calculation *
                       ****************************

---------------------------------
CARTESIAN COORDINATES (ANGSTROEM)
---------------------------------
  C      2.161980   -2.525130   -2.227160
  O      2.607510   -2.385110   -3.348330
  C      2.923800   -2.657510   -0.957970
  C      4.300880   -2.704810   -0.776420
  C      4.800650   -2.822130    0.522260
  C      3.908380   -2.877290    1.603400
  Cl     4.547770   -3.013740    3.216030
  C      2.518030   -2.825060    1.432920
  C      2.024700   -2.724080    0.129480
  C      0.638340   -2.593060   -0.392240
  C     -0.472440   -2.231940    0.353300
  C     -1.652370   -1.711340   -0.262080
  N     -2.586510   -1.232320   -0.760640
  C     -0.476490   -2.231350    1.780970
  N     -0.493240   -2.254780    2.943120
  C      0.720190   -2.648150   -1.841080
  C     -0.204010   -2.843740   -2.838430
  C     -1.509170   -3.392850   -2.836690
  S     -2.087210   -4.521070   -1.598130
  C     -3.607370   -4.680420   -2.415080
  C     -3.640500   -3.906640   -3.596610
  C     -2.463620   -3.178430   -3.846880
  C     -2.270350   -2.195420   -4.964910
  C     -2.306590   -0.739460   -4.472640
  S     -5.138900   -4.090600   -4.510430
  C     -5.705560   -5.214560   -3.305990
  C     -4.808000   -5.404070   -2.242000
  N     -5.336190   -6.316700   -1.346840
  C     -4.505680   -6.926860   -0.314530
  C     -6.575850   -6.733810   -1.838650
  C     -6.797740   -6.078510   -3.092680
  C     -7.868320   -6.467770   -3.960040
  N     -8.112340   -6.013590   -5.181220
  S     -9.383060   -6.894900   -5.776120
  N     -9.637980   -7.885600   -4.473350
  C     -8.744520   -7.547350   -3.553220
  C     -8.590940   -8.107010   -2.244240
  C     -7.553210   -7.674180   -1.358160
  N     -7.727100   -8.328620   -0.134480
  C     -7.179820   -8.003600    1.182660
  C     -7.327090   -6.541530    1.637950
  C     -8.794170   -9.202050   -0.268830
  C     -9.345140   -9.075850   -1.553320
  S    -10.664840  -10.168190   -1.861390
  C    -10.450870  -10.851510   -0.245280
  C     -9.434420  -10.207340    0.494730
  S     -9.255830  -10.921720    2.057990
  C    -10.496870  -12.141700    1.680910
  C    -11.067410  -11.942290    0.410330
  C    -12.280240  -12.649710   -0.134860
  C    -12.083860  -13.283650   -1.519940
  C    -10.799070  -13.067610    2.721970
  C    -11.174460  -14.389050    2.602970
  C    -11.681150  -15.266570    3.659230
  C    -12.050140  -14.913000    4.944750
  C    -11.982040  -13.575920    5.448200
  N    -11.935440  -12.505130    5.898200
  C    -12.529010  -15.857940    5.905700
  N    -12.912030  -16.606410    6.708170
  C    -11.778520  -16.637330    3.091960
  C    -12.238180  -17.841510    3.634970
  C    -12.221700  -18.978760    2.815760
  Cl   -12.809660  -20.483690    3.458750
  C    -11.753910  -18.947360    1.493390
  C    -11.287400  -17.745560    0.961290
  C    -11.314850  -16.610420    1.762720
  C    -10.897940  -15.236290    1.399700
  O    -10.361450  -14.910340    0.358880
  C     -4.151100   -8.403310   -0.544900
  C     -3.308620   -8.638450   -1.814390
  C     -3.432050   -8.929510    0.712490
  C     -3.408630  -10.451110    0.823540
  C     -4.066500   -8.649090   -3.144240
  C     -8.791720   -6.087830    1.784270
  C     -9.550150   -5.800300    0.486220
  C     -6.546260   -6.374720    2.960540
  C     -6.224450   -4.925830    3.328700
  H      4.965410   -2.645720   -1.640790
  H      5.873610   -2.867610    0.715040
  H      1.871560   -2.866890    2.306690
  H      0.186550   -2.589630   -3.832750
  H     -3.049340   -2.361980   -5.725830
  H     -1.307470   -2.392980   -5.466550
  H     -3.257510   -0.515620   -3.965640
  H     -2.180750   -0.044330   -5.316300
  H     -1.502560   -0.548480   -3.746700
  H     -4.982600   -6.791550    0.661700
  H     -3.578460   -6.340280   -0.273390
  H     -6.129490   -8.316740    1.227770
  H     -7.713790   -8.640740    1.900920
  H     -6.848730   -5.891920    0.884020
  H    -13.086180  -11.894680   -0.190150
  H    -12.622950  -13.405270    0.582630
  H    -11.831260  -12.530290   -2.280860
  H    -13.010760  -13.782840   -1.843710
  H    -11.277640  -14.026490   -1.494040
  H    -10.678950  -12.667090    3.732280
  H    -12.609000  -17.927590    4.652520
  H    -11.764650  -19.863420    0.901330
  H    -10.909520  -17.677930   -0.060370
  H     -5.095720   -8.965640   -0.651940
  H     -2.804470   -9.611410   -1.704220
  H     -2.497680   -7.888450   -1.847090
  H     -3.920580   -8.516880    1.612840
  H     -2.402440   -8.529530    0.728280
  H     -4.431600  -10.859790    0.868140
  H     -2.877170  -10.774370    1.731330
  H     -2.902710  -10.922690   -0.032310
  H     -4.942900   -9.315420   -3.097880
  H     -3.414780   -9.013630   -3.952970
  H     -4.425220   -7.654830   -3.441570
  H     -8.793730   -5.168330    2.390750
  H     -9.338090   -6.837850    2.384450
  H     -8.957920   -5.161390   -0.189130
  H    -10.489680   -5.269970    0.705970
  H     -9.816320   -6.711080   -0.067200
  H     -5.598370   -6.937030    2.893750
  H     -7.117000   -6.856600    3.774560
  H     -5.663600   -4.427970    2.520160
  H     -5.608840   -4.875940    4.239730
  H     -7.132440   -4.333480    3.516390

----------------------------
CARTESIAN COORDINATES (A.U.)
----------------------------
  NO LB      ZA    FRAG     MASS         X           Y           Z
   0 C     6.0000    0    12.011    4.085550   -4.771804   -4.208722
   1 O     8.0000    0    15.999    4.927480   -4.507205   -6.327427
   2 C     6.0000    0    12.011    5.525181   -5.021966   -1.810301
   3 C     6.0000    0    12.011    8.127485   -5.111350   -1.467221
   4 C     6.0000    0    12.011    9.071914   -5.333053    0.986928
   5 C     6.0000    0    12.011    7.385768   -5.437290    3.029987
   6 Cl   17.0000    0    35.453    8.594040   -5.695143    6.077416
   7 C     6.0000    0    12.011    4.758387   -5.338590    2.707826
   8 C     6.0000    0    12.011    3.826129   -5.147765    0.244682
   9 C     6.0000    0    12.011    1.206288   -4.900173   -0.741226
  10 C     6.0000    0    12.011   -0.892782   -4.217755    0.667640
  11 C     6.0000    0    12.011   -3.122527   -3.233964   -0.495259
  12 N     7.0000    0    14.007   -4.887796   -2.328747   -1.437401
  13 C     6.0000    0    12.011   -0.900436   -4.216640    3.365546
  14 N     7.0000    0    14.007   -0.932089   -4.260917    5.561691
  15 C     6.0000    0    12.011    1.360962   -5.004278   -3.479137
  16 C     6.0000    0    12.011   -0.385523   -5.373890   -5.363855
  17 C     6.0000    0    12.011   -2.851918   -6.411557   -5.360567
  18 S    16.0000    0    32.060   -3.944255   -8.543584   -3.020028
  19 C     6.0000    0    12.011   -6.816941   -8.844712   -4.563840
  20 C     6.0000    0    12.011   -6.879548   -7.382480   -6.796608
  21 C     6.0000    0    12.011   -4.655567   -6.006362   -7.269550
  22 C     6.0000    0    12.011   -4.290340   -4.148743   -9.382320
  23 C     6.0000    0    12.011   -4.358823   -1.397377   -8.452065
  24 S    16.0000    0    32.060   -9.711114   -7.730114   -8.523477
  25 C     6.0000    0    12.011  -10.781946   -9.854090   -6.247416
  26 C     6.0000    0    12.011   -9.085803  -10.212212   -4.236766
  27 N     7.0000    0    14.007  -10.083938  -11.936833   -2.545159
  28 C     6.0000    0    12.011   -8.514501  -13.089868   -0.594376
  29 C     6.0000    0    12.011  -12.426556  -12.725057   -3.474545
  30 C     6.0000    0    12.011  -12.845867  -11.486719   -5.844318
  31 C     6.0000    0    12.011  -14.868970  -12.222314   -7.483391
  32 N     7.0000    0    14.007  -15.330101  -11.364038   -9.791087
  33 S    16.0000    0    32.060  -17.731414  -13.029473  -10.915285
  34 N     7.0000    0    14.007  -18.213143  -14.901624   -8.453406
  35 C     6.0000    0    12.011  -16.524748  -14.262425   -6.714613
  36 C     6.0000    0    12.011  -16.234524  -15.320029   -4.240999
  37 C     6.0000    0    12.011  -14.273498  -14.502099   -2.566550
  38 N     7.0000    0    14.007  -14.602103  -15.738811   -0.254130
  39 C     6.0000    0    12.011  -13.567893  -15.124612    2.234904
  40 C     6.0000    0    12.011  -13.846193  -12.361700    3.095277
  41 C     6.0000    0    12.011  -16.618573  -17.389354   -0.508015
  42 C     6.0000    0    12.011  -17.659755  -17.150871   -2.935349
  43 S    16.0000    0    32.060  -20.153627  -19.215094   -3.517517
  44 C     6.0000    0    12.011  -19.749282  -20.506382   -0.463512
  45 C     6.0000    0    12.011  -17.828470  -19.289077    0.934904
  46 S    16.0000    0    32.060  -17.490984  -20.639060    3.889037
  47 C     6.0000    0    12.011  -19.836210  -22.944488    3.176460
  48 C     6.0000    0    12.011  -20.914374  -22.567658    0.775411
  49 C     6.0000    0    12.011  -23.206290  -23.904488   -0.254848
  50 C     6.0000    0    12.011  -22.835186  -25.102461   -2.872270
  51 C     6.0000    0    12.011  -20.407285  -24.694204    5.143778
  52 C     6.0000    0    12.011  -21.116669  -27.191364    4.918900
  53 C     6.0000    0    12.011  -22.074174  -28.849636    6.914943
  54 C     6.0000    0    12.011  -22.771464  -28.181486    9.344223
  55 C     6.0000    0    12.011  -22.642774  -25.654771   10.295606
  56 N     7.0000    0    14.007  -22.554713  -23.631271   11.145983
  57 C     6.0000    0    12.011  -23.676398  -29.967164   11.160156
  58 N     7.0000    0    14.007  -24.400201  -31.381567   12.676604
  59 C     6.0000    0    12.011  -22.258177  -31.439997    5.842958
  60 C     6.0000    0    12.011  -23.126809  -33.715568    6.869098
  61 C     6.0000    0    12.011  -23.095666  -35.864659    5.321015
  62 Cl   17.0000    0    35.453  -24.206749  -38.708564    6.536090
  63 C     6.0000    0    12.011  -22.211671  -35.805321    2.822098
  64 C     6.0000    0    12.011  -21.330095  -33.534248    1.816575
  65 C     6.0000    0    12.011  -21.381968  -31.389145    3.331058
  66 C     6.0000    0    12.011  -20.594122  -28.792415    2.645050
  67 O     8.0000    0    15.999  -19.580303  -28.176459    0.678185
  68 C     6.0000    0    12.011   -7.844442  -15.879955   -1.029712
  69 C     6.0000    0    12.011   -6.252386  -16.324305   -3.428700
  70 C     6.0000    0    12.011   -6.485635  -16.874328    1.346411
  71 C     6.0000    0    12.011   -6.441377  -19.749736    1.556265
  72 C     6.0000    0    12.011   -7.684571  -16.344411   -5.941752
  73 C     6.0000    0    12.011  -16.613943  -11.504331    3.371782
  74 C     6.0000    0    12.011  -18.047168  -10.960978    0.918823
  75 C     6.0000    0    12.011  -12.370639  -12.046475    5.594610
  76 C     6.0000    0    12.011  -11.762506   -9.308470    6.290331
  77 H     1.0000    0     1.008    9.383265   -4.999686   -3.100644
  78 H     1.0000    0     1.008   11.099514   -5.418998    1.351230
  79 H     1.0000    0     1.008    3.536736   -5.417637    4.359012
  80 H     1.0000    0     1.008    0.352528   -4.893691   -7.242848
  81 H     1.0000    0     1.008   -5.762417   -4.463495  -10.820251
  82 H     1.0000    0     1.008   -2.470760   -4.522077  -10.330282
  83 H     1.0000    0     1.008   -6.155802   -0.974381   -7.493974
  84 H     1.0000    0     1.008   -4.121020   -0.083772  -10.046351
  85 H     1.0000    0     1.008   -2.839427   -1.036477   -7.080237
  86 H     1.0000    0     1.008   -9.415749  -12.834170    1.250432
  87 H     1.0000    0     1.008   -6.762309  -11.981393   -0.516632
  88 H     1.0000    0     1.008  -11.583057  -15.716361    2.320149
  89 H     1.0000    0     1.008  -14.576951  -16.328632    3.592218
  90 H     1.0000    0     1.008  -12.942224  -11.134115    1.670556
  91 H     1.0000    0     1.008  -24.729296  -22.477688   -0.359331
  92 H     1.0000    0     1.008  -23.853919  -25.332289    1.101011
  93 H     1.0000    0     1.008  -22.357841  -23.678816   -4.310201
  94 H     1.0000    0     1.008  -24.586773  -26.045793   -3.484107
  95 H     1.0000    0     1.008  -21.311651  -26.506225   -2.823326
  96 H     1.0000    0     1.008  -20.180291  -23.937331    7.052987
  97 H     1.0000    0     1.008  -23.827557  -33.878235    8.791989
  98 H     1.0000    0     1.008  -22.231967  -37.536424    1.703267
  99 H     1.0000    0     1.008  -20.616005  -33.406446   -0.114083
 100 H     1.0000    0     1.008   -9.629515  -16.942604   -1.231988
 101 H     1.0000    0     1.008   -5.299680  -18.162933   -3.220509
 102 H     1.0000    0     1.008   -4.719931  -14.907010   -3.490494
 103 H     1.0000    0     1.008   -7.408822  -16.094571    3.047826
 104 H     1.0000    0     1.008   -4.539954  -16.118476    1.376250
 105 H     1.0000    0     1.008   -8.374510  -20.522029    1.640547
 106 H     1.0000    0     1.008   -5.437063  -20.360609    3.271740
 107 H     1.0000    0     1.008   -5.485327  -20.640893   -0.061057
 108 H     1.0000    0     1.008   -9.340727  -17.603593   -5.854145
 109 H     1.0000    0     1.008   -6.452999  -17.033292   -7.470031
 110 H     1.0000    0     1.008   -8.362454  -14.465532   -6.503625
 111 H     1.0000    0     1.008  -16.617741   -9.766728    4.517863
 112 H     1.0000    0     1.008  -17.646433  -12.921664    4.505957
 113 H     1.0000    0     1.008  -16.928016   -9.753614   -0.357404
 114 H     1.0000    0     1.008  -19.822622   -9.958800    1.334090
 115 H     1.0000    0     1.008  -18.550156  -12.682103   -0.126990
 116 H     1.0000    0     1.008  -10.579386  -13.109087    5.468395
 117 H     1.0000    0     1.008  -13.449181  -12.957096    7.132885
 118 H     1.0000    0     1.008  -10.702653   -8.367651    4.762412
 119 H     1.0000    0     1.008  -10.599172   -9.214191    8.011929
 120 H     1.0000    0     1.008  -13.478358   -8.189090    6.645014

--------------------------------
INTERNAL COORDINATES (ANGSTROEM)
--------------------------------
 C      0   0   0     0.000000000000     0.00000000     0.00000000
 O      1   0   0     1.214547137908     0.00000000     0.00000000
 C      1   2   0     1.486182166795   127.63063700     0.00000000
 C      3   1   2     1.389801071701   128.49885287   357.14633629
 C      4   3   1     1.396461162260   118.61685265   179.44721243
 C      5   4   3     1.402872794697   119.49699198   359.45843009
 Cl     6   5   4     1.740118872807   118.91942843   180.36893951
 C      6   5   4     1.401736254008   122.38941123     0.29964143
 C      8   6   5     1.397328623803   117.79606256     0.46829031
 C      9   8   6     1.487061548289   131.51203417   182.85497285
 C     10   9   8     1.385665816278   125.55851036    16.03907884
 C     11  10   9     1.428968757286   121.67888211   159.29433151
 N     12  11  10     1.162170285974   176.98185000   274.46658832
 C     11  10   9     1.427675866400   122.71202278   345.41175539
 N     14  11  10     1.162506838647   178.64769277   258.66296677
 C     10   9   8     1.452195467628   107.10599818   184.91115179
 C     16  10   9     1.373720535844   133.77477694   164.77200416
 C     17  16  10     1.415968730340   132.41108087   341.33012055
 S     18  17  16     1.772298361902   123.25421412   336.71859060
 C     19  18  17     1.733114580921    90.87028186   182.68258843
 C     20  19  18     1.412744218250   111.37311705     0.82567255
 C     18  17  16     1.406212848398   124.44451422   160.80016388
 C     22  18  17     1.501217184121   123.19384708   351.87028771
 C     23  22  18     1.537355720743   112.24896826   290.94841941
 S     21  20  19     1.764684344012   113.32225727   177.27213607
 C     25  21  20     1.742143894975    89.16514695   359.59511950
 C     26  25  21     1.404849712176   113.75511280     1.74113138
 N     27  26  25     1.383180978253   109.58356994   180.52151631
 C     28  27  26     1.458665836235   121.10360905   166.08779125
 C     28  27  26     1.397359919205   107.93536377     0.66349762
 C     26  25  21     1.408817912649   138.80564776   186.15461767
 C     31  26  25     1.431774512135   130.89499125     8.14184325
 N     32  31  26     1.325558684178   127.05543960   355.49260182
 S     33  32  31     1.656907554603   106.84030762   175.06077894
 N     34  33  32     1.656405858870    98.84555962   359.69605165
 C     35  34  33     1.326394756850   106.82277275     0.17458237
 C     36  35  34     1.431864090059   127.35466463   178.67385634
 C     37  36  35     1.431559683772   121.69627845   178.13895058
 N     38  37  36     1.398542880322   108.05670152   175.62588011
 C     39  38  37     1.462877704526   129.59205200   197.65976005
 C     40  39  38     1.538384256907   116.21957823    48.78976600
 C     39  38  37     1.385484850982   107.81321079     3.21660335
 C     42  39  38     1.403356312916   109.53869343   357.57712278
 S     43  42  39     1.740609631853   113.78042449   177.97514671
 C     44  43  42     1.767631442185    89.36993618   358.41806263
 C     45  44  43     1.412706760619   112.93871791     2.33882614
 S     46  45  44     1.728008969913   111.08390727   180.54662033
 C     47  46  45     1.780651793136    91.12510009     2.66675172
 C     48  47  46     1.407001697263   112.13239405   356.96997087
 C     49  48  47     1.506197796241   125.93188803   190.04103330
 C     50  49  48     1.535868364932   114.66612173   231.39349616
 C     48  47  46     1.425636732025   115.98087820   181.06921450
 C     52  48  47     1.378869945172   128.10526226   212.84530656
 C     53  52  48     1.463714895087   127.33754337   190.35966623
 C     54  53  52     1.383375233044   127.56712812     9.08413218
 C     55  54  53     1.430343468856   123.59379073   359.83016781
 N     56  55  54     1.162438292599   177.79764218   189.37576174
 C     55  54  53     1.430263256537   123.01030675   180.34153304
 N     58  55  54     1.162269229654   178.53766710   161.48641644
 C     54  53  52     1.486694032880   107.46290949   187.24864055
 C     60  54  53     1.398641000436   131.85215595   182.48144382
 C     61  60  54     1.401682623492   117.88961377   178.80778261
 Cl    62  61  60     1.738950087438   118.82132172   180.88962858
 C     62  61  60     1.403023827667   122.45330820     0.59463625
 C     64  62  61     1.394663124235   119.36722087   359.88232835
 C     65  64  62     1.389815227647   118.50256810   359.39294390
 C     66  65  64     1.481158575373   127.65075903   181.27732764
 O     67  66  65     1.215471593662   125.65499708   353.77980592
 C     29  28  27     1.535806601041   115.30453759   252.84960072
 C     69  29  28     1.541644651046   113.34825149    62.96876946
 C     69  29  28     1.541086939339   108.27559678   187.09483228
 C     71  69  29     1.525826713261   114.01936092   161.74229792
 C     70  69  29     1.530684920714   116.48126015   280.80316351
 C     41  40  39     1.540257858055   113.52151666    62.40024370
 C     74  41  40     1.530628422675   116.48375644   284.32018225
 C     41  40  39     1.544915976065   107.91445237   186.58743009
 C     76  41  40     1.529178110555   114.50533658   162.12569094
 H      4   3   1     1.091891590727   119.85334176   359.72302873
 H      5   4   3     1.091089235764   121.31566981   179.72705996
 H      8   6   5     1.087725711151   119.36512328   180.29357535
 H     17  16  10     1.098080720211   112.65495770   166.59810363
 H     23  22  18     1.101620125134   108.92785511   168.43991306
 H     23  22  18     1.103544533583   109.49033090    52.92042243
 H     24  23  22     1.100637175458   111.12919146   302.00915406
 H     24  23  22     1.100365220325   110.49216223   181.03285235
 H     24  23  22     1.099966583538   111.00962395    60.95613640
 H     29  28  27     1.094891088374   109.34814536   127.39973032
 H     29  28  27     1.097955155915   106.49113418    13.78131294
 H     40  39  38     1.096943335182   109.37907040   282.79261458
 H     40  39  38     1.098621303316   106.13891946   169.02736033
 H     41  40  39     1.104188338373   108.39602418   302.82211546
 H     50  49  48     1.105742541734   106.51687371   110.40436823
 H     50  49  48     1.096865059066   109.77609373   356.08637740
 H     51  50  49     1.100162395285   111.74353861   299.11835414
 H     51  50  49     1.101436007674   110.15496124   179.72981507
 H     51  50  49     1.096573191356   110.62904075    59.67359557
 H     52  48  47     1.093421867762   114.42789883    30.61785519
 H     61  60  54     1.086427743248   122.95754819   359.20828243
 H     64  62  61     1.090787016241   119.30785848   180.02247289
 H     65  64  62     1.091401056853   121.75966097   179.64031944
 H     69  29  28     1.104526837564   107.84983133   303.38940529
 H     70  69  29     1.101342731851   107.60958962   159.57440340
 H     70  69  29     1.105076003540   108.77637964    45.78654278
 H     71  69  29     1.104334731999   109.34256905    39.88545628
 H     71  69  29     1.104685510270   108.83894758   285.24457794
 H     72  71  69     1.102486337013   110.99980604   299.44729888
 H     72  71  69     1.100467829289   111.12378611   179.47976252
 H     72  71  69     1.100373557161   112.19910607    59.63268114
 H     73  70  69     1.101917364642   111.18892441   310.15900193
 H     73  70  69     1.100760002407   110.33209289   190.91429125
 H     73  70  69     1.098015534908   112.99941108    71.02631428
 H     74  41  40     1.101500013845   107.45346097   163.06926553
 H     74  41  40     1.105109139271   108.77221832    49.36287127
 H     75  74  41     1.102288520987   111.23817776   312.15422547
 H     75  74  41     1.101025245987   110.12356693   193.01212544
 H     75  74  41     1.098471835643   113.05202046    73.32696396
 H     76  41  40     1.104150756147   109.09400535    40.40383644
 H     76  41  40     1.104799095945   108.81884086   285.86697462
 H     77  76  41     1.102793831004   110.99341730   303.62891894
 H     77  76  41     1.100654507600   111.09598314   183.97987852
 H     77  76  41     1.100250834446   112.17941541    63.98909747

---------------------------
INTERNAL COORDINATES (A.U.)
---------------------------
 C      0   0   0     0.000000000000     0.00000000     0.00000000
 O      1   0   0     2.295161467384     0.00000000     0.00000000
 C      1   2   0     2.808477280361   127.63063700     0.00000000
 C      3   1   2     2.626343406144   128.49885287   357.14633629
 C      4   3   1     2.638929153328   118.61685265   179.44721243
 C      5   4   3     2.651045382705   119.49699198   359.45843009
 Cl     6   5   4     3.288348110073   118.91942843   180.36893951
 C      6   5   4     2.648897632064   122.38941123     0.29964143
 C      8   6   5     2.640568418077   117.79606256     0.46829031
 C      9   8   6     2.810139070551   131.51203417   182.85497285
 C     10   9   8     2.618528905901   125.55851036    16.03907884
 C     11  10   9     2.700359605201   121.67888211   159.29433151
 N     12  11  10     2.196183561471   176.98185000   274.46658832
 C     11  10   9     2.697916395504   122.71202278   345.41175539
 N     14  11  10     2.196819553853   178.64769277   258.66296677
 C     10   9   8     2.744251726739   107.10599818   184.91115179
 C     16  10   9     2.595955597289   133.77477694   164.77200416
 C     17  16  10     2.675793114538   132.41108087   341.33012055
 S     18  17  16     3.349158531592   123.25421412   336.71859060
 C     19  18  17     3.275111916646    90.87028186   182.68258843
 C     20  19  18     2.669699669774   111.37311705     0.82567255
 C     18  17  16     2.657357169474   124.44451422   160.80016388
 C     22  18  17     2.836889345525   123.19384708   351.87028771
 C     23  22  18     2.905181282621   112.24896826   290.94841941
 S     21  20  19     3.334770123001   113.32225727   177.27213607
 C     25  21  20     3.292174847386    89.16514695   359.59511950
 C     26  25  21     2.654781215330   113.75511280     1.74113138
 N     27  26  25     2.613833242547   109.58356994   180.52151631
 C     28  27  26     2.756478951392   121.10360905   166.08779125
 C     28  27  26     2.640627557815   107.93536377     0.66349762
 C     26  25  21     2.662280027469   138.80564776   186.15461767
 C     31  26  25     2.705661713464   130.89499125     8.14184325
 N     32  31  26     2.504942887538   127.05543960   355.49260182
 S     33  32  31     3.131101507425   106.84030762   175.06077894
 N     34  33  32     3.130153439888    98.84555962   359.69605165
 C     35  34  33     2.506522835916   106.82277275     0.17458237
 C     36  35  34     2.705830991208   127.35466463   178.67385634
 C     37  36  35     2.705255746691   121.69627845   178.13895058
 N     38  37  36     2.642863030354   108.05670152   175.62588011
 C     39  38  37     2.764438228974   129.59205200   197.65976005
 C     40  39  38     2.907124934291   116.21957823    48.78976600
 C     39  38  37     2.618186931052   107.81321079     3.21660335
 C     42  39  38     2.651959099720   109.53869343   357.57712278
 S     43  42  39     3.289275510268   113.78042449   177.97514671
 C     44  43  42     3.340339331437    89.36993618   358.41806263
 C     45  44  43     2.669628885110   112.93871791     2.33882614
 S     46  45  44     3.265463710095   111.08390727   180.54662033
 C     47  46  45     3.364944228904    91.12510009     2.66675172
 C     48  47  46     2.658847877789   112.13239405   356.96997087
 C     49  48  47     2.846301338410   125.93188803   190.04103330
 C     50  49  48     2.902370587476   114.66612173   231.39349616
 C     48  47  46     2.694062989986   115.98087820   181.06921450
 C     52  48  47     2.605686570671   128.10526226   212.84530656
 C     53  52  48     2.766020289856   127.33754337   190.35966623
 C     54  53  52     2.614200330903   127.56712812     9.08413218
 C     55  54  53     2.702957433581   123.59379073   359.83016781
 N     56  55  54     2.196690020595   177.79764218   189.37576174
 C     55  54  53     2.702805854265   123.01030675   180.34153304
 N     58  55  54     2.196370537929   178.53766710   161.48641644
 C     54  53  52     2.809444567077   107.46290949   187.24864055
 C     60  54  53     2.643048450497   131.85215595   182.48144382
 C     61  60  54     2.648796285077   117.88961377   178.80778261
 Cl    62  61  60     3.286139425816   118.82132172   180.88962858
 C     62  61  60     2.651330793656   122.45330820     0.59463625
 C     64  62  61     2.635531353883   119.36722087   359.88232835
 C     65  64  62     2.626370157007   118.50256810   359.39294390
 C     66  65  64     2.798984068363   127.65075903   181.27732764
 O     67  66  65     2.296908435583   125.65499708   353.77980592
 C     29  28  27     2.902253870635   115.30453759   252.84960072
 C     69  29  28     2.913286186302   113.34825149    62.96876946
 C     69  29  28     2.912232263913   108.27559678   187.09483228
 C     71  69  29     2.883394615884   114.01936092   161.74229792
 C     70  69  29     2.892575297472   116.48126015   280.80316351
 C     41  40  39     2.910665527344   113.52151666    62.40024370
 C     74  41  40     2.892468531651   116.48375644   284.32018225
 C     41  40  39     2.919468094682   107.91445237   186.58743009
 C     76  41  40     2.889727838936   114.50533658   162.12569094
 H      4   3   1     2.063376074405   119.85334176   359.72302873
 H      5   4   3     2.061859843263   121.31566981   179.72705996
 H      8   6   5     2.055503702901   119.36512328   180.29357535
 H     17  16  10     2.075071834139   112.65495770   166.59810363
 H     23  22  18     2.081760340119   108.92785511   168.43991306
 H     23  22  18     2.085396945057   109.49033090    52.92042243
 H     24  23  22     2.079902834428   111.12919146   302.00915406
 H     24  23  22     2.079388913705   110.49216223   181.03285235
 H     24  23  22     2.078635599352   111.00962395    60.95613640
 H     29  28  27     2.069044303497   109.34814536   127.39973032
 H     29  28  27     2.074834552006   106.49113418    13.78131294
 H     40  39  38     2.072922487924   109.37907040   282.79261458
 H     40  39  38     2.076093388159   106.13891946   169.02736033
 H     41  40  39     2.086613559795   108.39602418   302.82211546
 H     50  49  48     2.089550578503   106.51687371   110.40436823
 H     50  49  48     2.072774567502   109.77609373   356.08637740
 H     51  50  49     2.079005629928   111.74353861   299.11835414
 H     51  50  49     2.081412408543   110.15496124   179.72981507
 H     51  50  49     2.072223017462   110.62904075    59.67359557
 H     52  48  47     2.066267878911   114.42789883    30.61785519
 H     61  60  54     2.053050899034   122.95754819   359.20828243
 H     64  62  61     2.061288731133   119.30785848   180.02247289
 H     65  64  62     2.062449099725   121.75966097   179.64031944
 H     69  29  28     2.087253230563   107.84983133   303.38940529
 H     70  69  29     2.081236142782   107.60958962   159.57440340
 H     70  69  29     2.088291003859   108.77637964    45.78654278
 H     71  69  29     2.086890203656   109.34256905    39.88545628
 H     71  69  29     2.087553078521   108.83894758   285.24457794
 H     72  71  69     2.083397243344   110.99980604   299.44729888
 H     72  71  69     2.079582816547   111.12378611   179.47976252
 H     72  71  69     2.079404668044   112.19910607    59.63268114
 H     73  70  69     2.082322041386   111.18892441   310.15900193
 H     73  70  69     2.080134943725   110.33209289   190.91429125
 H     73  70  69     2.074948651768   112.99941108    71.02631428
 H     74  41  40     2.081533362677   107.45346097   163.06926553
 H     74  41  40     2.088353621315   108.77221832    49.36287127
 H     75  74  41     2.083023425231   111.23817776   312.15422547
 H     75  74  41     2.080636181448   110.12356693   193.01212544
 H     75  74  41     2.075810935190   113.05202046    73.32696396
 H     76  41  40     2.086542539680   109.09400535    40.40383644
 H     76  41  40     2.087767724339   108.81884086   285.86697462
 H     77  76  41     2.083978322775   110.99341730   303.62891894
 H     77  76  41     2.079935587430   111.09598314   183.97987852
 H     77  76  41     2.079172755722   112.17941541    63.98909747

---------------------
BASIS SET INFORMATION
---------------------
There are 6 groups of distinct atoms

 Group   1 Type C   : 7s4p1d contracted to 3s2p1d pattern {511/31/1}
 Group   2 Type O   : 7s4p1d contracted to 3s2p1d pattern {511/31/1}
 Group   3 Type Cl  : 10s7p1d contracted to 4s3p1d pattern {5311/511/1}
 Group   4 Type N   : 7s4p1d contracted to 3s2p1d pattern {511/31/1}
 Group   5 Type S   : 10s7p1d contracted to 4s3p1d pattern {5311/511/1}
 Group   6 Type H   : 4s1p contracted to 2s1p pattern {31/1}

Atom   0C    basis set group =>   1
Atom   1O    basis set group =>   2
Atom   2C    basis set group =>   1
Atom   3C    basis set group =>   1
Atom   4C    basis set group =>   1
Atom   5C    basis set group =>   1
Atom   6Cl   basis set group =>   3
Atom   7C    basis set group =>   1
Atom   8C    basis set group =>   1
Atom   9C    basis set group =>   1
Atom  10C    basis set group =>   1
Atom  11C    basis set group =>   1
Atom  12N    basis set group =>   4
Atom  13C    basis set group =>   1
Atom  14N    basis set group =>   4
Atom  15C    basis set group =>   1
Atom  16C    basis set group =>   1
Atom  17C    basis set group =>   1
Atom  18S    basis set group =>   5
Atom  19C    basis set group =>   1
Atom  20C    basis set group =>   1
Atom  21C    basis set group =>   1
Atom  22C    basis set group =>   1
Atom  23C    basis set group =>   1
Atom  24S    basis set group =>   5
Atom  25C    basis set group =>   1
Atom  26C    basis set group =>   1
Atom  27N    basis set group =>   4
Atom  28C    basis set group =>   1
Atom  29C    basis set group =>   1
Atom  30C    basis set group =>   1
Atom  31C    basis set group =>   1
Atom  32N    basis set group =>   4
Atom  33S    basis set group =>   5
Atom  34N    basis set group =>   4
Atom  35C    basis set group =>   1
Atom  36C    basis set group =>   1
Atom  37C    basis set group =>   1
Atom  38N    basis set group =>   4
Atom  39C    basis set group =>   1
Atom  40C    basis set group =>   1
Atom  41C    basis set group =>   1
Atom  42C    basis set group =>   1
Atom  43S    basis set group =>   5
Atom  44C    basis set group =>   1
Atom  45C    basis set group =>   1
Atom  46S    basis set group =>   5
Atom  47C    basis set group =>   1
Atom  48C    basis set group =>   1
Atom  49C    basis set group =>   1
Atom  50C    basis set group =>   1
Atom  51C    basis set group =>   1
Atom  52C    basis set group =>   1
Atom  53C    basis set group =>   1
Atom  54C    basis set group =>   1
Atom  55C    basis set group =>   1
Atom  56N    basis set group =>   4
Atom  57C    basis set group =>   1
Atom  58N    basis set group =>   4
Atom  59C    basis set group =>   1
Atom  60C    basis set group =>   1
Atom  61C    basis set group =>   1
Atom  62Cl   basis set group =>   3
Atom  63C    basis set group =>   1
Atom  64C    basis set group =>   1
Atom  65C    basis set group =>   1
Atom  66C    basis set group =>   1
Atom  67O    basis set group =>   2
Atom  68C    basis set group =>   1
Atom  69C    basis set group =>   1
Atom  70C    basis set group =>   1
Atom  71C    basis set group =>   1
Atom  72C    basis set group =>   1
Atom  73C    basis set group =>   1
Atom  74C    basis set group =>   1
Atom  75C    basis set group =>   1
Atom  76C    basis set group =>   1
Atom  77H    basis set group =>   6
Atom  78H    basis set group =>   6
Atom  79H    basis set group =>   6
Atom  80H    basis set group =>   6
Atom  81H    basis set group =>   6
Atom  82H    basis set group =>   6
Atom  83H    basis set group =>   6
Atom  84H    basis set group =>   6
Atom  85H    basis set group =>   6
Atom  86H    basis set group =>   6
Atom  87H    basis set group =>   6
Atom  88H    basis set group =>   6
Atom  89H    basis set group =>   6
Atom  90H    basis set group =>   6
Atom  91H    basis set group =>   6
Atom  92H    basis set group =>   6
Atom  93H    basis set group =>   6
Atom  94H    basis set group =>   6
Atom  95H    basis set group =>   6
Atom  96H    basis set group =>   6
Atom  97H    basis set group =>   6
Atom  98H    basis set group =>   6
Atom  99H    basis set group =>   6
Atom 100H    basis set group =>   6
Atom 101H    basis set group =>   6
Atom 102H    basis set group =>   6
Atom 103H    basis set group =>   6
Atom 104H    basis set group =>   6
Atom 105H    basis set group =>   6
Atom 106H    basis set group =>   6
Atom 107H    basis set group =>   6
Atom 108H    basis set group =>   6
Atom 109H    basis set group =>   6
Atom 110H    basis set group =>   6
Atom 111H    basis set group =>   6
Atom 112H    basis set group =>   6
Atom 113H    basis set group =>   6
Atom 114H    basis set group =>   6
Atom 115H    basis set group =>   6
Atom 116H    basis set group =>   6
Atom 117H    basis set group =>   6
Atom 118H    basis set group =>   6
Atom 119H    basis set group =>   6
Atom 120H    basis set group =>   6
---------------------------------
AUXILIARY/J BASIS SET INFORMATION
---------------------------------
There are 6 groups of distinct atoms

 Group   1 Type C   : 12s5p4d2f1g contracted to 6s4p3d1f1g pattern {711111/2111/211/2/1}
 Group   2 Type O   : 12s5p4d2f1g contracted to 6s4p3d1f1g pattern {711111/2111/211/2/1}
 Group   3 Type Cl  : 14s5p5d2f1g contracted to 8s4p3d1f1g pattern {71111111/2111/311/2/1}
 Group   4 Type N   : 12s5p4d2f1g contracted to 6s4p3d1f1g pattern {711111/2111/211/2/1}
 Group   5 Type S   : 14s5p5d2f1g contracted to 8s4p3d1f1g pattern {71111111/2111/311/2/1}
 Group   6 Type H   : 5s2p1d contracted to 3s1p1d pattern {311/2/1}

Atom   0C    basis set group =>   1
Atom   1O    basis set group =>   2
Atom   2C    basis set group =>   1
Atom   3C    basis set group =>   1
Atom   4C    basis set group =>   1
Atom   5C    basis set group =>   1
Atom   6Cl   basis set group =>   3
Atom   7C    basis set group =>   1
Atom   8C    basis set group =>   1
Atom   9C    basis set group =>   1
Atom  10C    basis set group =>   1
Atom  11C    basis set group =>   1
Atom  12N    basis set group =>   4
Atom  13C    basis set group =>   1
Atom  14N    basis set group =>   4
Atom  15C    basis set group =>   1
Atom  16C    basis set group =>   1
Atom  17C    basis set group =>   1
Atom  18S    basis set group =>   5
Atom  19C    basis set group =>   1
Atom  20C    basis set group =>   1
Atom  21C    basis set group =>   1
Atom  22C    basis set group =>   1
Atom  23C    basis set group =>   1
Atom  24S    basis set group =>   5
Atom  25C    basis set group =>   1
Atom  26C    basis set group =>   1
Atom  27N    basis set group =>   4
Atom  28C    basis set group =>   1
Atom  29C    basis set group =>   1
Atom  30C    basis set group =>   1
Atom  31C    basis set group =>   1
Atom  32N    basis set group =>   4
Atom  33S    basis set group =>   5
Atom  34N    basis set group =>   4
Atom  35C    basis set group =>   1
Atom  36C    basis set group =>   1
Atom  37C    basis set group =>   1
Atom  38N    basis set group =>   4
Atom  39C    basis set group =>   1
Atom  40C    basis set group =>   1
Atom  41C    basis set group =>   1
Atom  42C    basis set group =>   1
Atom  43S    basis set group =>   5
Atom  44C    basis set group =>   1
Atom  45C    basis set group =>   1
Atom  46S    basis set group =>   5
Atom  47C    basis set group =>   1
Atom  48C    basis set group =>   1
Atom  49C    basis set group =>   1
Atom  50C    basis set group =>   1
Atom  51C    basis set group =>   1
Atom  52C    basis set group =>   1
Atom  53C    basis set group =>   1
Atom  54C    basis set group =>   1
Atom  55C    basis set group =>   1
Atom  56N    basis set group =>   4
Atom  57C    basis set group =>   1
Atom  58N    basis set group =>   4
Atom  59C    basis set group =>   1
Atom  60C    basis set group =>   1
Atom  61C    basis set group =>   1
Atom  62Cl   basis set group =>   3
Atom  63C    basis set group =>   1
Atom  64C    basis set group =>   1
Atom  65C    basis set group =>   1
Atom  66C    basis set group =>   1
Atom  67O    basis set group =>   2
Atom  68C    basis set group =>   1
Atom  69C    basis set group =>   1
Atom  70C    basis set group =>   1
Atom  71C    basis set group =>   1
Atom  72C    basis set group =>   1
Atom  73C    basis set group =>   1
Atom  74C    basis set group =>   1
Atom  75C    basis set group =>   1
Atom  76C    basis set group =>   1
Atom  77H    basis set group =>   6
Atom  78H    basis set group =>   6
Atom  79H    basis set group =>   6
Atom  80H    basis set group =>   6
Atom  81H    basis set group =>   6
Atom  82H    basis set group =>   6
Atom  83H    basis set group =>   6
Atom  84H    basis set group =>   6
Atom  85H    basis set group =>   6
Atom  86H    basis set group =>   6
Atom  87H    basis set group =>   6
Atom  88H    basis set group =>   6
Atom  89H    basis set group =>   6
Atom  90H    basis set group =>   6
Atom  91H    basis set group =>   6
Atom  92H    basis set group =>   6
Atom  93H    basis set group =>   6
Atom  94H    basis set group =>   6
Atom  95H    basis set group =>   6
Atom  96H    basis set group =>   6
Atom  97H    basis set group =>   6
Atom  98H    basis set group =>   6
Atom  99H    basis set group =>   6
Atom 100H    basis set group =>   6
Atom 101H    basis set group =>   6
Atom 102H    basis set group =>   6
Atom 103H    basis set group =>   6
Atom 104H    basis set group =>   6
Atom 105H    basis set group =>   6
Atom 106H    basis set group =>   6
Atom 107H    basis set group =>   6
Atom 108H    basis set group =>   6
Atom 109H    basis set group =>   6
Atom 110H    basis set group =>   6
Atom 111H    basis set group =>   6
Atom 112H    basis set group =>   6
Atom 113H    basis set group =>   6
Atom 114H    basis set group =>   6
Atom 115H    basis set group =>   6
Atom 116H    basis set group =>   6
Atom 117H    basis set group =>   6
Atom 118H    basis set group =>   6
Atom 119H    basis set group =>   6
Atom 120H    basis set group =>   6
------------------------------------------------------------------------------
                           ORCA GTO INTEGRAL CALCULATION
                           -- RI-GTO INTEGRALS CHOSEN --
------------------------------------------------------------------------------

                         BASIS SET STATISTICS AND STARTUP INFO

Gaussian basis set:
 # of primitive gaussian shells          ... 1186
 # of primitive gaussian functions       ... 2240
 # of contracted shells                  ...  608
 # of contracted basis functions         ... 1326
 Highest angular momentum                ...    2
 Maximum contraction depth               ...    5
Auxiliary gaussian basis set:
 # of primitive gaussian shells          ... 2221
 # of primitive gaussian functions       ... 6143
 # of contracted shells                  ... 1389
 # of contracted aux-basis functions     ... 4271
 Highest angular momentum                ...    4
 Maximum contraction depth               ...    7
Ratio of auxiliary to basis functions    ...  3.22
Integral package used                  ... LIBINT
 One Electron integrals                  ... done
 Ordering auxiliary basis shells         ... done
 Integral threshhold             Thresh  ...  2.500e-11
 Primitive cut-off               TCut    ...  2.500e-12
 Pre-screening matrix                    ... done
 Shell pair data                         ... 
 Ordering of the shell pairs             ... done (   0.015 sec) 66557 of 185136 pairs
 Determination of significant pairs      ... done (   0.000 sec)
 Creation of shell pair data             ... done (   0.009 sec)
 Storage of shell pair data              ... done (   0.014 sec)
 Shell pair data done in (   0.038 sec)
 Computing two index integrals           ... done
 Cholesky decomposition of the V-matrix  ... done


Timings:
 Total evaluation time                   ...   2.910 sec (  0.049 min)
 One electron matrix time                ...   0.861 sec (  0.014 min) = 29.6%
 Schwartz matrix evaluation time         ...   0.850 sec (  0.014 min) = 29.2%
 Two index repulsion integral time       ...   0.486 sec (  0.008 min) = 16.7%
 Cholesky decomposition of V             ...   0.657 sec (  0.011 min) = 22.6%
 Three index repulsion integral time     ...   0.000 sec (  0.000 min) =  0.0%

-------------------------------------------------------------------------------
                                 ORCA SCF
-------------------------------------------------------------------------------

------------
SCF SETTINGS
------------
Hamiltonian:
 Density Functional     Method          .... DFT(GTOs)
 Exchange Functional    Exchange        .... WB88
 Correlation Functional Correlation     .... LYP
 LDA part of GGA corr.  LDAOpt          .... VWN-5
 Gradients option       PostSCFGGA      .... off
 Hybrid DFT is turned on
   Fraction HF Exchange ScalHFX         ....  0.190000
   Scaling of DF-GGA-X  ScalDFX         ....  0.350000
   Scaling of DF-GGA-C  ScalDFC         ....  0.810000
   Scaling of DF-LDA-C  ScalLDAC        ....  1.000000
   Perturbative correction              ....  0.000000
   Density functional embedding theory  .... OFF
 Long-range corrected/Screened/Range-Separated Hybrid DFT is turned on
   Amount of maximum screened exact exchange              ....  0.460000
   Range separation parameter mu (erf(mu*r12)/r12)        ....  0.330000
 RI-approximation to the Coulomb term is turned on
   Number of auxiliary basis functions  .... 4271
   RIJ-COSX (HFX calculated with COS-X)).... on


General Settings:
 Integral files         IntName         .... H2
 Hartree-Fock type      HFTyp           .... RHF
 Total Charge           Charge          ....    0
 Multiplicity           Mult            ....    1
 Number of Electrons    NEL             ....  590
 Basis Dimension        Dim             .... 1326
 Nuclear Repulsion      ENuc            ....  13581.7906032448 Eh

Convergence Acceleration:
 DIIS                   CNVDIIS         .... on
   Start iteration      DIISMaxIt       ....    12
   Startup error        DIISStart       ....  0.200000
   # of expansion vecs  DIISMaxEq       ....     5
   Bias factor          DIISBfac        ....   1.050
   Max. coefficient     DIISMaxC        ....  10.000
 Newton-Raphson         CNVNR           .... off
 SOSCF                  CNVSOSCF        .... on
   Start iteration      SOSCFMaxIt      ....   150
   Startup grad/error   SOSCFStart      ....  0.003300
 Level Shifting         CNVShift        .... on
   Level shift para.    LevelShift      ....    0.2500
   Turn off err/grad.   ShiftErr        ....    0.0010
 Zerner damping         CNVZerner       .... off
 Static damping         CNVDamp         .... on
   Fraction old density DampFac         ....    0.7000
   Max. Damping (<1)    DampMax         ....    0.9800
   Min. Damping (>=0)   DampMin         ....    0.0000
   Turn off err/grad.   DampErr         ....    0.1000
 Fernandez-Rico         CNVRico         .... off

SCF Procedure:
 Maximum # iterations   MaxIter         ....   125
 SCF integral mode      SCFMode         .... Direct
   Integral package                     .... LIBINT
 Reset frequency        DirectResetFreq ....    20
 Integral Threshold     Thresh          ....  2.500e-11 Eh
 Primitive CutOff       TCut            ....  2.500e-12 Eh

Convergence Tolerance:
 Convergence Check Mode ConvCheckMode   .... Total+1el-Energy
 Convergence forced     ConvForced      .... 1
 Energy Change          TolE            ....  1.000e-08 Eh
 1-El. energy change                    ....  1.000e-05 Eh
 Orbital Gradient       TolG            ....  1.000e-05
 Orbital Rotation angle TolX            ....  1.000e-05
 DIIS Error             TolErr          ....  5.000e-07


Diagonalization of the overlap matrix:
Smallest eigenvalue                        ... 9.212e-05
Time for diagonalization                   ...    0.456 sec
Threshold for overlap eigenvalues          ... 1.000e-08
Number of eigenvalues below threshold      ... 0
Time for construction of square roots      ...    0.199 sec
Total time needed                          ...    0.660 sec

-------------------
DFT GRID GENERATION
-------------------

General Integration Accuracy     IntAcc      ...  4.670
Radial Grid Type                 RadialGrid  ... Gauss-Chebyshev
Angular Grid (max. acc.)         AngularGrid ... Lebedev-302
Angular grid pruning method      GridPruning ... 3 (G Style)
Weight generation scheme         WeightScheme... Becke
Basis function cutoff            BFCut       ...    1.0000e-11
Integration weight cutoff        WCut        ...    1.0000e-14
Grids for H and He will be reduced by one unit

# of grid points (after initial pruning)     ... 631882 (   1.5 sec)
# of grid points (after weights+screening)   ... 530231 (  36.4 sec)
nearest neighbour list constructed           ...    0.0 sec
Grid point re-assignment to atoms done       ...    0.1 sec
Grid point division into batches done        ...    1.8 sec
Reduced shell lists constructed in   10.7 sec

Total number of grid points                  ...   530231
Total number of batches                      ...     8349
Average number of points per batch           ...       63
Average number of grid points per atom       ...     4382
Average number of shells per batch           ...   114.11 (18.77%)
Average number of basis functions per batch  ...   226.81 (17.10%)
Average number of large shells per batch     ...    64.53 (56.56%)
Average number of large basis fcns per batch ...   130.82 (57.68%)
Maximum spatial batch extension              ...  21.42, 20.82, 26.10 au
Average spatial batch extension              ...   2.09,  2.08,  2.05 au

Time for grid setup =   48.623 sec

------------------------------
INITIAL GUESS: MODEL POTENTIAL
------------------------------
Loading Hartree-Fock densities                     ... done
Calculating cut-offs                               ... done
Setting up the integral package                    ... done
Initializing the effective Hamiltonian             ... done
Starting the Coulomb interaction                   ... done (  13.3 sec)
Reading the grid                                   ... done
Mapping shells                                     ... done
Starting the XC term evaluation                    ... done (  11.5 sec)
  promolecular density results
     # of electrons  =    589.977181029
     EX              =   -567.765151016
     EC              =    -20.581608035
     EX+EC           =   -588.346759051
Transforming the Hamiltonian                       ... done (   0.2 sec)
Diagonalizing the Hamiltonian                      ... done (   0.4 sec)
Back transforming the eigenvectors                 ... done (   0.1 sec)
Now organizing SCF variables                       ... done
                      ------------------
                      INITIAL GUESS DONE (  74.4 sec)
                      ------------------
--------------------
COSX GRID GENERATION
--------------------

General Integration Accuracy     IntAcc      ...  3.340
Radial Grid Type                 RadialGrid  ... Gauss-Chebyshev
Angular Grid (max. acc.)         AngularGrid ... Lebedev-50
Angular grid pruning method      GridPruning ... 3 (G Style)
Weight generation scheme         WeightScheme... Becke
Basis function cutoff            BFCut       ...    1.0000e-11
Integration weight cutoff        WCut        ...    1.0000e-14
Grids for H and He will be reduced by one unit

# of grid points (after initial pruning)     ...  59510 (   0.1 sec)
# of grid points (after weights+screening)   ...  52370 (   3.4 sec)
nearest neighbour list constructed           ...    0.0 sec
Grid point re-assignment to atoms done       ...    0.0 sec
Grid point division into batches done        ...    0.0 sec
Reduced shell lists constructed in    1.2 sec

Total number of grid points                  ...    52370
Total number of batches                      ...      879
Average number of points per batch           ...       59
Average number of grid points per atom       ...      433
Average number of shells per batch           ...   139.65 (22.97%)
Average number of basis functions per batch  ...   280.80 (21.18%)
Average number of large shells per batch     ...    79.26 (56.75%)
Average number of large basis fcns per batch ...   162.94 (58.03%)
Maximum spatial batch extension              ...  23.50, 26.91, 20.57 au
Average spatial batch extension              ...   4.29,  4.48,  4.14 au

Overlap Fitting                  UseSFitting ... on
Constructing numerical overlap ... done (      0.9 sec)
Inverting numerical overlap    ... done (      0.1 sec)
Obtaining analytic overlap     ... done (      0.0 sec)
Final contraction and storage  ... done (      0.1 sec)


General Integration Accuracy     IntAcc      ...  3.670
Radial Grid Type                 RadialGrid  ... Gauss-Chebyshev
Angular Grid (max. acc.)         AngularGrid ... Lebedev-50
Angular grid pruning method      GridPruning ... 3 (G Style)
Weight generation scheme         WeightScheme... Becke
Basis function cutoff            BFCut       ...    1.0000e-11
Integration weight cutoff        WCut        ...    1.0000e-14
Grids for H and He will be reduced by one unit

# of grid points (after initial pruning)     ...  74694 (   0.1 sec)
# of grid points (after weights+screening)   ...  65438 (   4.3 sec)
nearest neighbour list constructed           ...    0.0 sec
Grid point re-assignment to atoms done       ...    0.0 sec
Grid point division into batches done        ...    0.0 sec
Reduced shell lists constructed in    1.4 sec

Total number of grid points                  ...    65438
Total number of batches                      ...     1088
Average number of points per batch           ...       60
Average number of grid points per atom       ...      541
Average number of shells per batch           ...   136.60 (22.47%)
Average number of basis functions per batch  ...   273.93 (20.66%)
Average number of large shells per batch     ...    77.19 (56.50%)
Average number of large basis fcns per batch ...   158.31 (57.79%)
Maximum spatial batch extension              ...  20.51, 33.72, 22.03 au
Average spatial batch extension              ...   4.06,  4.08,  3.87 au

Overlap Fitting                  UseSFitting ... on
Constructing numerical overlap ... done (      1.0 sec)
Inverting numerical overlap    ... done (      0.1 sec)
Obtaining analytic overlap     ... done (      0.0 sec)
Final contraction and storage  ... done (      0.1 sec)


General Integration Accuracy     IntAcc      ...  4.010
Radial Grid Type                 RadialGrid  ... Gauss-Chebyshev
Angular Grid (max. acc.)         AngularGrid ... Lebedev-110
Angular grid pruning method      GridPruning ... 3 (G Style)
Weight generation scheme         WeightScheme... Becke
Basis function cutoff            BFCut       ...    1.0000e-11
Integration weight cutoff        WCut        ...    1.0000e-14
Grids for H and He will be reduced by one unit

# of grid points (after initial pruning)     ... 143532 (   0.2 sec)
# of grid points (after weights+screening)   ... 124645 (   8.2 sec)
nearest neighbour list constructed           ...    0.0 sec
Grid point re-assignment to atoms done       ...    0.0 sec
Grid point division into batches done        ...    0.1 sec
Reduced shell lists constructed in    2.6 sec

Total number of grid points                  ...   124645
Total number of batches                      ...     2010
Average number of points per batch           ...       62
Average number of grid points per atom       ...     1030
Average number of shells per batch           ...   128.81 (21.19%)
Average number of basis functions per batch  ...   258.08 (19.46%)
Average number of large shells per batch     ...    73.36 (56.95%)
Average number of large basis fcns per batch ...   150.30 (58.24%)
Maximum spatial batch extension              ...  21.17, 23.98, 20.40 au
Average spatial batch extension              ...   3.34,  3.39,  3.27 au

Overlap Fitting                  UseSFitting ... on
Constructing numerical overlap ... done (      1.7 sec)
Inverting numerical overlap    ... done (      0.1 sec)
Obtaining analytic overlap     ... done (      0.0 sec)
Final contraction and storage  ... done (      0.1 sec)

Time for X-Grid setup             =   25.614 sec
--------------
SCF ITERATIONS
--------------
ITER       Energy         Delta-E        Max-DP      RMS-DP      [F,P]     Damp
               ***  Starting incremental Fock matrix formation  ***
  0  -5806.6050352689   0.000000000000 0.08051616  0.00086623  0.2417490 0.7000
  1  -5807.2650819648  -0.660046695910 0.04961416  0.00060245  0.0991744 0.7000
                               ***Turning on DIIS***
  2  -5807.5402299446  -0.275147979792 0.06895840  0.00107899  0.0416857 0.0000
  3  -5807.9986371011  -0.458407156486 0.06727822  0.00045124  0.0521465 0.0000
  4  -5808.0824964182  -0.083859317092 0.01724258  0.00014270  0.0255278 0.0000
  5  -5808.0894564364  -0.006960018181 0.00787947  0.00005923  0.0082714 0.0000
  6  -5808.0906883700  -0.001231933629 0.00505198  0.00003505  0.0022009 0.0000
                      *** Initiating the SOSCF procedure ***
                           *** Shutting down DIIS ***
                      *** Re-Reading the Fockian *** 
                      *** Removing any level shift *** 
ITER      Energy       Delta-E        Grad      Rot      Max-DP    RMS-DP
  7  -5808.09115525  -0.0004668796  0.003102  0.003102  0.002850  0.000043
               *** Restarting incremental Fock matrix formation ***
  8  -5808.09139258  -0.0002373256  0.000820  0.005390  0.002459  0.000022
  9  -5808.09142933  -0.0000367591  0.000435  0.004920  0.001144  0.000015
 10  -5808.09146594  -0.0000366010  0.000111  0.000712  0.000901  0.000006
 11  -5808.09146639  -0.0000004579  0.000129  0.000346  0.000396  0.000003
 12  -5808.09146939  -0.0000030008  0.000043  0.000304  0.000213  0.000002
 13  -5808.09146947  -0.0000000710  0.000048  0.000186  0.000136  0.000001
 14  -5808.09146984  -0.0000003709  0.000007  0.000039  0.000046  0.000000
 15  -5808.09146977   0.0000000623  0.000006  0.000021  0.000027  0.000000
                  ***Gradient check signals convergence***
              ***Rediagonalizing the Fockian in SOSCF/NRSCF***

               *****************************************************
               *                     SUCCESS                       *
               *           SCF CONVERGED AFTER  16 CYCLES          *
               *****************************************************

Setting up the final grid:

General Integration Accuracy     IntAcc      ...  5.010
Radial Grid Type                 RadialGrid  ... Gauss-Chebyshev
Angular Grid (max. acc.)         AngularGrid ... Lebedev-434
Angular grid pruning method      GridPruning ... 3 (G Style)
Weight generation scheme         WeightScheme... Becke
Basis function cutoff            BFCut       ...    1.0000e-11
Integration weight cutoff        WCut        ...    1.0000e-14
Grids for H and He will be reduced by one unit

# of grid points (after initial pruning)     ... 1125200 (   2.4 sec)
# of grid points (after weights+screening)   ... 940447 (  64.4 sec)
nearest neighbour list constructed           ...    0.0 sec
Grid point re-assignment to atoms done       ...    0.1 sec
Grid point division into batches done        ...    6.0 sec
Reduced shell lists constructed in   20.4 sec

Total number of grid points                  ...   940447
Total number of batches                      ...    14758
Average number of points per batch           ...       63
Average number of grid points per atom       ...     7772
Average number of shells per batch           ...   109.97 (18.09%)
Average number of basis functions per batch  ...   217.85 (16.43%)
Average number of large shells per batch     ...    62.14 (56.51%)
Average number of large basis fcns per batch ...   125.53 (57.62%)
Maximum spatial batch extension              ...  21.95, 25.75, 22.80 au
Average spatial batch extension              ...   1.70,  1.70,  1.68 au

Final grid set up in   87.3 sec
Final integration                            ... done (  27.2 sec)
Change in XC energy                          ...    -0.000051705
Integrated number of electrons               ...   589.999655992
Previous integrated no of electrons          ...   589.999405372
Old exchange energy                            =   -155.655950938 Eh
New exchange energy                            =   -155.653163455 Eh
Exchange energy change after final integration =      0.002787484 Eh
Total energy after final integration           =  -5808.088734060 Eh
Final COS-X integration done in                =   558.123 sec

----------------
TOTAL SCF ENERGY
----------------

Total Energy       :        -5808.08873406 Eh         -158046.12936 eV

Components:
Nuclear Repulsion  :        13581.79060324 Eh          369579.31136 eV
Electronic Energy  :       -19389.87933730 Eh         -527625.44073 eV
One Electron Energy:       -35018.76729102 Eh         -952909.10295 eV
Two Electron Energy:        15628.88795372 Eh          425283.66222 eV

Virial components:
Potential Energy   :       -11578.53123962 Eh         -315067.85277 eV
Kinetic Energy     :         5770.44250556 Eh          157021.72341 eV
Virial Ratio       :            2.00652398


DFT components:
N(Alpha)           :      294.999827996084 electrons
N(Beta)            :      294.999827996084 electrons
N(Total)           :      589.999655992168 electrons
E(XC)              :     -441.752057820182 Eh       
DFET-embed. en.    :        0.000000000000 Eh       

---------------
SCF CONVERGENCE
---------------

  Last Energy change         ...   -6.5131e-08  Tolerance :   1.0000e-08
  Last MAX-Density change    ...    8.8818e-15  Tolerance :   1.0000e-07
  Last RMS-Density change    ...    3.3643e-17  Tolerance :   5.0000e-09
  Last Orbital Gradient      ...    1.2765e-06  Tolerance :   1.0000e-05
  Last Orbital Rotation      ...    9.9223e-06  Tolerance :   1.0000e-05

             **** THE GBW FILE WAS UPDATED (H2.gbw) ****
             **** DENSITY FILE WAS UPDATED (H2.scfp) ****
             **** ENERGY FILE WAS UPDATED (H2.en.tmp) ****
             **** THE GBW FILE WAS UPDATED (H2.gbw) ****
             **** DENSITY FILE WAS UPDATED (H2.scfp) ****
----------------
ORBITAL ENERGIES
----------------

  NO   OCC          E(Eh)            E(eV) 
   0   2.0000    -101.594413     -2764.5245 
   1   2.0000    -101.594306     -2764.5216 
   2   2.0000     -89.005901     -2421.9737 
   3   2.0000     -88.978209     -2421.2201 
   4   2.0000     -88.975018     -2421.1333 
   5   2.0000     -88.968857     -2420.9657 
   6   2.0000     -88.967614     -2420.9319 
   7   2.0000     -19.219996      -523.0027 
   8   2.0000     -19.216541      -522.9087 
   9   2.0000     -14.490259      -394.3000 
  10   2.0000     -14.489904      -394.2903 
  11   2.0000     -14.439297      -392.9133 
  12   2.0000     -14.439051      -392.9066 
  13   2.0000     -14.423665      -392.4879 
  14   2.0000     -14.421582      -392.4312 
  15   2.0000     -14.421572      -392.4309 
  16   2.0000     -14.418402      -392.3447 
  17   2.0000     -10.372633      -282.2537 
  18   2.0000     -10.368822      -282.1500 
  19   2.0000     -10.352327      -281.7011 
  20   2.0000     -10.352230      -281.6985 
  21   2.0000     -10.351648      -281.6827 
  22   2.0000     -10.350363      -281.6477 
  23   2.0000     -10.350009      -281.6381 
  24   2.0000     -10.348662      -281.6014 
  25   2.0000     -10.346505      -281.5427 
  26   2.0000     -10.345686      -281.5204 
  27   2.0000     -10.332559      -281.1632 
  28   2.0000     -10.331605      -281.1373 
  29   2.0000     -10.331025      -281.1215 
  30   2.0000     -10.330541      -281.1083 
  31   2.0000     -10.329954      -281.0923 
  32   2.0000     -10.329437      -281.0783 
  33   2.0000     -10.329353      -281.0760 
  34   2.0000     -10.327123      -281.0153 
  35   2.0000     -10.327023      -281.0126 
  36   2.0000     -10.326857      -281.0081 
  37   2.0000     -10.325555      -280.9726 
  38   2.0000     -10.325265      -280.9647 
  39   2.0000     -10.325194      -280.9628 
  40   2.0000     -10.321737      -280.8687 
  41   2.0000     -10.320938      -280.8470 
  42   2.0000     -10.319722      -280.8139 
  43   2.0000     -10.318588      -280.7831 
  44   2.0000     -10.318165      -280.7716 
  45   2.0000     -10.315460      -280.6979 
  46   2.0000     -10.315180      -280.6903 
  47   2.0000     -10.314820      -280.6805 
  48   2.0000     -10.314101      -280.6609 
  49   2.0000     -10.312406      -280.6148 
  50   2.0000     -10.310514      -280.5634 
  51   2.0000     -10.307428      -280.4794 
  52   2.0000     -10.306744      -280.4608 
  53   2.0000     -10.306556      -280.4557 
  54   2.0000     -10.306275      -280.4480 
  55   2.0000     -10.306186      -280.4456 
  56   2.0000     -10.305875      -280.4371 
  57   2.0000     -10.304679      -280.4046 
  58   2.0000     -10.298809      -280.2448 
  59   2.0000     -10.298426      -280.2344 
  60   2.0000     -10.298338      -280.2320 
  61   2.0000     -10.298109      -280.2258 
  62   2.0000     -10.297906      -280.2203 
  63   2.0000     -10.291000      -280.0324 
  64   2.0000     -10.289638      -279.9953 
  65   2.0000     -10.289514      -279.9919 
  66   2.0000     -10.283714      -279.8341 
  67   2.0000     -10.281761      -279.7809 
  68   2.0000     -10.280176      -279.7378 
  69   2.0000     -10.273942      -279.5682 
  70   2.0000     -10.272501      -279.5290 
  71   2.0000     -10.270499      -279.4745 
  72   2.0000     -10.267126      -279.3827 
  73   2.0000     -10.267005      -279.3794 
  74   2.0000     -10.261036      -279.2170 
  75   2.0000     -10.259454      -279.1739 
  76   2.0000     -10.259306      -279.1699 
  77   2.0000      -9.549162      -259.8459 
  78   2.0000      -9.548992      -259.8413 
  79   2.0000      -8.097676      -220.3490 
  80   2.0000      -8.071679      -219.6415 
  81   2.0000      -8.069203      -219.5742 
  82   2.0000      -8.062491      -219.3915 
  83   2.0000      -8.060962      -219.3499 
  84   2.0000      -7.319442      -199.1722 
  85   2.0000      -7.319303      -199.1684 
  86   2.0000      -7.309408      -198.8991 
  87   2.0000      -7.309222      -198.8941 
  88   2.0000      -7.308934      -198.8862 
  89   2.0000      -7.308769      -198.8817 
  90   2.0000      -6.069314      -165.1544 
  91   2.0000      -6.061895      -164.9525 
  92   2.0000      -6.058810      -164.8686 
  93   2.0000      -6.041442      -164.3960 
  94   2.0000      -6.038910      -164.3271 
  95   2.0000      -6.037348      -164.2846 
  96   2.0000      -6.034819      -164.2158 
  97   2.0000      -6.033116      -164.1694 
  98   2.0000      -6.032445      -164.1512 
  99   2.0000      -6.030955      -164.1106 
 100   2.0000      -6.030646      -164.1022 
 101   2.0000      -6.028429      -164.0419 
 102   2.0000      -6.026857      -163.9991 
 103   2.0000      -6.023391      -163.9048 
 104   2.0000      -6.021888      -163.8639 
 105   2.0000      -1.132750       -30.8237 
 106   2.0000      -1.128486       -30.7077 
 107   2.0000      -1.110571       -30.2202 
 108   2.0000      -1.101197       -29.9651 
 109   2.0000      -1.096487       -29.8369 
 110   2.0000      -1.016578       -27.6625 
 111   2.0000      -1.016328       -27.6557 
[...]
  10      3.86     321.3   106 -> 111      gap,J,K:    5.439     1.684     0.052
  11      4.20     295.3   105 -> 110      gap,J,K:    5.629     1.873     0.221
  12      4.26     291.3   107 -> 112      gap,J,K:    5.779     1.689     0.083
  13      4.27     290.1   108 -> 112      gap,J,K:    5.705     1.589     0.079
  14      4.36     284.6   104 -> 110      gap,J,K:    5.853     1.765     0.134
  15      4.41     281.4   108 -> 113      gap,J,K:    5.844     1.555     0.059
  16      4.41     281.1   103 -> 110      gap,J,K:    5.926     1.752     0.118
  17      4.46     277.8   107 -> 113      gap,J,K:    5.918     1.625     0.085
  18      4.48     276.9   105 -> 111      gap,J,K:    5.860     1.832     0.225
  19      4.54     273.2   109 -> 115      gap,J,K:    6.162     1.930     0.153
  20      4.55     272.4   108 -> 114      gap,J,K:    6.296     2.279     0.267
  21      4.58     270.4   107 -> 114      gap,J,K:    6.369     2.043     0.129
  22      4.62     268.1   104 -> 111      gap,J,K:    6.083     1.705     0.123
  23      4.62     268.1   106 -> 112      gap,J,K:    6.093     1.545     0.038
  24      4.63     267.7   102 -> 110      gap,J,K:    6.010     1.581     0.101

average / max PT2 energy lowering (eV):       0.045       0.085

CSF included by PT:                   218 
total number of CSF included:         254 
 
sTD-DFT procedure...
setting up A+B and A-B matrices...  done
estimated time (min):    0.001
calculating (A-B)^0.5 ... done
calculating (A+B)*(A-B)^0.5 ... done
calculating (A-B)^0.5 *(A+B)*(A-B)^0.5 ... done
diagonalizing ...using LAPACKE_ssyevr ...done

   40 roots found, lowest/highest eigenvalue :     2.039     4.991

excitation energies, transition moments and amplitudes

molecular weight: 1140.272
state   eV        nm        fL         fV        Rl        RV
   0   2.039     608.1   1.634963   1.882385  -787.719078  -835.545199     0.87 ( 109-> 110)    0.06 ( 107-> 111)    0.03 ( 108-> 111)
   1   2.392     518.3   0.655831   0.759049  620.887739  676.703020     0.79 ( 109-> 111)    0.10 ( 107-> 110)    0.06 ( 108-> 110)
   2   2.970     417.4   0.058222   0.050392  -112.833435  -107.024860     0.46 ( 108-> 110)    0.12 ( 106-> 111)    0.10 ( 106-> 110)
   3   2.992     414.4   0.123478   0.114961  61.703466  62.632599     0.65 ( 109-> 112)    0.07 ( 107-> 112)    0.04 ( 108-> 110)
   4   3.108     398.9   0.101118   0.089263  -43.148713  -39.968272     0.34 ( 106-> 110)    0.27 ( 108-> 111)    0.09 ( 107-> 110)
   5   3.118     397.6   0.201357   0.190535  75.261343  84.102143     0.65 ( 109-> 113)    0.09 ( 109-> 114)    0.07 ( 107-> 112)
   6   3.217     385.4   0.123775   0.128237  127.755746  128.538444     0.48 ( 107-> 110)    0.15 ( 108-> 110)    0.14 ( 109-> 111)
   7   3.299     375.8   0.067871   0.067700   6.051340   7.464819     0.74 ( 109-> 114)    0.06 ( 109-> 113)    0.04 ( 107-> 113)
   8   3.426     361.9   0.038889   0.033651  60.055294  50.625061     0.32 ( 107-> 111)    0.22 ( 105-> 110)    0.14 ( 108-> 111)
   9   3.618     342.7   0.038682   0.037661  62.808821  55.077809     0.30 ( 106-> 111)    0.13 ( 104-> 110)    0.13 ( 108-> 111)
  10   3.676     337.3   0.166525   0.155160  -45.978168  -53.043926     0.18 ( 103-> 110)    0.09 (  98-> 110)    0.07 ( 105-> 110)
  11   3.743     331.2   0.009195   0.009373  -26.115164  -27.407214     0.28 ( 106-> 110)    0.20 ( 108-> 111)    0.10 ( 106-> 111)
  12   3.787     327.4   0.103269   0.100817  -92.839531  -101.032678     0.17 ( 107-> 111)    0.12 (  97-> 112)    0.11 (  97-> 110)
  13   3.824     324.2   0.087173   0.079595  96.955832  84.056902     0.29 ( 102-> 111)    0.25 ( 102-> 110)    0.06 ( 104-> 110)
  14   3.866     320.7   0.039280   0.035363  -69.395459  -65.872286     0.17 ( 101-> 110)    0.16 (  98-> 110)    0.12 ( 101-> 111)
  15   3.940     314.7   0.104796   0.095144   5.665151  -1.417072     0.32 (  98-> 113)    0.07 ( 101-> 113)    0.05 ( 107-> 112)
  16   3.959     313.2   0.012400   0.012483  41.045253  36.316604     0.11 (  98-> 113)    0.10 ( 107-> 112)    0.10 (  97-> 112)
  17   4.041     306.8   0.051600   0.045075  -35.223223  -26.727786     0.29 ( 108-> 112)    0.20 ( 106-> 112)    0.06 ( 104-> 111)
  18   4.103     302.2   0.017234   0.015036  -15.311843  -9.571740     0.20 ( 108-> 112)    0.14 ( 106-> 113)    0.08 ( 105-> 110)
  19   4.133     300.0   0.189921   0.160652  155.419102  136.343944     0.32 ( 108-> 114)    0.13 ( 107-> 114)    0.11 ( 108-> 113)
  20   4.171     297.3   0.009045   0.008633  53.453787  49.720419     0.26 ( 105-> 110)    0.09 ( 101-> 111)    0.08 (  98-> 110)
  21   4.182     296.5   0.066323   0.060254  147.433173  137.840900     0.12 ( 107-> 112)    0.12 ( 108-> 113)    0.07 ( 109-> 113)
  22   4.224     293.5   0.087628   0.080259  -45.786617  -50.406821     0.17 ( 109-> 115)    0.10 (  97-> 112)    0.10 ( 108-> 113)
  23   4.254     291.5   0.041643   0.037091  111.126100  100.851300     0.13 ( 105-> 111)    0.13 ( 104-> 110)    0.12 ( 101-> 110)
  24   4.271     290.3   0.039252   0.034561  -52.790061  -52.454744     0.14 ( 106-> 111)    0.12 ( 103-> 110)    0.12 ( 101-> 110)
  25   4.300     288.3   0.145878   0.123802  87.338958  87.341104     0.17 ( 107-> 113)    0.12 ( 108-> 113)    0.11 ( 106-> 114)
  26   4.378     283.2   0.260003   0.237790  71.944012  68.399320     0.47 ( 109-> 115)    0.05 ( 107-> 113)    0.04 ( 109-> 114)
  27   4.439     279.3   0.327337   0.285508  -946.604812  -881.995323     0.12 ( 107-> 113)    0.09 ( 100-> 110)    0.08 (  97-> 110)
  28   4.493     275.9   0.008475   0.007487  -10.432839  -7.775353     0.43 ( 106-> 114)    0.08 (  99-> 110)    0.07 ( 106-> 112)
  29   4.535     273.4   0.007421   0.005307  60.687134  57.267393     0.53 ( 107-> 114)    0.11 ( 109-> 116)    0.10 ( 108-> 114)
  30   4.553     272.3   0.054005   0.045913  64.240534  61.163588     0.28 ( 105-> 111)    0.08 (  96-> 110)    0.05 ( 106-> 114)
  31   4.640     267.2   0.419830   0.360759  1124.960195  1023.528703     0.39 ( 109-> 116)    0.06 ( 105-> 113)    0.05 ( 102-> 111)
  32   4.701     263.7   0.257358   0.218367  -1287.957056  -1209.000430     0.21 ( 102-> 112)    0.13 ( 105-> 112)    0.11 ( 104-> 113)
  33   4.722     262.6   0.161722   0.131900  180.936418  166.918323     0.11 ( 109-> 116)    0.11 ( 104-> 112)    0.10 ( 106-> 113)
  34   4.768     260.0   0.392652   0.317166  302.280202  281.144501     0.13 ( 103-> 112)    0.12 ( 109-> 116)    0.09 ( 106-> 112)
  35   4.796     258.5   0.068915   0.055975  -41.822319  -31.892695     0.17 ( 106-> 112)    0.08 ( 103-> 113)    0.07 ( 108-> 113)
  36   4.830     256.7   0.008096   0.006963  -4.452319  -6.195106     0.23 ( 104-> 111)    0.20 (  99-> 110)    0.07 ( 100-> 110)
  37   4.862     255.0   0.004415   0.003233  -20.726403  -17.473426     0.21 ( 106-> 113)    0.12 ( 108-> 113)    0.09 (  96-> 110)
  38   4.940     251.0   0.094122   0.071105  -6.826582  -13.813714     0.19 ( 102-> 112)    0.13 ( 100-> 112)    0.12 ( 101-> 112)
  39   4.991     248.4   0.068776   0.055654  -65.267096  -56.405063     0.15 ( 101-> 113)    0.07 ( 103-> 110)    0.07 ( 106-> 113)

-----------------------------------------------------------------------------
         ABSORPTION SPECTRUM VIA TRANSITION ELECTRIC DIPOLE MOMENTS
-----------------------------------------------------------------------------
State   Energy  Wavelength   fosc         T2         TX        TY        TZ  
        (cm-1)    (nm)                  (au**2)     (au)      (au)      (au) 
-----------------------------------------------------------------------------
   0   16445.5    608.1   1.634962525  32.72928  -4.05155  -3.96286   0.78101
   1   19295.7    518.3   0.655831191  11.18942   0.39626  -1.60026   2.91060
   2   23955.7    417.4   0.058222364   0.80012   0.70982   0.11730   0.53153
   3   24133.7    414.4   0.123477601   1.68438   0.48985   1.09932  -0.48572
   4   25066.4    398.9   0.101118061   1.32805  -0.79553  -0.75922  -0.34462
   5   25148.4    397.6   0.201356835   2.63592   1.60970   0.20761  -0.04092
   6   25944.5    385.4   0.123775070   1.57060  -0.06472   0.28096  -1.21962
   7   26610.7    375.8   0.067870627   0.83966   0.34547  -0.28364   0.79991
   8   27635.0    361.9   0.038889063   0.46328   0.00648  -0.03769   0.67957
   9   29182.0    342.7   0.038681915   0.43638  -0.27785  -0.26137   0.53932
  10   29648.5    337.3   0.166524970   1.84906  -1.32035   0.16230  -0.28179
  11   30192.2    331.2   0.009194813   0.10026   0.15028   0.24890   0.12540
  12   30540.7    327.4   0.103269432   1.11319  -0.11740  -0.84729   0.61766
  13   30841.9    324.2   0.087173176   0.93050  -0.19190   0.67746   0.65934
  14   31179.6    320.7   0.039279610   0.41474   0.61631  -0.03264   0.18395
  15   31779.1    314.7   0.104796141   1.08562   0.99395  -0.30199  -0.08055
  16   31931.4    313.2   0.012400240   0.12785  -0.18682  -0.27169   0.13831
  17   32596.0    306.8   0.051599647   0.52114   0.17718   0.36008   0.60008
  18   33089.4    302.2   0.017234220   0.17147  -0.12344   0.25361   0.30317
  19   33337.8    300.0   0.189920641   1.87547   0.80783  -0.43958   1.01472
  20   33639.0    297.3   0.009044696   0.08852   0.19638  -0.20280  -0.09395
  21   33727.1    296.5   0.066323500   0.64739   0.57967  -0.39237  -0.39675
  22   34070.1    293.5   0.087627983   0.84673  -0.19274   0.11747   0.89207
  23   34308.1    291.5   0.041642762   0.39959  -0.21245   0.43082   0.41091
  24   34447.1    290.3   0.039251809   0.37513  -0.40193   0.17050  -0.42956
  25   34685.8    288.3   0.145878164   1.38457  -1.03901  -0.52306   0.17728
  26   35313.3    283.2   0.260002804   2.42390   0.93767   1.01064  -0.72338
  27   35799.4    279.3   0.327336927   3.01020  -1.29098  -1.04877  -0.49361
  28   36241.0    275.9   0.008475398   0.07699   0.07222   0.11710  -0.24096
  29   36573.3    273.4   0.007421067   0.06680   0.08840  -0.19286  -0.14762
  30   36720.9    272.3   0.054005317   0.48417   0.34005   0.59361  -0.12713
  31   37425.8    267.2   0.419830421   3.69300   1.59332  -1.07346  -0.04494
  32   37919.5    263.7   0.257357597   2.23435  -0.36013  -0.40998  -1.39161
  33   38084.4    262.6   0.161721870   1.39797  -0.71119   0.38607   0.86205
  34   38456.6    260.0   0.392652122   3.36135  -0.63957   0.08573   1.71608
  35   38680.1    258.5   0.068915461   0.58655   0.03847  -0.25784  -0.72013
  36   38952.8    256.7   0.008095825   0.06842  -0.18287  -0.18372   0.03503
  37   39213.5    255.0   0.004414832   0.03706   0.09441  -0.14639   0.08197
  38   39845.3    251.0   0.094121665   0.77766   0.27571   0.75463  -0.36356
  39   40251.2    248.4   0.068775622   0.56251   0.11722   0.04147   0.73963

-----------------------------------------------------------------------------
         ABSORPTION SPECTRUM VIA TRANSITION VELOCITY DIPOLE MOMENTS
-----------------------------------------------------------------------------
State   Energy  Wavelength   fosc         P2         PX        PY        PZ  
        (cm-1)    (nm)                  (au**2)     (au)      (au)      (au) 
-----------------------------------------------------------------------------
   0   16445.5    608.1   1.882385214   0.21157  -0.32674  -0.31817   0.05983
   1   19295.7    518.3   0.759048634   0.10010   0.04089  -0.14732   0.27699
   2   23955.7    417.4   0.050391775   0.00825   0.07401   0.01505   0.05047
   3   24133.7    414.4   0.114960661   0.01896   0.05327   0.11583  -0.05204
   4   25066.4    398.9   0.089262961   0.01529  -0.08443  -0.08137  -0.03928
   5   25148.4    397.6   0.190535163   0.03275   0.17965   0.02167  -0.00241
   6   25944.5    385.4   0.128237310   0.02274  -0.00924   0.03240  -0.14698
   7   26610.7    375.8   0.067699720   0.01231   0.04121  -0.03441   0.09711
   8   27635.0    361.9   0.033650895   0.00636   0.00947   0.00216   0.07913
   9   29182.0    342.7   0.037660726   0.00751  -0.03385  -0.03522   0.07159
  10   29648.5    337.3   0.155159584   0.03144  -0.17295   0.01996  -0.03360
  11   30192.2    331.2   0.009373254   0.00193   0.02126   0.03352   0.01894
  12   30540.7    327.4   0.100816739   0.02104  -0.01751  -0.11854   0.08177
  13   30841.9    324.2   0.079595360   0.01678  -0.02677   0.08897   0.09025
  14   31179.6    320.7   0.035363294   0.00754   0.08250  -0.00621   0.02630
  15   31779.1    314.7   0.095143995   0.02066   0.13694  -0.04120  -0.01464
  16   31931.4    313.2   0.012483245   0.00272  -0.03059  -0.03854   0.01741
  17   32596.0    306.8   0.045074711   0.01004   0.02284   0.05045   0.08351
  18   33089.4    302.2   0.015035744   0.00340  -0.02076   0.03489   0.04186
  19   33337.8    300.0   0.160652268   0.03660   0.11442  -0.06096   0.14070
  20   33639.0    297.3   0.008632516   0.00198   0.02776  -0.03159  -0.01471
  21   33727.1    296.5   0.060253950   0.01389   0.08469  -0.05695  -0.05894
  22   34070.1    293.5   0.080258652   0.01869  -0.02743   0.01737   0.13279
  23   34308.1    291.5   0.037091322   0.00870  -0.03081   0.06281   0.06166
  24   34447.1    290.3   0.034561436   0.00814  -0.06019   0.02564  -0.06210
  25   34685.8    288.3   0.123802319   0.02935  -0.15260  -0.07430   0.02326
  26   35313.3    283.2   0.237790428   0.05739   0.14306   0.15539  -0.11304
  27   35799.4    279.3   0.285507765   0.06986  -0.19639  -0.16031  -0.07473
  28   36241.0    275.9   0.007486583   0.00185   0.01218   0.01751  -0.03741
  29   36573.3    273.4   0.005307377   0.00133   0.01510  -0.02873  -0.01653
  30   36720.9    272.3   0.045912914   0.01152   0.05335   0.09062  -0.02154
  31   37425.8    267.2   0.360759036   0.09228   0.25269  -0.16830  -0.00995
  32   37919.5    263.7   0.218367071   0.05659  -0.05913  -0.06496  -0.22108
  33   38084.4    262.6   0.131899768   0.03433  -0.11195   0.06118   0.13438
  34   38456.6    260.0   0.317166433   0.08336  -0.10071   0.01589   0.27012
  35   38680.1    258.5   0.055975345   0.01480   0.00838  -0.04188  -0.11390
  36   38952.8    256.7   0.006963212   0.00185  -0.02887  -0.03139   0.00593
  37   39213.5    255.0   0.003232970   0.00087   0.01472  -0.02202   0.01285
  38   39845.3    251.0   0.071104813   0.01936   0.04199   0.12051  -0.05548
  39   40251.2    248.4   0.055654107   0.01531   0.01669   0.00646   0.12243

-------------------------------------------------------------------
                             CD SPECTRUM
-------------------------------------------------------------------
State   Energy Wavelength       R         MX        MY        MZ   
        (cm-1)   (nm)       (1e40*cgs)   (au)      (au)      (au)  
-------------------------------------------------------------------
   0   16445.5    608.1    -787.71908   3.05744  -4.08688  -0.59750
   1   19295.7    518.3    620.88774   3.63366  -2.67462  -2.87018
   2   23955.7    417.4    -112.83344   1.17071  -0.92881  -0.45786
   3   24133.7    414.4     61.70347  -0.19363   0.51900   1.51828
   4   25066.4    398.9    -43.14871  -0.36192   0.14755  -0.02077
   5   25148.4    397.6     75.26134  -0.33370   0.66114  -1.96997
   6   25944.5    385.4    127.75575  -1.83065   1.22270   0.82320
   7   26610.7    375.8      6.05134   0.98449  -0.01330  -0.46200
   8   27635.0    361.9     60.05529  -0.33837   0.85100  -0.32447
   9   29182.0    342.7     62.80882   1.19828  -1.27452  -0.49440
  10   29648.5    337.3    -45.97817  -0.47014  -0.25810   1.36202
  11   30192.2    331.2    -26.11516   0.17692   0.11918   0.43491
  12   30540.7    327.4    -92.83953   1.59562  -1.67263  -1.35354
  13   30841.9    324.2     96.95583   3.33448  -2.09281   2.49698
  14   31179.6    320.7    -69.39546   0.50512  -0.29103  -0.14357
  15   31779.1    314.7      5.66515  -0.12273  -0.00918  -1.18169
  16   31931.4    313.2     41.04525   0.17557  -0.17313  -1.36194
  17   32596.0    306.8    -35.22322   1.89735  -1.51035   0.59509
  18   33089.4    302.2    -15.31184   0.78023  -0.38078   0.85045
  19   33337.8    300.0    155.41910   1.46960  -1.34909  -2.40415
  20   33639.0    297.3     53.45379  -1.02686   0.60195  -1.03210
  21   33727.1    296.5    147.43317  -1.24791   0.94998  -1.18632
  22   34070.1    293.5    -45.78662   3.22673  -2.01895   1.18074
  23   34308.1    291.5    111.12610   1.40456  -1.28711   0.92837
  24   34447.1    290.3    -52.79006  -0.97307   0.53324   0.60078
  25   34685.8    288.3     87.33896   0.94758  -0.96637   0.61235
  26   35313.3    283.2     71.94401  -1.15008   1.16949   0.56506
  27   35799.4    279.3    -946.60481  -1.80763  -0.42433  -2.50631
  28   36241.0    275.9    -10.43284  -0.97284   0.72636  -0.12226
  29   36573.3    273.4     60.68713  -0.74905   1.08775  -0.12564
  30   36720.9    272.3     64.24053   0.23494  -0.37799   1.00715
  31   37425.8    267.2    1124.96020  -2.48183   0.97747  -5.14467
  32   37919.5    263.7    -1287.95706  -8.88617   6.28950  -3.47967
  33   38084.4    262.6    180.93642   2.25256  -0.78342   1.31879
  34   38456.6    260.0    302.28020   5.69215  -2.89204   1.51865
  35   38680.1    258.5    -41.82232  -1.57069   0.56158  -0.53134
  36   38952.8    256.7     -4.45232   0.61499  -0.63622   0.41311
  37   39213.5    255.0    -20.72640   0.30301  -0.55011  -0.25878
  38   39845.3    251.0     -6.82658  -1.39594   1.14010   1.22815
  39   40251.2    248.4    -65.26710   0.66317   0.36465   0.24880

sTD-DFT done

Total run time:        5.734 sec

           *** ORCA-CIS/TD-DFT FINISHED WITHOUT ERROR ***

-------------------------   --------------------
FINAL SINGLE POINT ENERGY     -5808.088734059994
-------------------------   --------------------


                            ***************************************
                            *     ORCA property calculations      *
                            ***************************************

                                    ---------------------
                                    Active property flags
                                    ---------------------
   (+) Dipole Moment


------------------------------------------------------------------------------
                       ORCA ELECTRIC PROPERTIES CALCULATION
------------------------------------------------------------------------------

Dipole Moment Calculation                       ... on
Quadrupole Moment Calculation                   ... off
Polarizability Calculation                      ... off
GBWName                                         ... H2.gbw
Electron density file                           ... H2.scfp
The origin for moment calculation is the CENTER OF MASS  = (-11.493672, -15.590368 -0.248987)

-------------
DIPOLE MOMENT
-------------
                                X             Y             Z
Electronic contribution:     -6.57976     -26.68152       7.06715
Nuclear contribution   :      8.02763      25.95343      -9.09478
                        -----------------------------------------
Total Dipole Moment    :      1.44787      -0.72808      -2.02763
                        -----------------------------------------
Magnitude (a.u.)       :      2.59571
Magnitude (Debye)      :      6.59778



--------------------
Rotational spectrum 
--------------------
 
Rotational constants in cm-1:     0.001274     0.000273     0.000245 
Rotational constants in MHz :    38.203673     8.176733     7.346980 

 Dipole components along the rotational axes: 
x,y,z [a.u.] :    -0.860548    -0.711682    -2.343222 
x,y,z [Debye]:    -2.187339    -1.808951    -5.955998 

 

Timings for individual modules:

Sum of individual times         ...     5040.115 sec (=  84.002 min)
GTO integral calculation        ...        4.705 sec (=   0.078 min)   0.1 %
SCF iterations                  ...     5029.609 sec (=  83.827 min)  99.8 %
CIS module                      ...        5.802 sec (=   0.097 min)   0.1 %
                             ****ORCA TERMINATED NORMALLY****
TOTAL RUN TIME: 0 days 1 hours 24 minutes 0 seconds 728 msec
