
                                 *****************
                                 * O   R   C   A *
                                 *****************

           --- An Ab Initio, DFT and Semiempirical electronic structure package ---

                  #######################################################
                  #                        -***-                        #
                  #          Department of theory and spectroscopy      #
                  #               Directorship: Frank Neese             #
                  #        Max Planck Institute fuer Kohlenforschung    #
                  #                Kaiser Wilhelm Platz 1               #
                  #                 D-45470 Muelheim/Ruhr               #
                  #                      Germany                        #
                  #                                                     #
                  #                  All rights reserved                #
                  #                        -***-                        #
                  #######################################################


                         Program Version 4.2.0 -  RELEASE  -


 With contributions from (in alphabetic order):
   Daniel Aravena         : Magnetic Suceptibility
   Michael Atanasov       : Ab Initio Ligand Field Theory (pilot matlab implementation)
   Alexander A. Auer      : GIAO ZORA, VPT2
   Ute Becker             : Parallelization
   Giovanni Bistoni       : ED, misc. LED, open-shell LED, HFLED
   Martin Brehm           : Molecular dynamics
   Dmytro Bykov           : SCF Hessian
   Vijay G. Chilkuri      : MRCI spin determinant printing, contributions to CSF-ICE
   Dipayan Datta          : RHF DLPNO-CCSD density
   Achintya Kumar Dutta   : EOM-CC, STEOM-CC
   Dmitry Ganyushin       : Spin-Orbit,Spin-Spin,Magnetic field MRCI
   Miquel Garcia          : C-PCM Hessian, Gaussian charge scheme
   Yang Guo               : DLPNO-NEVPT2, CIM, IAO-localization
   Andreas Hansen         : Spin unrestricted coupled pair/coupled cluster methods
   Benjamin Helmich-Paris : CASSCF linear response (MC-RPA)
   Lee Huntington         : MR-EOM, pCC
   Robert Izsak           : Overlap fitted RIJCOSX, COSX-SCS-MP3, EOM
   Christian Kollmar      : KDIIS, OOCD, Brueckner-CCSD(T), CCSD density
   Simone Kossmann        : Meta GGA functionals, TD-DFT gradient, OOMP2, MP2 Hessian
   Martin Krupicka        : AUTO-CI
   Lucas Lang             : DCDCAS
   Dagmar Lenk            : GEPOL surface, SMD
   Dimitrios Liakos       : Extrapolation schemes; Compound Job, initial MDCI parallelization
   Dimitrios Manganas     : Further ROCIS development; embedding schemes
   Dimitrios Pantazis     : SARC Basis sets
   Taras Petrenko         : DFT Hessian,TD-DFT gradient, ASA, ECA, R-Raman, ABS, FL, XAS/XES, NRVS
   Peter Pinski           : DLPNO-MP2, DLPNO-MP2 Gradient
   Christoph Reimann      : Effective Core Potentials
   Marius Retegan         : Local ZFS, SOC
   Christoph Riplinger    : Optimizer, TS searches, QM/MM, DLPNO-CCSD(T), (RO)-DLPNO pert. Triples
   Tobias Risthaus        : Range-separated hybrids, TD-DFT gradient, RPA, STAB
   Michael Roemelt        : Original ROCIS implementation
   Masaaki Saitow         : Open-shell DLPNO-CCSD energy and density
   Barbara Sandhoefer     : DKH picture change effects
   Avijit Sen             : IP-ROCIS
   Kantharuban Sivalingam : CASSCF convergence, NEVPT2, FIC-MRCI
   Bernardo de Souza      : ESD, SOC TD-DFT
   Georgi Stoychev        : AutoAux, RI-MP2 NMR
   Willem Van den Heuvel  : Paramagnetic NMR
   Boris Wezisla          : Elementary symmetry handling
   Frank Wennmohs         : Technical directorship


 We gratefully acknowledge several colleagues who have allowed us to
 interface, adapt or use parts of their codes:
   Stefan Grimme, W. Hujo, H. Kruse,             : VdW corrections, initial TS optimization,
                  C. Bannwarth                     DFT functionals, gCP, sTDA/sTD-DF
   Ed Valeev, F. Pavosevic, A. Kumar             : LibInt (2-el integral package), F12 methods
   Garnet Chan, S. Sharma, J. Yang, R. Olivares  : DMRG
   Ulf Ekstrom                                   : XCFun DFT Library
   Mihaly Kallay                                 : mrcc  (arbitrary order and MRCC methods)
   Andreas Klamt, Michael Diedenhofen            : otool_cosmo (COSMO solvation model)
   Jiri Pittner, Ondrej Demel                    : Mk-CCSD
   Frank Weinhold                                : gennbo (NPA and NBO analysis)
   Christopher J. Cramer and Donald G. Truhlar   : smd solvation model
   Lars Goerigk                                  : TD-DFT with DH, B97 family of functionals
   V. Asgeirsson, H. Jonsson                     : NEB implementation
   FAccTs GmbH                                   : IRC, NEB, NEB-TS, Multilevel, MM, QM/MM, CI optimization
   S Lehtola, MJT Oliveira, MAL Marques          : LibXC Library


 Your calculation uses the libint2 library for the computation of 2-el integrals
 For citations please refer to: http://libint.valeyev.net

 Your ORCA version has been built with support for libXC version: 4.2.3
 For citations please refer to: https://tddft.org/programs/libxc/

 This ORCA versions uses:
   CBLAS   interface :  Fast vector & matrix operations
   LAPACKE interface :  Fast linear algebra routines
   SCALAPACK package :  Parallel linear algebra routines


XCFun DFT library Copyright 2009-2010 Ulf Ekstrom and contributors.
See http://admol.org/xcfun for more information. This is free soft-
ware; see the source code for copying conditions. There is ABSOLUTELY
NO WARRANTY; not even for MERCHANTABILITY or FITNESS FOR A PARTICULAR
PURPOSE. For details see the documentation. Scientific users of this 
library should cite U. Ekstrom, L. Visscher, R. Bast, A. J. Thorvald-
sen and K. Ruud; J.Chem.Theor.Comp. 2010, DOI: 10.1021/ct100117s
XCFun Version 0.99 
----- Orbital basis set information -----
Your calculation utilizes the basis: def2-SVP
   F. Weigend and R. Ahlrichs, Phys. Chem. Chem. Phys. 7, 3297 (2005).

----- AuxJ basis set information -----
Your calculation utilizes the auxiliary basis: def2/J
   F. Weigend, Phys. Chem. Chem. Phys. 8, 1057 (2006).

================================================================================
                                        WARNINGS
                       Please study these warnings very carefully!
================================================================================

INFO   : Checking CIS options ...

WARNING: CIS/ROCIS methods need fully converged wavefunctions
  ===> : Setting SCFConvForced true
         You can overwrite this default with %scf ConvForced false 


INFO   : the flag for use of LIBINT has been found!

================================================================================
                                       INPUT FILE
================================================================================
NAME = H2.inp
|  1> # ORCA input file
|  2> # H2.out
|  3> ! CAM-B3LYP def2-SVP def2/J RIJCOSX Grid4 TightSCF
|  4> %maxcore 5000
|  5> %tddft
|  6>     Mode sTDDFT
|  7>     Ethresh 5.0
|  8>     maxcore 5000
|  9> end
| 10> * xyz 0 1
| 11>    C        1.75640        -1.75825        -1.75321
| 12>    O        2.27973        -1.32069        -2.75288
| 13>    C        2.38931        -2.06271        -0.45189
| 14>    C        3.71959        -1.98277        -0.08604
| 15>    C        4.07804        -2.35402         1.20040
| 16>    C        3.10716        -2.79808         2.09140
| 17>   Cl        3.57918        -3.27108         3.67900
| 18>    C        1.76213        -2.87260         1.74206
| 19>    C        1.40829        -2.49761         0.45868
| 20>    C        0.10028        -2.41408        -0.19024
| 21>    C       -1.10195        -2.29907         0.45867
| 22>    C       -2.27948        -1.87127        -0.18990
| 23>    N       -3.23661        -1.46832        -0.67944
| 24>    C       -1.28077        -2.50724         1.83971
| 25>    N       -1.49237        -2.70020         2.95154
| 26>    C        0.33599        -2.16105        -1.59249
| 27>    C       -0.46150        -2.31340        -2.68873
| 28>    C       -1.65158        -3.05611        -2.81961
| 29>    S       -2.02732        -4.39309        -1.73011
| 30>    C       -3.50031        -4.69919        -2.57272
| 31>    C       -3.66072        -3.81789        -3.65081
| 32>    C       -2.61516        -2.90522        -3.81098
| 33>    C       -2.60929        -1.82432        -4.83732
| 34>    C       -3.10663        -0.51143        -4.22694
| 35>    S       -5.14755        -4.07116        -4.53579
| 36>    C       -5.54631        -5.34904        -3.44398
| 37>    C       -4.58273        -5.57308        -2.45292
| 38>    N       -4.98471        -6.58627        -1.62714
| 39>    C       -4.02602        -7.18107        -0.72814
| 40>    C       -6.21935        -7.03254        -2.06799
| 41>    C       -6.57168        -6.27820        -3.22861
| 42>    C       -7.72743        -6.55448        -3.99103
| 43>    N       -8.15052        -5.96219        -5.09673
| 44>    S       -9.49780        -6.70971        -5.59386
| 45>    N       -9.59226        -7.81674        -4.41640
| 46>    C       -8.57176        -7.63879        -3.59217
| 47>    C       -8.27148        -8.32820        -2.39723
| 48>    C       -7.13573        -8.01034        -1.59171
| 49>    N       -7.20055        -8.77778        -0.44125
| 50>    C       -6.50077        -8.66452         0.81519
| 51>    C       -6.74062        -7.32395         1.53167
| 52>    C       -8.32228        -9.55667        -0.51481
| 53>    C       -8.99533        -9.31573        -1.71788
| 54>    S      -10.44926       -10.23017        -1.90272
| 55>    C      -10.16440       -10.95628        -0.33591
| 56>    C       -8.99648       -10.48722         0.28177
| 57>    S       -8.81177       -11.16875         1.85216
| 58>    C      -10.27746       -12.13011         1.63954
| 59>    C      -10.89608       -11.88294         0.41885
| 60>    C      -12.25083       -12.35682         0.00255
| 61>    C      -12.21484       -13.13914        -1.31027
| 62>    C      -10.69301       -12.88508         2.75843
| 63>    C      -11.34526       -14.08737         2.74110
| 64>    C      -11.98010       -14.73701         3.86570
| 65>    C      -12.27732       -14.16366         5.07483
| 66>    C      -12.00673       -12.82099         5.41278
| 67>    N      -11.83786       -11.73548         5.74708
| 68>    C      -12.91546       -14.83699         6.13705
| 69>    N      -13.42348       -15.33000         7.04063
| 70>    C      -12.33681       -16.09259         3.44854
| 71>    C      -12.96121       -17.12145         4.13262
| 72>    C      -13.18221       -18.31540         3.45251
| 73>   Cl      -13.96122       -19.60871         4.28239
| 74>    C      -12.79359       -18.49643         2.12984
| 75>    C      -12.16029       -17.46799         1.45044
| 76>    C      -11.94235       -16.27414         2.11135
| 77>    C      -11.28818       -15.04782         1.61346
| 78>    O      -10.71212       -14.91188         0.55543
| 79>    C       -3.54087        -8.56611        -1.19009
| 80>    C       -2.82537        -8.48528        -2.54992
| 81>    C       -2.61706        -9.15027        -0.11089
| 82>    C       -2.46007       -10.66156        -0.23061
| 83>    C       -3.73135        -8.78649        -3.73936
| 84>    C       -8.22130        -7.14138         1.90507
| 85>    C       -9.03510        -6.39432         0.85343
| 86>    C       -5.84768        -7.26555         2.78086
| 87>    C       -5.62945        -5.84146         3.27828
| 88>    H        4.45678        -1.63628        -0.79347
| 89>    H        5.10725        -2.30353         1.51874
| 90>    H        1.03498        -3.22228         2.45692
| 91>    H       -0.08221        -1.86056        -3.60012
| 92>    H       -3.26809        -2.11765        -5.65690
| 93>    H       -1.60099        -1.68393        -5.23213
| 94>    H       -4.11183        -0.63651        -3.83310
| 95>    H       -3.12071         0.26937        -4.98249
| 96>    H       -2.45829        -0.20149        -3.41088
| 97>    H       -4.43126        -7.22354         0.28163
| 98>    H       -3.16789        -6.50406        -0.69510
| 99>    H       -5.43663        -8.84621         0.66631
|100>    H       -6.87320        -9.47074         1.45310
|101>    H       -6.45554        -6.50763         0.85890
|102>    H      -12.88189       -11.47191        -0.13133
|103>    H      -12.68906       -12.97049         0.79005
|104>    H      -11.84697       -12.51338        -2.11893
|105>    H      -13.21621       -13.47933        -1.56134
|106>    H      -11.56374       -14.00260        -1.21071
|107>    H      -10.42223       -12.46304         3.71984
|108>    H      -13.27143       -17.02375         5.15984
|109>    H      -12.98758       -19.43894         1.64285
|110>    H      -11.84537       -17.58532         0.42516
|111>    H       -4.41024        -9.22398        -1.29910
|112>    H       -2.00629        -9.20559        -2.56137
|113>    H       -2.37997        -7.49532        -2.67056
|114>    H       -3.01868        -8.92315         0.88025
|115>    H       -1.63992        -8.66856        -0.18096
|116>    H       -3.42236       -11.15581        -0.11344
|117>    H       -1.78994       -11.03143         0.54122
|118>    H       -2.05002       -10.94051        -1.19765
|119>    H       -4.17293        -9.77604        -3.63973
|120>    H       -3.15410        -8.76425        -4.66076
|121>    H       -4.53615        -8.06273        -3.83187
|122>    H       -8.28004        -6.57575         2.83568
|123>    H       -8.67323        -8.11700         2.09593
|124>    H       -8.60059        -5.41526         0.66167
|125>    H      -10.05298        -6.24959         1.20783
|126>    H       -9.08346        -6.93495        -0.08749
|127>    H       -4.87151        -7.70586         2.55931
|128>    H       -6.30144        -7.86897         3.56918
|129>    H       -5.13866        -5.23925         2.51631
|130>    H       -5.00045        -5.84532         4.16456
|131>    H       -6.57165        -5.36437         3.53377
|132> *
|133> 
|134>                          ****END OF INPUT****
================================================================================

                       ****************************
                       * Single Point Calculation *
                       ****************************

---------------------------------
CARTESIAN COORDINATES (ANGSTROEM)
---------------------------------
  C      1.756400   -1.758250   -1.753210
  O      2.279730   -1.320690   -2.752880
  C      2.389310   -2.062710   -0.451890
  C      3.719590   -1.982770   -0.086040
  C      4.078040   -2.354020    1.200400
  C      3.107160   -2.798080    2.091400
  Cl     3.579180   -3.271080    3.679000
  C      1.762130   -2.872600    1.742060
  C      1.408290   -2.497610    0.458680
  C      0.100280   -2.414080   -0.190240
  C     -1.101950   -2.299070    0.458670
  C     -2.279480   -1.871270   -0.189900
  N     -3.236610   -1.468320   -0.679440
  C     -1.280770   -2.507240    1.839710
  N     -1.492370   -2.700200    2.951540
  C      0.335990   -2.161050   -1.592490
  C     -0.461500   -2.313400   -2.688730
  C     -1.651580   -3.056110   -2.819610
  S     -2.027320   -4.393090   -1.730110
  C     -3.500310   -4.699190   -2.572720
  C     -3.660720   -3.817890   -3.650810
  C     -2.615160   -2.905220   -3.810980
  C     -2.609290   -1.824320   -4.837320
  C     -3.106630   -0.511430   -4.226940
  S     -5.147550   -4.071160   -4.535790
  C     -5.546310   -5.349040   -3.443980
  C     -4.582730   -5.573080   -2.452920
  N     -4.984710   -6.586270   -1.627140
  C     -4.026020   -7.181070   -0.728140
  C     -6.219350   -7.032540   -2.067990
  C     -6.571680   -6.278200   -3.228610
  C     -7.727430   -6.554480   -3.991030
  N     -8.150520   -5.962190   -5.096730
  S     -9.497800   -6.709710   -5.593860
  N     -9.592260   -7.816740   -4.416400
  C     -8.571760   -7.638790   -3.592170
  C     -8.271480   -8.328200   -2.397230
  C     -7.135730   -8.010340   -1.591710
  N     -7.200550   -8.777780   -0.441250
  C     -6.500770   -8.664520    0.815190
  C     -6.740620   -7.323950    1.531670
  C     -8.322280   -9.556670   -0.514810
  C     -8.995330   -9.315730   -1.717880
  S    -10.449260  -10.230170   -1.902720
  C    -10.164400  -10.956280   -0.335910
  C     -8.996480  -10.487220    0.281770
  S     -8.811770  -11.168750    1.852160
  C    -10.277460  -12.130110    1.639540
  C    -10.896080  -11.882940    0.418850
  C    -12.250830  -12.356820    0.002550
  C    -12.214840  -13.139140   -1.310270
  C    -10.693010  -12.885080    2.758430
  C    -11.345260  -14.087370    2.741100
  C    -11.980100  -14.737010    3.865700
  C    -12.277320  -14.163660    5.074830
  C    -12.006730  -12.820990    5.412780
  N    -11.837860  -11.735480    5.747080
  C    -12.915460  -14.836990    6.137050
  N    -13.423480  -15.330000    7.040630
  C    -12.336810  -16.092590    3.448540
  C    -12.961210  -17.121450    4.132620
  C    -13.182210  -18.315400    3.452510
  Cl   -13.961220  -19.608710    4.282390
  C    -12.793590  -18.496430    2.129840
  C    -12.160290  -17.467990    1.450440
  C    -11.942350  -16.274140    2.111350
  C    -11.288180  -15.047820    1.613460
  O    -10.712120  -14.911880    0.555430
  C     -3.540870   -8.566110   -1.190090
  C     -2.825370   -8.485280   -2.549920
  C     -2.617060   -9.150270   -0.110890
  C     -2.460070  -10.661560   -0.230610
  C     -3.731350   -8.786490   -3.739360
  C     -8.221300   -7.141380    1.905070
  C     -9.035100   -6.394320    0.853430
  C     -5.847680   -7.265550    2.780860
  C     -5.629450   -5.841460    3.278280
  H      4.456780   -1.636280   -0.793470
  H      5.107250   -2.303530    1.518740
  H      1.034980   -3.222280    2.456920
  H     -0.082210   -1.860560   -3.600120
  H     -3.268090   -2.117650   -5.656900
  H     -1.600990   -1.683930   -5.232130
  H     -4.111830   -0.636510   -3.833100
  H     -3.120710    0.269370   -4.982490
  H     -2.458290   -0.201490   -3.410880
  H     -4.431260   -7.223540    0.281630
  H     -3.167890   -6.504060   -0.695100
  H     -5.436630   -8.846210    0.666310
  H     -6.873200   -9.470740    1.453100
  H     -6.455540   -6.507630    0.858900
  H    -12.881890  -11.471910   -0.131330
  H    -12.689060  -12.970490    0.790050
  H    -11.846970  -12.513380   -2.118930
  H    -13.216210  -13.479330   -1.561340
  H    -11.563740  -14.002600   -1.210710
  H    -10.422230  -12.463040    3.719840
  H    -13.271430  -17.023750    5.159840
  H    -12.987580  -19.438940    1.642850
  H    -11.845370  -17.585320    0.425160
  H     -4.410240   -9.223980   -1.299100
  H     -2.006290   -9.205590   -2.561370
  H     -2.379970   -7.495320   -2.670560
  H     -3.018680   -8.923150    0.880250
  H     -1.639920   -8.668560   -0.180960
  H     -3.422360  -11.155810   -0.113440
  H     -1.789940  -11.031430    0.541220
  H     -2.050020  -10.940510   -1.197650
  H     -4.172930   -9.776040   -3.639730
  H     -3.154100   -8.764250   -4.660760
  H     -4.536150   -8.062730   -3.831870
  H     -8.280040   -6.575750    2.835680
  H     -8.673230   -8.117000    2.095930
  H     -8.600590   -5.415260    0.661670
  H    -10.052980   -6.249590    1.207830
  H     -9.083460   -6.934950   -0.087490
  H     -4.871510   -7.705860    2.559310
  H     -6.301440   -7.868970    3.569180
  H     -5.138660   -5.239250    2.516310
  H     -5.000450   -5.845320    4.164560
  H     -6.571650   -5.364370    3.533770

----------------------------
CARTESIAN COORDINATES (A.U.)
----------------------------
  NO LB      ZA    FRAG     MASS         X           Y           Z
   0 C     6.0000    0    12.011    3.319115   -3.322611   -3.313087
   1 O     8.0000    0    15.999    4.308065   -2.495742   -5.202189
   2 C     6.0000    0    12.011    4.515142   -3.897957   -0.853948
   3 C     6.0000    0    12.011    7.029006   -3.746892   -0.162592
   4 C     6.0000    0    12.011    7.706379   -4.448453    2.268427
   5 C     6.0000    0    12.011    5.871681   -5.287605    3.952173
   6 Cl   17.0000    0    35.453    6.763670   -6.181445    6.952302
   7 C     6.0000    0    12.011    3.329943   -5.428427    3.292016
   8 C     6.0000    0    12.011    2.661282   -4.719799    0.866780
   9 C     6.0000    0    12.011    0.189502   -4.561950   -0.359501
  10 C     6.0000    0    12.011   -2.082384   -4.344613    0.866761
  11 C     6.0000    0    12.011   -4.307593   -3.536188   -0.358859
  12 N     7.0000    0    14.007   -6.116307   -2.774723   -1.283956
  13 C     6.0000    0    12.011   -2.420305   -4.737997    3.476548
  14 N     7.0000    0    14.007   -2.820171   -5.102639    5.577602
  15 C     6.0000    0    12.011    0.634929   -4.083793   -3.009370
  16 C     6.0000    0    12.011   -0.872109   -4.371692   -5.080963
  17 C     6.0000    0    12.011   -3.121034   -5.775211   -5.328291
  18 S    16.0000    0    32.060   -3.831080   -8.301737   -3.269434
  19 C     6.0000    0    12.011   -6.614627   -8.880182   -4.861736
  20 C     6.0000    0    12.011   -6.917758   -7.214767   -6.899031
  21 C     6.0000    0    12.011   -4.941936   -5.490070   -7.201709
  22 C     6.0000    0    12.011   -4.930844   -3.447465   -9.141210
  23 C     6.0000    0    12.011   -5.870680   -0.966463   -7.987759
  24 S    16.0000    0    32.060   -9.727460   -7.693377   -8.571401
  25 C     6.0000    0    12.011  -10.481007  -10.108221   -6.508179
  26 C     6.0000    0    12.011   -8.660105  -10.531595   -4.635347
  27 N     7.0000    0    14.007   -9.419737  -12.446247   -3.074849
  28 C     6.0000    0    12.011   -7.608075  -13.570256   -1.375985
  29 C     6.0000    0    12.011  -11.752868  -13.289575   -3.907935
  30 C     6.0000    0    12.011  -12.418675  -11.864079   -6.101189
  31 C     6.0000    0    12.011  -14.602726  -12.386172   -7.541954
  32 N     7.0000    0    14.007  -15.402251  -11.266906   -9.631424
  33 S    16.0000    0    32.060  -17.948241  -12.679514  -10.570863
  34 N     7.0000    0    14.007  -18.126744  -14.771498   -8.345786
  35 C     6.0000    0    12.011  -16.198279  -14.435221   -6.788218
  36 C     6.0000    0    12.011  -15.630832  -15.738017   -4.530108
  37 C     6.0000    0    12.011  -13.484575  -15.137349   -3.007896
  38 N     7.0000    0    14.007  -13.607068  -16.587600   -0.833842
  39 C     6.0000    0    12.011  -12.284675  -16.373570    1.540486
  40 C     6.0000    0    12.011  -12.737926  -13.840260    2.894437
  41 C     6.0000    0    12.011  -15.726830  -18.059489   -0.972850
  42 C     6.0000    0    12.011  -16.998710  -17.604178   -3.246323
  43 S    16.0000    0    32.060  -19.746240  -19.332220   -3.595620
  44 C     6.0000    0    12.011  -19.207932  -20.704369   -0.634778
  45 C     6.0000    0    12.011  -17.000883  -19.817974    0.532468
  46 S    16.0000    0    32.060  -16.651832  -21.105879    3.500075
  47 C     6.0000    0    12.011  -19.421585  -22.922586    3.098282
  48 C     6.0000    0    12.011  -20.590607  -22.455502    0.791512
  49 C     6.0000    0    12.011  -23.150714  -23.351006    0.004819
  50 C     6.0000    0    12.011  -23.082702  -24.829376   -2.476051
  51 C     6.0000    0    12.011  -20.206860  -24.349272    5.212677
  52 C     6.0000    0    12.011  -21.439434  -26.621271    5.179928
  53 C     6.0000    0    12.011  -22.639108  -27.848913    7.305114
  54 C     6.0000    0    12.011  -23.200772  -26.765438    9.590039
  55 C     6.0000    0    12.011  -22.689431  -24.228160   10.228672
  56 N     7.0000    0    14.007  -22.370313  -22.176843   10.860407
  57 C     6.0000    0    12.011  -24.406682  -28.037848   11.597344
  58 N     7.0000    0    14.007  -25.366701  -28.969502   13.304863
  59 C     6.0000    0    12.011  -23.313192  -30.410588    6.516796
  60 C     6.0000    0    12.011  -24.493137  -32.354852    7.809520
  61 C     6.0000    0    12.011  -24.910767  -34.611090    6.524298
  62 Cl   17.0000    0    35.453  -26.382882  -37.055092    8.092544
  63 C     6.0000    0    12.011  -24.176381  -34.953187    4.024814
  64 C     6.0000    0    12.011  -22.979618  -33.009717    2.740934
  65 C     6.0000    0    12.011  -22.567771  -30.753668    3.989873
  66 C     6.0000    0    12.011  -21.331569  -28.436259    3.048998
  67 O     8.0000    0    15.999  -20.242973  -28.179369    1.049611
  68 C     6.0000    0    12.011   -6.691275  -16.187602   -2.248944
  69 C     6.0000    0    12.011   -5.339176  -16.034855   -4.818650
  70 C     6.0000    0    12.011   -4.945527  -17.291504   -0.209552
  71 C     6.0000    0    12.011   -4.648859  -20.147429   -0.435790
  72 C     6.0000    0    12.011   -7.051230  -16.604060   -7.066366
  73 C     6.0000    0    12.011  -15.536005  -13.495252    3.600061
  74 C     6.0000    0    12.011  -17.073865  -12.083514    1.612749
  75 C     6.0000    0    12.011  -11.050514  -13.729900    5.255064
  76 C     6.0000    0    12.011  -10.638119  -11.038760    6.195051
  77 H     1.0000    0     1.008    8.422094   -3.092121   -1.499441
  78 H     1.0000    0     1.008    9.651304   -4.353041    2.870003
  79 H     1.0000    0     1.008    1.955829   -6.089227    4.642906
  80 H     1.0000    0     1.008   -0.155354   -3.515949   -6.803241
  81 H     1.0000    0     1.008   -6.175795   -4.001779  -10.689992
  82 H     1.0000    0     1.008   -3.025433   -3.182167   -9.887293
  83 H     1.0000    0     1.008   -7.770233   -1.202830   -7.243509
  84 H     1.0000    0     1.008   -5.897287    0.509036   -9.415542
  85 H     1.0000    0     1.008   -4.645495   -0.380761   -6.445629
  86 H     1.0000    0     1.008   -8.373868  -13.650512    0.532204
  87 H     1.0000    0     1.008   -5.986445  -12.290892   -1.313549
  88 H     1.0000    0     1.008  -10.273742  -16.716914    1.259143
  89 H     1.0000    0     1.008  -12.988466  -17.897105    2.745961
  90 H     1.0000    0     1.008  -12.199203  -12.297638    1.623086
  91 H     1.0000    0     1.008  -24.343244  -21.678768   -0.248178
  92 H     1.0000    0     1.008  -23.978848  -24.510674    1.492978
  93 H     1.0000    0     1.008  -22.387529  -23.646861   -4.004197
  94 H     1.0000    0     1.008  -24.975017  -25.472242   -2.950505
  95 H     1.0000    0     1.008  -21.852302  -26.461079   -2.287910
  96 H     1.0000    0     1.008  -19.695160  -23.551732    7.029479
  97 H     1.0000    0     1.008  -25.079368  -32.170225    9.750684
  98 H     1.0000    0     1.008  -24.542969  -36.734273    3.104537
  99 H     1.0000    0     1.008  -22.384505  -33.231439    0.803436
 100 H     1.0000    0     1.008   -8.334146  -17.430796   -2.454943
 101 H     1.0000    0     1.008   -3.791339  -17.396044   -4.840288
 102 H     1.0000    0     1.008   -4.497492  -14.164102   -5.046627
 103 H     1.0000    0     1.008   -5.704478  -16.862310    1.663431
 104 H     1.0000    0     1.008   -3.099000  -16.381204   -0.341965
 105 H     1.0000    0     1.008   -6.467323  -21.081426   -0.214371
 106 H     1.0000    0     1.008   -3.382496  -20.846382    1.022758
 107 H     1.0000    0     1.008   -3.873976  -20.674568   -2.263231
 108 H     1.0000    0     1.008   -7.885695  -18.474038   -6.878093
 109 H     1.0000    0     1.008   -5.960385  -16.562032   -8.807560
 110 H     1.0000    0     1.008   -8.572081  -15.236352   -7.241185
 111 H     1.0000    0     1.008  -15.647008  -12.426367    5.358659
 112 H     1.0000    0     1.008  -16.390029  -15.338907    3.960734
 113 H     1.0000    0     1.008  -16.252760  -10.233358    1.250375
 114 H     1.0000    0     1.008  -18.997379  -11.810014    2.282468
 115 H     1.0000    0     1.008  -17.165252  -13.105156   -0.165332
 116 H     1.0000    0     1.008   -9.205820  -14.561965    4.836395
 117 H     1.0000    0     1.008  -11.907996  -14.870198    6.744773
 118 H     1.0000    0     1.008   -9.710660   -9.900748    4.755137
 119 H     1.0000    0     1.008   -9.449481  -11.046054    7.869878
 120 H     1.0000    0     1.008  -12.418619  -10.137190    6.677858

--------------------------------
INTERNAL COORDINATES (ANGSTROEM)
--------------------------------
 C      0   0   0     0.000000000000     0.00000000     0.00000000
 O      1   0   0     1.210236816247     0.00000000     0.00000000
 C      1   2   0     1.478751061572   128.04379048     0.00000000
 C      3   1   2     1.381984625276   129.27510107   356.65577586
 C      4   3   1     1.386088322799   118.62881530   181.42348603
 C      5   4   3     1.390567602815   119.97730084     0.12508318
 Cl     6   5   4     1.722499823048   119.13891416   179.30647258
 C      6   5   4     1.391652746521   122.07680963   359.27104338
 C      8   6   5     1.383070667067   117.75416010     0.53420279
 C      9   8   6     1.462519944274   130.99642062   182.61850044
 C     10   9   8     1.371010014952   125.38286705    21.64416833
 C     11  10   9     1.410756104293   122.66790094   162.69244626
 N     12  11  10     1.148092309442   176.66317760   246.14954485
 C     11  10   9     1.408042195000   124.27695904   346.89707283
 N     14  11  10     1.148117620499   176.44568888   211.34206958
 C     10   9   8     1.444260519262   107.14777144   188.50980220
 C     16  10   9     1.364163831877   131.70135969   161.57906429
 C     17  16  10     1.408913810316   128.85276275   343.44684428
 S     18  17  16     1.765136345442   121.44977108   337.61115428
 C     19  18  17     1.724351577318    90.84123580   181.06229092
 C     20  19  18     1.401677247515   111.22250078     1.03158044
 C     18  17  16     1.390707979915   126.46115360   161.21931945
 C     22  18  17     1.490554615739   124.52700781   353.60060792
 C     23  22  18     1.530879150064   110.24827885   282.11646843
 S     21  20  19     1.748713453428   113.29616853   180.54650097
 C     25  21  20     1.727436224033    89.05742287     0.41164170
 C     20  19  18     1.396305420923   137.00177565   182.44085008
 N     27  20  19     1.367499361938   138.02066629   359.89408630
 C     28  27  20     1.442592997384   119.10770299   345.30479931
 C     28  27  20     1.384861568894   107.97443256   178.80492062
 C     26  25  21     1.400395008346   139.20482666   180.11729097
 C     31  26  25     1.411868604828   130.25295921     4.97512858
 N     32  31  26     1.323776824922   128.69129274   357.75031249
 S     33  32  31     1.618977388879   108.41298410   177.63206813
 N     34  33  32     1.618904000891    98.10315067     0.02785685
 C     35  34  33     1.323798151306   108.41795758     0.03401665
 C     36  35  34     1.411855456518   128.70293911   177.16285469
 C     30  28  27     1.422212284717   133.58161189   182.69262876
 N     38  30  28     1.384458015831   133.59547891     7.98776472
 C     39  38  30     1.442623079533   131.10991939    14.51480664
 C     40  39  38     1.538830574755   113.47188359    59.51685820
 C     39  38  30     1.367610653147   108.02359183   179.76301677
 C     42  39  38     1.399437676712   110.03902879     0.52642519
 S     43  42  39     1.727506522158   113.93040604   181.06058231
 C     44  43  42     1.750221279667    89.24592548     0.10888441
 C     42  39  38     1.398216234672   138.06349269   182.80756127
 S     46  42  39     1.721837877705   136.99554277     1.70034948
 C     47  46  42     1.765691787969    90.95311119   178.96035710
 C     48  47  46     1.390635750080   112.22182061   357.85218154
 C     49  48  47     1.494394695822   126.25972662   190.03163415
 C     50  49  48     1.528664847146   112.34486621   235.01993398
 C     48  47  46     1.412294705612   116.09746158   184.40120333
 C     52  48  47     1.367929689531   126.87705618   211.59598395
 C     53  52  48     1.445606832856   126.47785514   192.06421272
 C     54  53  52     1.370790030530   126.40254609    13.90359250
 C     55  54  53     1.410741606213   124.59665254     0.20300892
 N     56  55  54     1.148305502469   176.06993546   162.59112380
 C     55  54  53     1.410286239350   124.24850278   179.10002105
 N     58  55  54     1.147867586832   176.58487299   173.06836887
 C     54  53  52     1.462484743886   107.56278343   189.90315720
 C     60  54  53     1.384338725168   131.14342598   180.15591210
 C     61  60  54     1.391728139616   117.88740649   179.28172654
 Cl    62  61  60     1.722848847288   118.71223929   180.14788473
 C     62  61  60     1.390414792139   122.15308734     0.23659678
 C     64  62  61     1.385764079344   119.83405588     0.21162151
 C     65  64  62     1.381874702786   118.60443558   359.38881849
 C     66  65  64     1.476378536623   128.77020737   179.53990723
 O     67  66  65     1.212333406328   126.72645586   352.85473715
 C     29  28  27     1.538539608395   113.18001712   255.47003340
 C     69  29  28     1.538704444590   111.38834535    61.61458431
 C     69  29  28     1.536014473141   108.72703674   184.46256447
 C     71  69  29     1.524131294410   112.57331294   160.72162727
 C     70  69  29     1.525219570455   113.74119154   264.76265408
 C     41  40  39     1.537911774875   111.50171862    62.63889902
 C     74  41  40     1.525226466201   113.85618654   267.26583537
 C     41  40  39     1.536628796977   108.72589387   185.27878304
 C     76  41  40     1.524166433629   112.58292567   159.73281855
 H      4   3   1     1.078870530277   120.18045283     1.49415874
 H      5   4   3     1.078500264163   120.54377358   180.01804477
 H      8   6   5     1.077983322923   120.18885762   179.94994422
 H     17  16  10     1.086073985417   115.06351123   168.60200309
 H     23  22  18     1.091682786023   108.64553554   162.12502712
 H     23  22  18     1.091903465605   110.23332586    43.13161888
 H     24  23  22     1.086821968862   110.25861788   301.23861541
 H     24  23  22     1.086601439765   110.07329522   181.16688512
 H     24  23  22     1.087364466405   110.48585115    60.79461835
 H     29  28  27     1.088879521067   110.28346718   130.26218247
 H     29  28  27     1.093536135023   106.56274023    14.76659642
 H     40  39  38     1.089757060129   109.97417399   294.30205751
 H     40  39  38     1.093445911511   106.55871444   178.88042701
 H     41  40  39     1.095567625343   108.82247352   303.45428913
 H     50  49  48     1.095091907604   107.47124810   115.38399859
 H     50  49  48     1.090317683889   109.97703040   357.87536253
 H     51  50  49     1.086662279690   110.63172966   298.73625980
 H     51  50  49     1.086971599399   109.68480920   178.86282880
 H     51  50  49     1.086004868866   110.01580478    59.04123384
 H     52  48  47     1.084319490787   114.89161030    29.19543229
 H     61  60  54     1.077479775587   122.24748398   359.07789039
 H     64  62  61     1.078478780644   119.54197545   180.12277197
 H     65  64  62     1.078953202739   121.23613289   179.73632554
 H     69  29  28     1.095664325375   108.67466478   302.48874350
 H     70  69  29     1.090811461711   108.89005388   144.39969443
 H     70  69  29     1.092225238309   109.56338737    27.77306133
 H     71  69  29     1.093270606209   109.69514923    39.97856278
 H     71  69  29     1.091676192193   108.99110514   282.91777036
 H     72  71  69     1.088124034979   110.53903860   298.92024201
 H     72  71  69     1.087014067388   110.18922247   179.23459234
 H     72  71  69     1.086793663305   111.30099829    59.23312587
 H     73  70  69     1.088176564625   110.44027009   302.27218294
 H     73  70  69     1.087515581544   109.96197042   182.98913133
 H     73  70  69     1.086319325843   112.01818554    63.00647976
 H     74  41  40     1.090606554446   108.69934046   147.10539999
 H     74  41  40     1.092017696239   109.56181663    30.53185158
 H     75  74  41     1.088177063395   110.43477458   302.59155020
 H     75  74  41     1.087486012462   109.87049353   183.37959822
 H     75  74  41     1.086255003625   112.16192644    63.41152716
 H     76  41  40     1.093556202259   109.79917715    38.95167482
 H     76  41  40     1.091541229821   108.93743336   281.90046784
 H     77  76  41     1.088177370239   110.67883267   299.22261838
 H     77  76  41     1.086806393982   110.22379789   179.59232830
 H     77  76  41     1.086568381741   111.27416689    59.60026248

---------------------------
INTERNAL COORDINATES (A.U.)
---------------------------
 C      0   0   0     0.000000000000     0.00000000     0.00000000
 O      1   0   0     2.287016139896     0.00000000     0.00000000
 C      1   2   0     2.794434526616   128.04379048     0.00000000
 C      3   1   2     2.611572463062   129.27510107   356.65577586
 C      4   3   1     2.619327327517   118.62881530   181.42348603
 C      5   4   3     2.627791940025   119.97730084     0.12508318
 Cl     6   5   4     3.255052931288   119.13891416   179.30647258
 C      6   5   4     2.629842564444   122.07680963   359.27104338
 C      8   6   5     2.613624784616   117.75416010     0.53420279
 C      9   8   6     2.763762160076   130.99642062   182.61850044
 C     10   9   8     2.590833455123   125.38286705    21.64416833
 C     11  10   9     2.665942678871   122.66790094   162.69244626
 N     12  11  10     2.169580041307   176.66317760   246.14954485
 C     11  10   9     2.660814133555   124.27695904   346.89707283
 N     14  11  10     2.169627872272   176.44568888   211.34206958
 C     10   9   8     2.729256847441   107.14777144   188.50980220
 C     16  10   9     2.577896044047   131.70135969   161.57906429
 C     17  16  10     2.662461247797   128.85276275   343.44684428
 S     18  17  16     3.335624281916   121.44977108   337.61115428
 C     19  18  17     3.258552239727    90.84123580   181.06229092
 C     20  19  18     2.648786125951   111.22250078     1.03158044
 C     18  17  16     2.628057214299   126.46115360   161.21931945
 C     22  18  17     2.816740011398   124.52700781   353.60060792
 C     23  22  18     2.892942337751   110.24827885   282.11646843
 S     21  20  19     3.304589513683   113.29616853   180.54650097
 C     25  21  20     3.264381377237    89.05742287     0.41164170
 C     20  19  18     2.638634844855   137.00177565   182.44085008
 N     27  20  19     2.584199282374   138.02066629   359.89408630
 C     28  27  20     2.726105687767   119.10770299   345.30479931
 C     28  27  20     2.617009098602   107.97443256   178.80492062
 C     26  25  21     2.646363045084   139.20482666   180.11729097
 C     31  26  25     2.668045000207   130.25295921     4.97512858
 N     32  31  26     2.501575661534   128.69129274   357.75031249
 S     33  32  31     3.059423881991   108.41298410   177.63206813
 N     34  33  32     3.059285198793    98.10315067     0.02785685
 C     35  34  33     2.501615962559   108.41795758     0.03401665
 C     36  35  34     2.668020153502   128.70293911   177.16285469
 C     30  28  27     2.687591722414   133.58161189   182.69262876
 N     38  30  28     2.616246493833   133.59547891     7.98776472
 C     39  38  30     2.726162534791   131.10991939    14.51480664
 C     40  39  38     2.907968352791   113.47188359    59.51685820
 C     39  38  30     2.584409592280   108.02359183   179.76301677
 C     42  39  38     2.644553950476   110.03902879     0.52642519
 S     43  42  39     3.264514221442   113.93040604   181.06058231
 C     44  43  42     3.307438892332    89.24592548     0.10888441
 C     42  39  38     2.642245759532   138.06349269   182.80756127
 S     46  42  39     3.253802035875   136.99554277     1.70034948
 C     47  46  42     3.336673916175    90.95311119   178.96035710
 C     48  47  46     2.627920719691   112.22182061   357.85218154
 C     49  48  47     2.823996711088   126.25972662   190.03163415
 C     50  49  48     2.888757911659   112.34486621   235.01993398
 C     48  47  46     2.668850213994   116.09746158   184.40120333
 C     52  48  47     2.585012483673   126.87705618   211.59598395
 C     53  52  48     2.731801011423   126.47785514   192.06421272
 C     54  53  52     2.590417744811   126.40254609    13.90359250
 C     55  54  53     2.665915281470   124.59665254     0.20300892
 N     56  55  54     2.169982917741   176.06993546   162.59112380
 C     55  54  53     2.665054762809   124.24850278   179.10002105
 N     58  55  54     2.169155377118   176.58487299   173.06836887
 C     54  53  52     2.763695640983   107.56278343   189.90315720
 C     60  54  53     2.616021067149   131.14342598   180.15591210
 C     61  60  54     2.629985036747   117.88740649   179.28172654
 Cl    62  61  60     3.255712491515   118.71223929   180.14788473
 C     62  61  60     2.627503169696   122.15308734     0.23659678
 C     64  62  61     2.618714596186   119.83405588     0.21162151
 C     65  64  62     2.611364739659   118.60443558   359.38881849
 C     66  65  64     2.789951104216   128.77020737   179.53990723
 O     67  66  65     2.290978120965   126.72645586   352.85473715
 C     29  28  27     2.907418506057   113.18001712   255.47003340
 C     69  29  28     2.907730001322   111.38834535    61.61458431
 C     69  29  28     2.902646691977   108.72703674   184.46256447
 C     71  69  29     2.880190738574   112.57331294   160.72162727
 C     70  69  29     2.882247282258   113.74119154   264.76265408
 C     41  40  39     2.906232072647   111.50171862    62.63889902
 C     74  41  40     2.882260313328   113.85618654   267.26583537
 C     41  40  39     2.903807595784   108.72589387   185.27878304
 C     76  41  40     2.880257142073   112.58292567   159.73281855
 H      4   3   1     2.038769836182   120.18045283     1.49415874
 H      5   4   3     2.038070134630   120.54377358   180.01804477
 H      8   6   5     2.037093257259   120.18885762   179.94994422
 H     17  16  10     2.052382393615   115.06351123   168.60200309
 H     23  22  18     2.062981490701   108.64553554   162.12502712
 H     23  22  18     2.063398514673   110.23332586    43.13161888
 H     24  23  22     2.053795877477   110.25861788   301.23861541
 H     24  23  22     2.053379137881   110.07329522   181.16688512
 H     24  23  22     2.054821049263   110.48585115    60.79461835
 H     29  28  27     2.057684087653   110.28346718   130.26218247
 H     29  28  27     2.066483812739   106.56274023    14.76659642
 H     40  39  38     2.059342396150   109.97417399   294.30205751
 H     40  39  38     2.066313315012   106.55871444   178.88042701
 H     41  40  39     2.070322773089   108.82247352   303.45428913
 H     50  49  48     2.069423796845   107.47124810   115.38399859
 H     50  49  48     2.060401821521   109.97703040   357.87536253
 H     51  50  49     2.053494108676   110.63172966   298.73625980
 H     51  50  49     2.054078638214   109.68480920   178.86282880
 H     51  50  49     2.052251782261   110.01580478    59.04123384
 H     52  48  47     2.049066879260   114.89161030    29.19543229
 H     61  60  54     2.036141690699   122.24748398   359.07789039
 H     64  62  61     2.038029536663   119.54197545   180.12277197
 H     65  64  62     2.038926064493   121.23613289   179.73632554
 H     69  29  28     2.070505509667   108.67466478   302.48874350
 H     70  69  29     2.061334926376   108.89005388   144.39969443
 H     70  69  29     2.064006576962   109.56338737    27.77306133
 H     71  69  29     2.065982036001   109.69514923    39.97856278
 H     71  69  29     2.062969030166   108.99110514   282.91777036
 H     72  71  69     2.056256425849   110.53903860   298.92024201
 H     72  71  69     2.054158891084   110.18922247   179.23459234
 H     72  71  69     2.053742387728   111.30099829    59.23312587
 H     73  70  69     2.056355692493   110.44027009   302.27218294
 H     73  70  69     2.055106615489   109.96197042   182.98913133
 H     73  70  69     2.052846019829   112.01818554    63.00647976
 H     74  41  40     2.060947707762   108.69934046   147.10539999
 H     74  41  40     2.063614379288   109.56181663    30.53185158
 H     75  74  41     2.056356635032   110.43477458   302.59155020
 H     75  74  41     2.055050738023   109.87049353   183.37959822
 H     75  74  41     2.052724468453   112.16192644    63.41152716
 H     76  41  40     2.066521734321   109.79917715    38.95167482
 H     76  41  40     2.062713988246   108.93743336   281.90046784
 H     77  76  41     2.056357214882   110.67883267   299.22261838
 H     77  76  41     2.053766445220   110.22379789   179.59232830
 H     77  76  41     2.053316667269   111.27416689    59.60026248

---------------------
BASIS SET INFORMATION
---------------------
There are 6 groups of distinct atoms

 Group   1 Type C   : 7s4p1d contracted to 3s2p1d pattern {511/31/1}
 Group   2 Type O   : 7s4p1d contracted to 3s2p1d pattern {511/31/1}
 Group   3 Type Cl  : 10s7p1d contracted to 4s3p1d pattern {5311/511/1}
 Group   4 Type N   : 7s4p1d contracted to 3s2p1d pattern {511/31/1}
 Group   5 Type S   : 10s7p1d contracted to 4s3p1d pattern {5311/511/1}
 Group   6 Type H   : 4s1p contracted to 2s1p pattern {31/1}

Atom   0C    basis set group =>   1
Atom   1O    basis set group =>   2
Atom   2C    basis set group =>   1
Atom   3C    basis set group =>   1
Atom   4C    basis set group =>   1
Atom   5C    basis set group =>   1
Atom   6Cl   basis set group =>   3
Atom   7C    basis set group =>   1
Atom   8C    basis set group =>   1
Atom   9C    basis set group =>   1
Atom  10C    basis set group =>   1
Atom  11C    basis set group =>   1
Atom  12N    basis set group =>   4
Atom  13C    basis set group =>   1
Atom  14N    basis set group =>   4
Atom  15C    basis set group =>   1
Atom  16C    basis set group =>   1
Atom  17C    basis set group =>   1
Atom  18S    basis set group =>   5
Atom  19C    basis set group =>   1
Atom  20C    basis set group =>   1
Atom  21C    basis set group =>   1
Atom  22C    basis set group =>   1
Atom  23C    basis set group =>   1
Atom  24S    basis set group =>   5
Atom  25C    basis set group =>   1
Atom  26C    basis set group =>   1
Atom  27N    basis set group =>   4
Atom  28C    basis set group =>   1
Atom  29C    basis set group =>   1
Atom  30C    basis set group =>   1
Atom  31C    basis set group =>   1
Atom  32N    basis set group =>   4
Atom  33S    basis set group =>   5
Atom  34N    basis set group =>   4
Atom  35C    basis set group =>   1
Atom  36C    basis set group =>   1
Atom  37C    basis set group =>   1
Atom  38N    basis set group =>   4
Atom  39C    basis set group =>   1
Atom  40C    basis set group =>   1
Atom  41C    basis set group =>   1
Atom  42C    basis set group =>   1
Atom  43S    basis set group =>   5
Atom  44C    basis set group =>   1
Atom  45C    basis set group =>   1
Atom  46S    basis set group =>   5
Atom  47C    basis set group =>   1
Atom  48C    basis set group =>   1
Atom  49C    basis set group =>   1
Atom  50C    basis set group =>   1
Atom  51C    basis set group =>   1
Atom  52C    basis set group =>   1
Atom  53C    basis set group =>   1
Atom  54C    basis set group =>   1
Atom  55C    basis set group =>   1
Atom  56N    basis set group =>   4
Atom  57C    basis set group =>   1
Atom  58N    basis set group =>   4
Atom  59C    basis set group =>   1
Atom  60C    basis set group =>   1
Atom  61C    basis set group =>   1
Atom  62Cl   basis set group =>   3
Atom  63C    basis set group =>   1
Atom  64C    basis set group =>   1
Atom  65C    basis set group =>   1
Atom  66C    basis set group =>   1
Atom  67O    basis set group =>   2
Atom  68C    basis set group =>   1
Atom  69C    basis set group =>   1
Atom  70C    basis set group =>   1
Atom  71C    basis set group =>   1
Atom  72C    basis set group =>   1
Atom  73C    basis set group =>   1
Atom  74C    basis set group =>   1
Atom  75C    basis set group =>   1
Atom  76C    basis set group =>   1
Atom  77H    basis set group =>   6
Atom  78H    basis set group =>   6
Atom  79H    basis set group =>   6
Atom  80H    basis set group =>   6
Atom  81H    basis set group =>   6
Atom  82H    basis set group =>   6
Atom  83H    basis set group =>   6
Atom  84H    basis set group =>   6
Atom  85H    basis set group =>   6
Atom  86H    basis set group =>   6
Atom  87H    basis set group =>   6
Atom  88H    basis set group =>   6
Atom  89H    basis set group =>   6
Atom  90H    basis set group =>   6
Atom  91H    basis set group =>   6
Atom  92H    basis set group =>   6
Atom  93H    basis set group =>   6
Atom  94H    basis set group =>   6
Atom  95H    basis set group =>   6
Atom  96H    basis set group =>   6
Atom  97H    basis set group =>   6
Atom  98H    basis set group =>   6
Atom  99H    basis set group =>   6
Atom 100H    basis set group =>   6
Atom 101H    basis set group =>   6
Atom 102H    basis set group =>   6
Atom 103H    basis set group =>   6
Atom 104H    basis set group =>   6
Atom 105H    basis set group =>   6
Atom 106H    basis set group =>   6
Atom 107H    basis set group =>   6
Atom 108H    basis set group =>   6
Atom 109H    basis set group =>   6
Atom 110H    basis set group =>   6
Atom 111H    basis set group =>   6
Atom 112H    basis set group =>   6
Atom 113H    basis set group =>   6
Atom 114H    basis set group =>   6
Atom 115H    basis set group =>   6
Atom 116H    basis set group =>   6
Atom 117H    basis set group =>   6
Atom 118H    basis set group =>   6
Atom 119H    basis set group =>   6
Atom 120H    basis set group =>   6
---------------------------------
AUXILIARY/J BASIS SET INFORMATION
---------------------------------
There are 6 groups of distinct atoms

 Group   1 Type C   : 12s5p4d2f1g contracted to 6s4p3d1f1g pattern {711111/2111/211/2/1}
 Group   2 Type O   : 12s5p4d2f1g contracted to 6s4p3d1f1g pattern {711111/2111/211/2/1}
 Group   3 Type Cl  : 14s5p5d2f1g contracted to 8s4p3d1f1g pattern {71111111/2111/311/2/1}
 Group   4 Type N   : 12s5p4d2f1g contracted to 6s4p3d1f1g pattern {711111/2111/211/2/1}
 Group   5 Type S   : 14s5p5d2f1g contracted to 8s4p3d1f1g pattern {71111111/2111/311/2/1}
 Group   6 Type H   : 5s2p1d contracted to 3s1p1d pattern {311/2/1}

Atom   0C    basis set group =>   1
Atom   1O    basis set group =>   2
Atom   2C    basis set group =>   1
Atom   3C    basis set group =>   1
Atom   4C    basis set group =>   1
Atom   5C    basis set group =>   1
Atom   6Cl   basis set group =>   3
Atom   7C    basis set group =>   1
Atom   8C    basis set group =>   1
Atom   9C    basis set group =>   1
Atom  10C    basis set group =>   1
Atom  11C    basis set group =>   1
Atom  12N    basis set group =>   4
Atom  13C    basis set group =>   1
Atom  14N    basis set group =>   4
Atom  15C    basis set group =>   1
Atom  16C    basis set group =>   1
Atom  17C    basis set group =>   1
Atom  18S    basis set group =>   5
Atom  19C    basis set group =>   1
Atom  20C    basis set group =>   1
Atom  21C    basis set group =>   1
Atom  22C    basis set group =>   1
Atom  23C    basis set group =>   1
Atom  24S    basis set group =>   5
Atom  25C    basis set group =>   1
Atom  26C    basis set group =>   1
Atom  27N    basis set group =>   4
Atom  28C    basis set group =>   1
Atom  29C    basis set group =>   1
Atom  30C    basis set group =>   1
Atom  31C    basis set group =>   1
Atom  32N    basis set group =>   4
Atom  33S    basis set group =>   5
Atom  34N    basis set group =>   4
Atom  35C    basis set group =>   1
Atom  36C    basis set group =>   1
Atom  37C    basis set group =>   1
Atom  38N    basis set group =>   4
Atom  39C    basis set group =>   1
Atom  40C    basis set group =>   1
Atom  41C    basis set group =>   1
Atom  42C    basis set group =>   1
Atom  43S    basis set group =>   5
Atom  44C    basis set group =>   1
Atom  45C    basis set group =>   1
Atom  46S    basis set group =>   5
Atom  47C    basis set group =>   1
Atom  48C    basis set group =>   1
Atom  49C    basis set group =>   1
Atom  50C    basis set group =>   1
Atom  51C    basis set group =>   1
Atom  52C    basis set group =>   1
Atom  53C    basis set group =>   1
Atom  54C    basis set group =>   1
Atom  55C    basis set group =>   1
Atom  56N    basis set group =>   4
Atom  57C    basis set group =>   1
Atom  58N    basis set group =>   4
Atom  59C    basis set group =>   1
Atom  60C    basis set group =>   1
Atom  61C    basis set group =>   1
Atom  62Cl   basis set group =>   3
Atom  63C    basis set group =>   1
Atom  64C    basis set group =>   1
Atom  65C    basis set group =>   1
Atom  66C    basis set group =>   1
Atom  67O    basis set group =>   2
Atom  68C    basis set group =>   1
Atom  69C    basis set group =>   1
Atom  70C    basis set group =>   1
Atom  71C    basis set group =>   1
Atom  72C    basis set group =>   1
Atom  73C    basis set group =>   1
Atom  74C    basis set group =>   1
Atom  75C    basis set group =>   1
Atom  76C    basis set group =>   1
Atom  77H    basis set group =>   6
Atom  78H    basis set group =>   6
Atom  79H    basis set group =>   6
Atom  80H    basis set group =>   6
Atom  81H    basis set group =>   6
Atom  82H    basis set group =>   6
Atom  83H    basis set group =>   6
Atom  84H    basis set group =>   6
Atom  85H    basis set group =>   6
Atom  86H    basis set group =>   6
Atom  87H    basis set group =>   6
Atom  88H    basis set group =>   6
Atom  89H    basis set group =>   6
Atom  90H    basis set group =>   6
Atom  91H    basis set group =>   6
Atom  92H    basis set group =>   6
Atom  93H    basis set group =>   6
Atom  94H    basis set group =>   6
Atom  95H    basis set group =>   6
Atom  96H    basis set group =>   6
Atom  97H    basis set group =>   6
Atom  98H    basis set group =>   6
Atom  99H    basis set group =>   6
Atom 100H    basis set group =>   6
Atom 101H    basis set group =>   6
Atom 102H    basis set group =>   6
Atom 103H    basis set group =>   6
Atom 104H    basis set group =>   6
Atom 105H    basis set group =>   6
Atom 106H    basis set group =>   6
Atom 107H    basis set group =>   6
Atom 108H    basis set group =>   6
Atom 109H    basis set group =>   6
Atom 110H    basis set group =>   6
Atom 111H    basis set group =>   6
Atom 112H    basis set group =>   6
Atom 113H    basis set group =>   6
Atom 114H    basis set group =>   6
Atom 115H    basis set group =>   6
Atom 116H    basis set group =>   6
Atom 117H    basis set group =>   6
Atom 118H    basis set group =>   6
Atom 119H    basis set group =>   6
Atom 120H    basis set group =>   6
------------------------------------------------------------------------------
                           ORCA GTO INTEGRAL CALCULATION
                           -- RI-GTO INTEGRALS CHOSEN --
------------------------------------------------------------------------------

                         BASIS SET STATISTICS AND STARTUP INFO

Gaussian basis set:
 # of primitive gaussian shells          ... 1186
 # of primitive gaussian functions       ... 2240
 # of contracted shells                  ...  608
 # of contracted basis functions         ... 1326
 Highest angular momentum                ...    2
 Maximum contraction depth               ...    5
Auxiliary gaussian basis set:
 # of primitive gaussian shells          ... 2221
 # of primitive gaussian functions       ... 6143
 # of contracted shells                  ... 1389
 # of contracted aux-basis functions     ... 4271
 Highest angular momentum                ...    4
 Maximum contraction depth               ...    7
Ratio of auxiliary to basis functions    ...  3.22
Integral package used                  ... LIBINT
 One Electron integrals                  ... done
 Ordering auxiliary basis shells         ... done
 Integral threshhold             Thresh  ...  2.500e-11
 Primitive cut-off               TCut    ...  2.500e-12
 Pre-screening matrix                    ... done
 Shell pair data                         ... 
 Ordering of the shell pairs             ... done (   0.015 sec) 68013 of 185136 pairs
 Determination of significant pairs      ... done (   0.000 sec)
 Creation of shell pair data             ... done (   0.010 sec)
 Storage of shell pair data              ... done (   0.016 sec)
 Shell pair data done in (   0.041 sec)
 Computing two index integrals           ... done
 Cholesky decomposition of the V-matrix  ... done


Timings:
 Total evaluation time                   ...   2.895 sec (  0.048 min)
 One electron matrix time                ...   0.886 sec (  0.015 min) = 30.6%
 Schwartz matrix evaluation time         ...   0.847 sec (  0.014 min) = 29.2%
 Two index repulsion integral time       ...   0.455 sec (  0.008 min) = 15.7%
 Cholesky decomposition of V             ...   0.648 sec (  0.011 min) = 22.4%
 Three index repulsion integral time     ...   0.000 sec (  0.000 min) =  0.0%

-------------------------------------------------------------------------------
                                 ORCA SCF
-------------------------------------------------------------------------------

------------
SCF SETTINGS
------------
Hamiltonian:
 Density Functional     Method          .... DFT(GTOs)
 Exchange Functional    Exchange        .... WB88
 Correlation Functional Correlation     .... LYP
 LDA part of GGA corr.  LDAOpt          .... VWN-5
 Gradients option       PostSCFGGA      .... off
 Hybrid DFT is turned on
   Fraction HF Exchange ScalHFX         ....  0.190000
   Scaling of DF-GGA-X  ScalDFX         ....  0.350000
   Scaling of DF-GGA-C  ScalDFC         ....  0.810000
   Scaling of DF-LDA-C  ScalLDAC        ....  1.000000
   Perturbative correction              ....  0.000000
   Density functional embedding theory  .... OFF
 Long-range corrected/Screened/Range-Separated Hybrid DFT is turned on
   Amount of maximum screened exact exchange              ....  0.460000
   Range separation parameter mu (erf(mu*r12)/r12)        ....  0.330000
 RI-approximation to the Coulomb term is turned on
   Number of auxiliary basis functions  .... 4271
   RIJ-COSX (HFX calculated with COS-X)).... on


General Settings:
 Integral files         IntName         .... H2
 Hartree-Fock type      HFTyp           .... RHF
 Total Charge           Charge          ....    0
 Multiplicity           Mult            ....    1
 Number of Electrons    NEL             ....  590
 Basis Dimension        Dim             .... 1326
 Nuclear Repulsion      ENuc            ....  13757.4809391746 Eh

Convergence Acceleration:
 DIIS                   CNVDIIS         .... on
   Start iteration      DIISMaxIt       ....    12
   Startup error        DIISStart       ....  0.200000
   # of expansion vecs  DIISMaxEq       ....     5
   Bias factor          DIISBfac        ....   1.050
   Max. coefficient     DIISMaxC        ....  10.000
 Newton-Raphson         CNVNR           .... off
 SOSCF                  CNVSOSCF        .... on
   Start iteration      SOSCFMaxIt      ....   150
   Startup grad/error   SOSCFStart      ....  0.003300
 Level Shifting         CNVShift        .... on
   Level shift para.    LevelShift      ....    0.2500
   Turn off err/grad.   ShiftErr        ....    0.0010
 Zerner damping         CNVZerner       .... off
 Static damping         CNVDamp         .... on
   Fraction old density DampFac         ....    0.7000
   Max. Damping (<1)    DampMax         ....    0.9800
   Min. Damping (>=0)   DampMin         ....    0.0000
   Turn off err/grad.   DampErr         ....    0.1000
 Fernandez-Rico         CNVRico         .... off

SCF Procedure:
 Maximum # iterations   MaxIter         ....   125
 SCF integral mode      SCFMode         .... Direct
   Integral package                     .... LIBINT
 Reset frequency        DirectResetFreq ....    20
 Integral Threshold     Thresh          ....  2.500e-11 Eh
 Primitive CutOff       TCut            ....  2.500e-12 Eh

Convergence Tolerance:
 Convergence Check Mode ConvCheckMode   .... Total+1el-Energy
 Convergence forced     ConvForced      .... 1
 Energy Change          TolE            ....  1.000e-08 Eh
 1-El. energy change                    ....  1.000e-05 Eh
 Orbital Gradient       TolG            ....  1.000e-05
 Orbital Rotation angle TolX            ....  1.000e-05
 DIIS Error             TolErr          ....  5.000e-07


Diagonalization of the overlap matrix:
Smallest eigenvalue                        ... 7.877e-05
Time for diagonalization                   ...    0.629 sec
Threshold for overlap eigenvalues          ... 1.000e-08
Number of eigenvalues below threshold      ... 0
Time for construction of square roots      ...    0.207 sec
Total time needed                          ...    0.842 sec

-------------------
DFT GRID GENERATION
-------------------

General Integration Accuracy     IntAcc      ...  4.670
Radial Grid Type                 RadialGrid  ... Gauss-Chebyshev
Angular Grid (max. acc.)         AngularGrid ... Lebedev-302
Angular grid pruning method      GridPruning ... 3 (G Style)
Weight generation scheme         WeightScheme... Becke
Basis function cutoff            BFCut       ...    1.0000e-11
Integration weight cutoff        WCut        ...    1.0000e-14
Grids for H and He will be reduced by one unit

# of grid points (after initial pruning)     ... 631882 (   1.7 sec)
# of grid points (after weights+screening)   ... 529133 (  36.6 sec)
nearest neighbour list constructed           ...    0.0 sec
Grid point re-assignment to atoms done       ...    0.1 sec
Grid point division into batches done        ...    1.8 sec
Reduced shell lists constructed in   11.1 sec

Total number of grid points                  ...   529133
Total number of batches                      ...     8332
Average number of points per batch           ...       63
Average number of grid points per atom       ...     4373
Average number of shells per batch           ...   116.45 (19.15%)
Average number of basis functions per batch  ...   231.33 (17.45%)
Average number of large shells per batch     ...    65.61 (56.35%)
Average number of large basis fcns per batch ...   133.01 (57.50%)
Maximum spatial batch extension              ...  22.11, 21.05, 21.38 au
Average spatial batch extension              ...   2.09,  2.12,  2.06 au

Time for grid setup =   49.447 sec

------------------------------
INITIAL GUESS: MODEL POTENTIAL
------------------------------
Loading Hartree-Fock densities                     ... done
Calculating cut-offs                               ... done
Setting up the integral package                    ... done
Initializing the effective Hamiltonian             ... done
Starting the Coulomb interaction                   ... done (  14.0 sec)
Reading the grid                                   ... done
Mapping shells                                     ... done
Starting the XC term evaluation                    ... done (  11.8 sec)
  promolecular density results
     # of electrons  =    589.977536027
     EX              =   -568.189139867
     EC              =    -20.648055542
     EX+EC           =   -588.837195408
Transforming the Hamiltonian                       ... done (   0.2 sec)
Diagonalizing the Hamiltonian                      ... done (   0.5 sec)
Back transforming the eigenvectors                 ... done (   0.1 sec)
Now organizing SCF variables                       ... done
                      ------------------
                      INITIAL GUESS DONE (  76.4 sec)
                      ------------------
--------------------
COSX GRID GENERATION
--------------------

General Integration Accuracy     IntAcc      ...  3.340
Radial Grid Type                 RadialGrid  ... Gauss-Chebyshev
Angular Grid (max. acc.)         AngularGrid ... Lebedev-50
Angular grid pruning method      GridPruning ... 3 (G Style)
Weight generation scheme         WeightScheme... Becke
Basis function cutoff            BFCut       ...    1.0000e-11
Integration weight cutoff        WCut        ...    1.0000e-14
Grids for H and He will be reduced by one unit

# of grid points (after initial pruning)     ...  59510 (   0.1 sec)
# of grid points (after weights+screening)   ...  52281 (   3.5 sec)
nearest neighbour list constructed           ...    0.0 sec
Grid point re-assignment to atoms done       ...    0.0 sec
Grid point division into batches done        ...    0.0 sec
Reduced shell lists constructed in    1.2 sec

Total number of grid points                  ...    52281
Total number of batches                      ...      881
Average number of points per batch           ...       59
Average number of grid points per atom       ...      432
Average number of shells per batch           ...   142.65 (23.46%)
Average number of basis functions per batch  ...   286.29 (21.59%)
Average number of large shells per batch     ...    80.55 (56.47%)
Average number of large basis fcns per batch ...   165.57 (57.83%)
Maximum spatial batch extension              ...  19.21, 21.72, 16.28 au
Average spatial batch extension              ...   4.40,  4.49,  4.20 au

Overlap Fitting                  UseSFitting ... on
Constructing numerical overlap ... done (      0.9 sec)
Inverting numerical overlap    ... done (      0.1 sec)
Obtaining analytic overlap     ... done (      0.0 sec)
Final contraction and storage  ... done (      0.1 sec)


General Integration Accuracy     IntAcc      ...  3.670
Radial Grid Type                 RadialGrid  ... Gauss-Chebyshev
Angular Grid (max. acc.)         AngularGrid ... Lebedev-50
Angular grid pruning method      GridPruning ... 3 (G Style)
Weight generation scheme         WeightScheme... Becke
Basis function cutoff            BFCut       ...    1.0000e-11
Integration weight cutoff        WCut        ...    1.0000e-14
Grids for H and He will be reduced by one unit

# of grid points (after initial pruning)     ...  74694 (   0.1 sec)
# of grid points (after weights+screening)   ...  65364 (   4.3 sec)
nearest neighbour list constructed           ...    0.0 sec
Grid point re-assignment to atoms done       ...    0.0 sec
Grid point division into batches done        ...    0.0 sec
Reduced shell lists constructed in    1.5 sec

Total number of grid points                  ...    65364
Total number of batches                      ...     1082
Average number of points per batch           ...       60
Average number of grid points per atom       ...      540
Average number of shells per batch           ...   139.06 (22.87%)
Average number of basis functions per batch  ...   278.78 (21.02%)
Average number of large shells per batch     ...    78.39 (56.37%)
Average number of large basis fcns per batch ...   160.68 (57.64%)
Maximum spatial batch extension              ...  22.63, 27.21, 17.92 au
Average spatial batch extension              ...   4.07,  4.13,  3.88 au

Overlap Fitting                  UseSFitting ... on
Constructing numerical overlap ... done (      1.1 sec)
Inverting numerical overlap    ... done (      0.1 sec)
Obtaining analytic overlap     ... done (      0.0 sec)
Final contraction and storage  ... done (      0.1 sec)


General Integration Accuracy     IntAcc      ...  4.010
Radial Grid Type                 RadialGrid  ... Gauss-Chebyshev
Angular Grid (max. acc.)         AngularGrid ... Lebedev-110
Angular grid pruning method      GridPruning ... 3 (G Style)
Weight generation scheme         WeightScheme... Becke
Basis function cutoff            BFCut       ...    1.0000e-11
Integration weight cutoff        WCut        ...    1.0000e-14
Grids for H and He will be reduced by one unit

# of grid points (after initial pruning)     ... 143532 (   0.3 sec)
# of grid points (after weights+screening)   ... 124413 (   8.4 sec)
nearest neighbour list constructed           ...    0.0 sec
Grid point re-assignment to atoms done       ...    0.0 sec
Grid point division into batches done        ...    0.1 sec
Reduced shell lists constructed in    2.8 sec

Total number of grid points                  ...   124413
Total number of batches                      ...     2005
Average number of points per batch           ...       62
Average number of grid points per atom       ...     1028
Average number of shells per batch           ...   131.57 (21.64%)
Average number of basis functions per batch  ...   263.48 (19.87%)
Average number of large shells per batch     ...    74.53 (56.65%)
Average number of large basis fcns per batch ...   152.51 (57.88%)
Maximum spatial batch extension              ...  24.23, 23.42, 20.33 au
Average spatial batch extension              ...   3.41,  3.41,  3.28 au

Overlap Fitting                  UseSFitting ... on
Constructing numerical overlap ... done (      1.8 sec)
Inverting numerical overlap    ... done (      0.1 sec)
Obtaining analytic overlap     ... done (      0.0 sec)
Final contraction and storage  ... done (      0.1 sec)

Time for X-Grid setup             =   26.512 sec
--------------
SCF ITERATIONS
--------------
ITER       Energy         Delta-E        Max-DP      RMS-DP      [F,P]     Damp
               ***  Starting incremental Fock matrix formation  ***
  0  -5806.5262182077   0.000000000000 0.07823032  0.00091775  0.2261877 0.7000
  1  -5807.2107703364  -0.684552128760 0.04634629  0.00064069  0.0969182 0.7000
                               ***Turning on DIIS***
  2  -5807.5018462674  -0.291075930925 0.07058378  0.00115855  0.0430695 0.0000
  3  -5807.9823713643  -0.480525096929 0.06816577  0.00047342  0.0516726 0.0000
  4  -5808.0703871526  -0.088015788309 0.01730266  0.00015045  0.0227522 0.0000
  5  -5808.0771484958  -0.006761343246 0.00789970  0.00006161  0.0080897 0.0000
  6  -5808.0784015250  -0.001253029150 0.00499747  0.00003652  0.0023057 0.0000
                      *** Initiating the SOSCF procedure ***
                           *** Shutting down DIIS ***
                      *** Re-Reading the Fockian *** 
                      *** Removing any level shift *** 
ITER      Energy       Delta-E        Grad      Rot      Max-DP    RMS-DP
  7  -5808.07886566  -0.0004641394  0.003170  0.003170  0.002883  0.000044
               *** Restarting incremental Fock matrix formation ***
  8  -5808.07909418  -0.0002285116  0.000847  0.005562  0.002638  0.000023
  9  -5808.07913188  -0.0000377087  0.000443  0.005236  0.001244  0.000016
 10  -5808.07916536  -0.0000334704  0.000128  0.000695  0.000899  0.000007
 11  -5808.07916603  -0.0000006790  0.000127  0.000416  0.000377  0.000003
 12  -5808.07916883  -0.0000027976  0.000041  0.000272  0.000206  0.000002
 13  -5808.07916901  -0.0000001763  0.000050  0.000183  0.000128  0.000001
 14  -5808.07916931  -0.0000002996  0.000007  0.000043  0.000049  0.000000
 15  -5808.07916922   0.0000000905  0.000006  0.000020  0.000029  0.000000
                  ***Gradient check signals convergence***
              ***Rediagonalizing the Fockian in SOSCF/NRSCF***

               *****************************************************
               *                     SUCCESS                       *
               *           SCF CONVERGED AFTER  16 CYCLES          *
               *****************************************************

Setting up the final grid:

General Integration Accuracy     IntAcc      ...  5.010
Radial Grid Type                 RadialGrid  ... Gauss-Chebyshev
Angular Grid (max. acc.)         AngularGrid ... Lebedev-434
Angular grid pruning method      GridPruning ... 3 (G Style)
Weight generation scheme         WeightScheme... Becke
Basis function cutoff            BFCut       ...    1.0000e-11
Integration weight cutoff        WCut        ...    1.0000e-14
Grids for H and He will be reduced by one unit

# of grid points (after initial pruning)     ... 1125200 (   2.1 sec)
# of grid points (after weights+screening)   ... 938573 (  63.2 sec)
nearest neighbour list constructed           ...    0.0 sec
Grid point re-assignment to atoms done       ...    0.1 sec
Grid point division into batches done        ...    5.8 sec
Reduced shell lists constructed in   20.0 sec

Total number of grid points                  ...   938573
Total number of batches                      ...    14723
Average number of points per batch           ...       63
Average number of grid points per atom       ...     7757
Average number of shells per batch           ...   112.22 (18.46%)
Average number of basis functions per batch  ...   222.15 (16.75%)
Average number of large shells per batch     ...    63.16 (56.29%)
Average number of large basis fcns per batch ...   127.57 (57.42%)
Maximum spatial batch extension              ...  20.76, 21.07, 22.14 au
Average spatial batch extension              ...   1.69,  1.71,  1.67 au

Final grid set up in   85.3 sec
Final integration                            ... done (  24.7 sec)
Change in XC energy                          ...    -0.000027576
Integrated number of electrons               ...   589.999680221
Previous integrated no of electrons          ...   589.999563941
Old exchange energy                            =   -155.839655017 Eh
New exchange energy                            =   -155.836972780 Eh
Exchange energy change after final integration =      0.002682237 Eh
Total energy after final integration           =  -5808.076514620 Eh
Final COS-X integration done in                =   555.623 sec

----------------
TOTAL SCF ENERGY
----------------

Total Energy       :        -5808.07651462 Eh         -158045.79686 eV

Components:
Nuclear Repulsion  :        13757.48093917 Eh          374360.08845 eV
Electronic Energy  :       -19565.55745379 Eh         -532405.88531 eV
One Electron Energy:       -35369.67043204 Eh         -962457.66286 eV
Two Electron Energy:        15804.11297825 Eh          430051.77755 eV

Virial components:
Potential Energy   :       -11581.54359087 Eh         -315149.82302 eV
Kinetic Energy     :         5773.46707625 Eh          157104.02616 eV
Virial Ratio       :            2.00599457


DFT components:
N(Alpha)           :      294.999840110408 electrons
N(Beta)            :      294.999840110408 electrons
N(Total)           :      589.999680220816 electrons
E(XC)              :     -442.345019625077 Eh       
DFET-embed. en.    :        0.000000000000 Eh       

---------------
SCF CONVERGENCE
---------------

  Last Energy change         ...   -6.4025e-08  Tolerance :   1.0000e-08
  Last MAX-Density change    ...    1.1102e-14  Tolerance :   1.0000e-07
  Last RMS-Density change    ...    3.5311e-17  Tolerance :   5.0000e-09
  Last Orbital Gradient      ...    1.4028e-06  Tolerance :   1.0000e-05
  Last Orbital Rotation      ...    1.1149e-05  Tolerance :   1.0000e-05

             **** THE GBW FILE WAS UPDATED (H2.gbw) ****
             **** DENSITY FILE WAS UPDATED (H2.scfp) ****
             **** ENERGY FILE WAS UPDATED (H2.en.tmp) ****
             **** THE GBW FILE WAS UPDATED (H2.gbw) ****
             **** DENSITY FILE WAS UPDATED (H2.scfp) ****
----------------
ORBITAL ENERGIES
----------------

  NO   OCC          E(Eh)            E(eV) 
   0   2.0000    -101.595212     -2764.5463 
   1   2.0000    -101.594526     -2764.5276 
   2   2.0000     -89.008679     -2422.0493 
   3   2.0000     -88.974189     -2421.1108 
   4   2.0000     -88.972930     -2421.0765 
   5   2.0000     -88.967084     -2420.9174 
   6   2.0000     -88.966032     -2420.8888 
   7   2.0000     -19.218452      -522.9607 
   8   2.0000     -19.214647      -522.8571 
   9   2.0000     -14.487858      -394.2347 
  10   2.0000     -14.487655      -394.2291 
  11   2.0000     -14.431852      -392.7107 
  12   2.0000     -14.431762      -392.7082 
  13   2.0000     -14.417540      -392.3212 
  14   2.0000     -14.416669      -392.2975 
  15   2.0000     -14.415446      -392.2642 
  16   2.0000     -14.414143      -392.2288 
  17   2.0000     -10.369979      -282.1815 
  18   2.0000     -10.366354      -282.0828 
  19   2.0000     -10.349270      -281.6180 
  20   2.0000     -10.349075      -281.6126 
  21   2.0000     -10.344338      -281.4838 
  22   2.0000     -10.344129      -281.4781 
  23   2.0000     -10.342936      -281.4456 
  24   2.0000     -10.342621      -281.4370 
  25   2.0000     -10.342399      -281.4310 
  26   2.0000     -10.342138      -281.4239 
  27   2.0000     -10.329645      -281.0839 
  28   2.0000     -10.328671      -281.0574 
  29   2.0000     -10.325337      -280.9667 
  30   2.0000     -10.324895      -280.9547 
  31   2.0000     -10.324706      -280.9495 
  32   2.0000     -10.324261      -280.9374 
  33   2.0000     -10.324053      -280.9318 
  34   2.0000     -10.321459      -280.8612 
  35   2.0000     -10.320126      -280.8249 
  36   2.0000     -10.319954      -280.8202 
  37   2.0000     -10.319636      -280.8116 
  38   2.0000     -10.319338      -280.8034 
  39   2.0000     -10.318003      -280.7671 
  40   2.0000     -10.316913      -280.7375 
  41   2.0000     -10.315114      -280.6885 
  42   2.0000     -10.314968      -280.6846 
  43   2.0000     -10.313502      -280.6447 
  44   2.0000     -10.313477      -280.6440 
  45   2.0000     -10.310817      -280.5716 
  46   2.0000     -10.309451      -280.5344 
  47   2.0000     -10.309055      -280.5237 
  48   2.0000     -10.308723      -280.5146 
  49   2.0000     -10.307496      -280.4812 
  50   2.0000     -10.305773      -280.4343 
  51   2.0000     -10.303455      -280.3713 
  52   2.0000     -10.303037      -280.3599 
  53   2.0000     -10.302914      -280.3565 
  54   2.0000     -10.302816      -280.3539 
  55   2.0000     -10.302610      -280.3483 
  56   2.0000     -10.301896      -280.3289 
  57   2.0000     -10.297631      -280.2128 
  58   2.0000     -10.295756      -280.1618 
  59   2.0000     -10.295212      -280.1470 
  60   2.0000     -10.293908      -280.1115 
  61   2.0000     -10.293737      -280.1068 
  62   2.0000     -10.293375      -280.0970 
  63   2.0000     -10.286419      -279.9077 
  64   2.0000     -10.286353      -279.9059 
  65   2.0000     -10.282832      -279.8101 
  66   2.0000     -10.278696      -279.6975 
  67   2.0000     -10.277192      -279.6566 
  68   2.0000     -10.272577      -279.5310 
  69   2.0000     -10.270042      -279.4620 
  70   2.0000     -10.266000      -279.3521 
  71   2.0000     -10.265432      -279.3366 
  72   2.0000     -10.261622      -279.2329 
  73   2.0000     -10.258428      -279.1460 
  74   2.0000     -10.257234      -279.1135 
  75   2.0000     -10.252928      -278.9963 
  76   2.0000     -10.252824      -278.9935 
  77   2.0000      -9.550354      -259.8783 
  78   2.0000      -9.549665      -259.8596 
  79   2.0000      -8.100848      -220.4353 
  80   2.0000      -8.067920      -219.5393 
  81   2.0000      -8.067435      -219.5261 
  82   2.0000      -8.061160      -219.3553 
  83   2.0000      -8.059892      -219.3208 
  84   2.0000      -7.320518      -199.2014 
  85   2.0000      -7.319879      -199.1840 
  86   2.0000      -7.310628      -198.9323 
  87   2.0000      -7.310122      -198.9185 
  88   2.0000      -7.309910      -198.9128 
  89   2.0000      -7.309395      -198.8988 
  90   2.0000      -6.072366      -165.2375 
  91   2.0000      -6.064720      -165.0294 
  92   2.0000      -6.062458      -164.9679 
  93   2.0000      -6.037642      -164.2926 
  94   2.0000      -6.037119      -164.2784 
  95   2.0000      -6.033559      -164.1815 
  96   2.0000      -6.032984      -164.1658 
  97   2.0000      -6.030993      -164.1117 
  98   2.0000      -6.029766      -164.0783 
  99   2.0000      -6.029362      -164.0673 
 100   2.0000      -6.028897      -164.0546 
 101   2.0000      -6.027009      -164.0033 
 102   2.0000      -6.025700      -163.9676 
 103   2.0000      -6.022185      -163.8720 
 104   2.0000      -6.020928      -163.8378 
 105   2.0000      -1.133913       -30.8553 
 106   2.0000      -1.129558       -30.7368 
 107   2.0000      -1.119511       -30.4634 
 108   2.0000      -1.111866       -30.2554 
 109   2.0000      -1.105483       -30.0817 
 110   2.0000      -1.023647       -27.8549 
 111   2.0000      -1.021981       -27.8095 
 112   2.0000      -1.015814       -27.6417 
[...]
   6      3.48     356.4   107 -> 110      gap,J,K:    5.060     1.680     0.049
   7      3.59     345.5   105 -> 109      gap,J,K:    5.219     1.843     0.106
   8      3.61     343.4   108 -> 113      gap,J,K:    5.416     2.238     0.216
   9      3.66     338.6   106 -> 110      gap,J,K:    5.171     1.831     0.160
  10      3.86     321.4   105 -> 110      gap,J,K:    5.466     1.715     0.054
  11      4.19     295.7   104 -> 109      gap,J,K:    5.655     1.879     0.208
  12      4.23     293.1   106 -> 111      gap,J,K:    5.782     1.750     0.099
  13      4.27     290.6   107 -> 111      gap,J,K:    5.672     1.516     0.056
  14      4.36     284.4   103 -> 109      gap,J,K:    5.877     1.791     0.137
  15      4.38     283.0   107 -> 112      gap,J,K:    5.824     1.533     0.045
  16      4.46     278.1   106 -> 112      gap,J,K:    5.935     1.672     0.098
  17      4.46     278.0   102 -> 109      gap,J,K:    5.987     1.764     0.118
  18      4.49     276.4   104 -> 110      gap,J,K:    5.901     1.850     0.217
  19      4.55     272.3   107 -> 113      gap,J,K:    6.338     2.380     0.298
  20      4.57     271.1   108 -> 114      gap,J,K:    6.204     1.927     0.148
  21      4.62     268.6   105 -> 111      gap,J,K:    6.077     1.533     0.036
  22      4.64     267.5   103 -> 110      gap,J,K:    6.124     1.738     0.125
  23      4.65     266.8   101 -> 109      gap,J,K:    6.052     1.618     0.106
  24      4.71     263.4   106 -> 113      gap,J,K:    6.448     1.951     0.105

average / max PT2 energy lowering (eV):       0.044       0.088

CSF included by PT:                   210 
total number of CSF included:         245 
 
sTD-DFT procedure...
setting up A+B and A-B matrices...  done
estimated time (min):    0.001
calculating (A-B)^0.5 ... done
calculating (A+B)*(A-B)^0.5 ... done
calculating (A-B)^0.5 *(A+B)*(A-B)^0.5 ... done
diagonalizing ...using LAPACKE_ssyevr ...done

   39 roots found, lowest/highest eigenvalue :     2.019     4.984

excitation energies, transition moments and amplitudes

molecular weight: 1140.272
state   eV        nm        fL         fV        Rl        RV
   0   2.019     614.1   1.553217   1.797420  -369.306973  -379.953861     0.87 ( 108-> 109)    0.08 ( 106-> 110)    0.02 ( 107-> 110)
   1   2.386     519.6   0.682655   0.789876  202.286275  226.514609     0.79 ( 108-> 110)    0.11 ( 106-> 109)    0.03 ( 107-> 109)
   2   2.922     424.2   0.065437   0.060314  -116.646004  -117.008854     0.55 ( 107-> 109)    0.13 ( 105-> 110)    0.11 ( 107-> 110)
   3   2.963     418.5   0.138662   0.132914  41.678175  42.290022     0.70 ( 108-> 111)    0.11 ( 106-> 111)    0.04 ( 106-> 112)
   4   3.096     400.5   0.184159   0.169991   4.843103  11.027813     0.28 ( 105-> 109)    0.22 ( 107-> 110)    0.12 ( 107-> 109)
   5   3.107     399.0   0.118798   0.117260  58.542530  59.014902     0.60 ( 108-> 112)    0.07 ( 107-> 110)    0.05 ( 108-> 113)
   6   3.225     384.4   0.128689   0.136480   6.077441   5.645279     0.56 ( 106-> 109)    0.13 ( 108-> 110)    0.09 ( 104-> 110)
   7   3.348     370.4   0.090497   0.088354   0.811802   0.008469     0.78 ( 108-> 113)    0.03 ( 108-> 114)    0.03 ( 106-> 112)
   8   3.437     360.7   0.054056   0.043628  175.344435  161.030174     0.41 ( 106-> 110)    0.24 ( 104-> 109)    0.07 ( 108-> 109)
   9   3.611     343.4   0.031258   0.029627  41.929316  34.247839     0.30 ( 105-> 110)    0.19 ( 107-> 110)    0.13 ( 103-> 109)
  10   3.707     334.4   0.132417   0.128389  -64.992833  -68.792903     0.18 ( 102-> 109)    0.07 ( 105-> 110)    0.06 (  97-> 109)
  11   3.741     331.4   0.009529   0.008256   8.445795   4.319261     0.23 ( 105-> 109)    0.20 ( 107-> 110)    0.11 ( 103-> 109)
  12   3.791     327.1   0.086830   0.084191  -84.268323  -90.102077     0.16 ( 106-> 110)    0.15 (  96-> 111)    0.10 ( 108-> 111)
  13   3.860     321.2   0.078209   0.071567  46.197020  40.055855     0.23 ( 101-> 110)    0.22 ( 101-> 109)    0.06 ( 103-> 109)
  14   3.907     317.4   0.030799   0.026800  -55.380152  -52.339561     0.19 ( 100-> 109)    0.14 ( 100-> 110)    0.12 (  97-> 109)
  15   3.969     312.4   0.053099   0.045024  -26.859098  -32.669093     0.16 ( 106-> 111)    0.11 (  96-> 110)    0.10 (  96-> 109)
  16   4.012     309.0   0.096439   0.090711  38.937337  37.880079     0.30 (  97-> 112)    0.15 ( 100-> 112)    0.10 (  98-> 112)
  17   4.038     307.0   0.048706   0.044774  45.318918  48.432871     0.38 ( 107-> 111)    0.19 ( 105-> 111)    0.04 ( 102-> 109)
  18   4.101     302.3   0.009791   0.008847  11.248502  14.487949     0.19 ( 105-> 112)    0.16 ( 107-> 112)    0.13 ( 107-> 111)
  19   4.151     298.7   0.112105   0.095276  135.336005  127.794339     0.26 ( 107-> 113)    0.20 ( 107-> 112)    0.11 ( 102-> 109)
  20   4.186     296.2   0.118636   0.106392  366.610761  336.804368     0.18 ( 106-> 111)    0.07 ( 106-> 112)    0.06 ( 108-> 112)
  21   4.210     294.5   0.001186   0.001680   4.260486   3.594051     0.31 ( 104-> 109)    0.07 ( 106-> 110)    0.06 ( 108-> 114)
  22   4.237     292.6   0.150582   0.135716  -289.809003  -274.511081     0.15 ( 107-> 113)    0.09 ( 106-> 111)    0.08 (  96-> 111)
  23   4.277     289.9   0.054417   0.049670  -75.707520  -77.279895     0.26 ( 105-> 110)    0.17 ( 107-> 113)    0.16 ( 103-> 109)
  24   4.302     288.2   0.037444   0.030233  19.261108  20.317216     0.19 ( 106-> 112)    0.08 ( 108-> 114)    0.07 ( 104-> 110)
  25   4.334     286.1   0.054668   0.048215  114.062621  101.156938     0.20 ( 100-> 109)    0.13 (  97-> 109)    0.10 ( 104-> 110)
  26   4.414     280.9   0.317335   0.290048  19.920334  18.229211     0.57 ( 108-> 114)    0.06 ( 106-> 112)    0.05 ( 108-> 113)
  27   4.491     276.1   0.315940   0.279833  -601.594409  -565.994605     0.14 (  98-> 109)    0.10 (  96-> 109)    0.09 ( 106-> 112)
  28   4.540     273.1   0.031251   0.026901  -29.002460  -24.488956     0.44 ( 105-> 113)    0.10 (  99-> 109)    0.09 ( 105-> 111)
  29   4.583     270.5   0.083812   0.072316  32.476926  26.272119     0.17 ( 104-> 110)    0.15 ( 108-> 115)    0.15 ( 106-> 113)
  30   4.625     268.0   0.027459   0.021133   9.856464   8.431267     0.47 ( 106-> 113)    0.08 ( 104-> 110)    0.06 ( 105-> 113)
  31   4.679     265.0   0.293167   0.249621  1548.848571  1428.599872     0.28 ( 108-> 115)    0.09 ( 106-> 113)    0.06 ( 101-> 110)
  32   4.716     262.9   0.394513   0.331512  -1206.127966  -1121.714160     0.20 ( 108-> 115)    0.12 ( 103-> 111)    0.10 ( 101-> 111)
  33   4.733     262.0   0.107384   0.091461  -550.640766  -508.715274     0.15 ( 105-> 112)    0.12 ( 103-> 112)    0.08 ( 107-> 111)
  34   4.773     259.7   0.254814   0.207934  295.372169  275.526711     0.19 ( 105-> 111)    0.10 ( 102-> 111)    0.09 ( 108-> 115)
  35   4.826     256.9   0.179837   0.147187  92.306471  95.441779     0.16 ( 102-> 112)    0.11 ( 103-> 110)    0.08 (  99-> 110)
  36   4.859     255.2   0.001142   0.000722  34.930743  26.359193     0.22 (  99-> 109)    0.19 ( 103-> 110)    0.09 (  95-> 109)
  37   4.881     254.0   0.037007   0.029751  -107.082760  -96.186816     0.18 ( 105-> 112)    0.09 (  99-> 110)    0.09 ( 107-> 112)
  38   4.984     248.8   0.112983   0.088121  30.415688  24.291704     0.17 ( 101-> 111)    0.15 (  98-> 111)    0.13 ( 100-> 111)

-----------------------------------------------------------------------------
         ABSORPTION SPECTRUM VIA TRANSITION ELECTRIC DIPOLE MOMENTS
-----------------------------------------------------------------------------
State   Energy  Wavelength   fosc         T2         TX        TY        TZ  
        (cm-1)    (nm)                  (au**2)     (au)      (au)      (au) 
-----------------------------------------------------------------------------
   0   16284.0    614.1   1.553217244  31.40124  -3.93108  -3.91688   0.77839
   1   19245.5    519.6   0.682654773  11.67747  -0.18299  -1.39399   3.11461
   2   23571.4    424.2   0.065436526   0.91392  -0.81858   0.01564  -0.49357
   3   23894.5    418.5   0.138662500   1.91045  -0.52133  -1.23227   0.34665
   4   24971.1    400.5   0.184159420   2.42790   1.31823   0.68657   0.46774
   5   25060.4    399.0   0.118797524   1.56061   1.20444   0.32847   0.04516
   6   26014.2    384.4   0.128688536   1.62857   0.04564   0.18197  -1.26229
   7   27000.9    370.4   0.090496768   1.10339   0.02315  -0.43617   0.95531
   8   27721.5    360.7   0.054055909   0.64195  -0.06603  -0.33702   0.72389
   9   29122.4    343.4   0.031257999   0.35335   0.44761   0.30520  -0.24463
  10   29901.1    334.4   0.132416812   1.45791  -1.15029   0.00629  -0.36701
  11   30173.3    331.4   0.009528661   0.10396   0.23439  -0.21651   0.04637
  12   30573.6    327.1   0.086829544   0.93497   0.18513   0.71783  -0.62081
  13   31133.0    321.2   0.078208649   0.82701  -0.06541   0.67327   0.60782
  14   31510.9    317.4   0.030799249   0.32178  -0.51430  -0.03781  -0.23630
  15   32014.5    312.4   0.053099050   0.54603  -0.58454   0.34319  -0.29423
  16   32360.7    309.0   0.096439354   0.98110   0.96564   0.20868  -0.07136
  17   32569.0    307.0   0.048706047   0.49233   0.02993  -0.52616  -0.46324
  18   33076.6    302.3   0.009791166   0.09745  -0.21275  -0.12339   0.19226
  19   33476.7    298.7   0.112104826   1.10244   0.41317  -0.58462   0.76808
  20   33760.2    296.2   0.118636063   1.15688   0.94259  -0.49828   0.14183
  21   33953.7    294.5   0.001185581   0.01150  -0.06268  -0.07101   0.05024
  22   34173.7    292.6   0.150582307   1.45063   0.50846   0.27160   1.05752
  23   34499.6    289.9   0.054417130   0.51927   0.33630   0.19700   0.60611
  24   34698.0    288.2   0.037444453   0.35527   0.41469   0.33405  -0.26779
  25   34955.2    286.1   0.054667587   0.51487  -0.68440   0.13129   0.17097
  26   35605.1    280.9   0.317334560   2.93414  -1.02002  -1.22820   0.62065
  27   36221.8    276.1   0.315939828   2.87151  -1.36177  -0.88952  -0.47524
  28   36619.1    273.1   0.031250993   0.28095  -0.18953  -0.24082   0.43248
  29   36963.7    270.5   0.083812043   0.74646   0.72704   0.45055  -0.12195
  30   37306.9    268.0   0.027459304   0.24231   0.03181   0.25707  -0.41859
  31   37740.1    265.0   0.293166900   2.55734   0.94417  -1.24839  -0.32773
  32   38037.4    262.9   0.394513394   3.41449   0.57720   0.64511   1.63254
  33   38175.1    262.0   0.107384321   0.92605  -0.91477  -0.10716  -0.27886
  34   38499.8    259.7   0.254813754   2.17892  -0.81456   0.03214   1.23060
  35   38920.3    256.9   0.179836620   1.52117  -0.68042   0.13968   1.01916
  36   39190.0    255.2   0.001142248   0.00960  -0.06543   0.04359  -0.05843
  37   39367.6    254.0   0.037006759   0.30947   0.47137  -0.20758   0.21022
  38   40199.1    248.8   0.112983054   0.92528   0.45371   0.71316  -0.45916

-----------------------------------------------------------------------------
         ABSORPTION SPECTRUM VIA TRANSITION VELOCITY DIPOLE MOMENTS
-----------------------------------------------------------------------------
State   Energy  Wavelength   fosc         P2         PX        PY        PZ  
        (cm-1)    (nm)                  (au**2)     (au)      (au)      (au) 
-----------------------------------------------------------------------------
   0   16284.0    614.1   1.797420368   0.20004  -0.31490  -0.31217   0.05859
   1   19245.5    519.6   0.789875503   0.10389  -0.01434  -0.12733   0.29576
   2   23571.4    424.2   0.060314368   0.00972  -0.08618  -0.00185  -0.04781
   3   23894.5    418.5   0.132914293   0.02171  -0.05675  -0.13077   0.03721
   4   24971.1    400.5   0.169990784   0.02901   0.14357   0.07401   0.05407
   5   25060.4    399.0   0.117260363   0.02008   0.13666   0.03712   0.00543
   6   26014.2    384.4   0.136479850   0.02427   0.00405   0.02021  -0.15440
   7   27000.9    370.4   0.088353526   0.01630   0.00344  -0.05224   0.11646
   8   27721.5    360.7   0.043627749   0.00827   0.00033  -0.03498   0.08392
   9   29122.4    343.4   0.029626614   0.00590   0.05532   0.04106  -0.03393
  10   29901.1    334.4   0.128388605   0.02624  -0.15494  -0.00101  -0.04721
  11   30173.3    331.4   0.008256396   0.00170   0.03055  -0.02759   0.00285
  12   30573.6    327.1   0.084190727   0.01759   0.02647   0.10095  -0.08186
  13   31133.0    321.2   0.071566519   0.01523  -0.01132   0.08901   0.08471
  14   31510.9    317.4   0.026799958   0.00577  -0.06779  -0.00187  -0.03424
  15   32014.5    312.4   0.045024033   0.00985  -0.07799   0.04885  -0.03717
  16   32360.7    309.0   0.090711468   0.02006   0.13777   0.03090  -0.01129
  17   32569.0    307.0   0.044774272   0.00997   0.00686  -0.07422  -0.06642
  18   33076.6    302.3   0.008847301   0.00200  -0.03276  -0.01611   0.02583
  19   33476.7    298.7   0.095275519   0.02180   0.05931  -0.08037   0.10873
  20   33760.2    296.2   0.106391784   0.02455   0.13733  -0.07332   0.01767
  21   33953.7    294.5   0.001679918   0.00039  -0.01169  -0.01424   0.00711
  22   34173.7    292.6   0.135716240   0.03170   0.07452   0.03930   0.15685
  23   34499.6    289.9   0.049670118   0.01171   0.05174   0.02888   0.09056
  24   34698.0    288.2   0.030232602   0.00717   0.05977   0.04798  -0.03600
  25   34955.2    286.1   0.048215164   0.01152  -0.10141   0.02048   0.02855
  26   35605.1    280.9   0.290048489   0.07058  -0.15737  -0.19074   0.09713
  27   36221.8    276.1   0.279832717   0.06927  -0.21100  -0.13914  -0.07345
  28   36619.1    273.1   0.026900924   0.00673  -0.02957  -0.03587   0.06761
  29   36963.7    270.5   0.072315616   0.01827   0.11338   0.07005  -0.02252
  30   37306.9    268.0   0.021133398   0.00539   0.00554   0.03908  -0.06189
  31   37740.1    265.0   0.249620760   0.06439   0.15205  -0.19612  -0.05294
  32   38037.4    262.9   0.331511659   0.08618   0.09415   0.10334   0.25814
  33   38175.1    262.0   0.091461062   0.02386  -0.14684  -0.01703  -0.04485
  34   38499.8    259.7   0.207933678   0.05471  -0.12960   0.00632   0.19462
  35   38920.3    256.9   0.147186750   0.03915  -0.11169   0.02370   0.16160
  36   39190.0    255.2   0.000722331   0.00019  -0.01037   0.00408  -0.00833
  37   39367.6    254.0   0.029750979   0.00800   0.07615  -0.03290   0.03352
  38   40199.1    248.8   0.088120951   0.02421   0.07375   0.11646  -0.07216

-------------------------------------------------------------------
                             CD SPECTRUM
-------------------------------------------------------------------
State   Energy Wavelength       R         MX        MY        MZ   
        (cm-1)   (nm)       (1e40*cgs)   (au)      (au)      (au)  
-------------------------------------------------------------------
   0   16284.0    614.1    -369.30697   3.53620  -3.97138  -0.11257
   1   19245.5    519.6    202.28628   4.02007  -2.97243  -1.36969
   2   23571.4    424.2    -116.64600  -1.14498   0.74478   0.91995
   3   23894.5    418.5     41.67818   0.07324  -0.33389  -1.58682
   4   24971.1    400.5      4.84310   0.30655   0.04590  -0.97525
   5   25060.4    399.0     58.54253  -0.33943   0.62898  -1.02164
   6   26014.2    384.4      6.07744  -2.00982   1.34725   0.14197
   7   27000.9    370.4      0.81180   1.18257  -0.34020  -0.18759
   8   27721.5    360.7    175.34444  -0.34399   0.65843  -0.75243
   9   29122.4    343.4     41.92932  -1.01069   1.13553   0.29450
  10   29901.1    334.4    -64.99283  -0.54388  -0.27621   0.94864
  11   30173.3    331.4      8.44580  -0.03326  -0.01535  -0.67628
  12   30573.6    327.1    -84.26832  -1.56606   1.48423   0.67334
  13   31133.0    321.2     46.19702   3.06471  -2.06458   2.29426
  14   31510.9    317.4    -55.38015  -0.47665   0.28944  -0.00313
  15   32014.5    312.4    -26.85910  -0.66788   0.55453   1.58641
  16   32360.7    309.0     38.93734  -0.15377  -0.06241   0.05147
  17   32569.0    307.0     45.31892  -1.66557   1.10635  -0.94921
  18   33076.6    302.3     11.24850   0.63174  -0.45331   0.15994
  19   33476.7    298.7    135.33601   1.39972  -1.07359  -2.31759
  20   33760.2    296.2    366.61076  -0.90928   0.70425  -2.44847
  21   33953.7    294.5      4.26049  -0.57129   0.33793  -0.59485
  22   34173.7    292.6    -289.80900   3.15010  -1.81474   0.11408
  23   34499.6    289.9    -75.70752   1.90915  -1.26792  -0.11729
  24   34698.0    288.2     19.26111  -1.14368   0.63702  -0.67130
  25   34955.2    286.1    114.06262   0.88730  -0.71130   1.26789
  26   35605.1    280.9     19.92033   1.08846  -1.20598  -0.73380
  27   36221.8    276.1    -601.59441  -0.73738  -0.87027  -1.62839
  28   36619.1    273.1    -29.00246   1.50423  -1.12353   0.31809
  29   36963.7    270.5     32.47693  -0.26354  -0.08888  -0.76974
  30   37306.9    268.0      9.85646  -1.12448   0.96960   0.60990
  31   37740.1    265.0    1548.84857  -4.78533   3.06645  -5.41794
  32   38037.4    262.9    -1206.12797   7.90577  -5.33780   2.44835
  33   38175.1    262.0    -550.64077  -2.75803   2.30351  -0.21465
  34   38499.8    259.7    295.37217   4.59885  -2.66789   2.09552
  35   38920.3    256.9     92.30647   2.26910  -0.70133   1.22680
  36   39190.0    255.2     34.93074   0.91159  -0.98484   0.78060
  37   39367.6    254.0    -107.08276   0.94090  -0.86140  -0.79938
  38   40199.1    248.8     30.41569  -1.51630   1.16701   0.59532

sTD-DFT done

Total run time:        5.454 sec

           *** ORCA-CIS/TD-DFT FINISHED WITHOUT ERROR ***

-------------------------   --------------------
FINAL SINGLE POINT ENERGY     -5808.076514620378
-------------------------   --------------------


                            ***************************************
                            *     ORCA property calculations      *
                            ***************************************

                                    ---------------------
                                    Active property flags
                                    ---------------------
   (+) Dipole Moment


------------------------------------------------------------------------------
                       ORCA ELECTRIC PROPERTIES CALCULATION
------------------------------------------------------------------------------

Dipole Moment Calculation                       ... on
Quadrupole Moment Calculation                   ... off
Polarizability Calculation                      ... off
GBWName                                         ... H2.gbw
Electron density file                           ... H2.scfp
The origin for moment calculation is the CENTER OF MASS  = (-11.699348, -15.442333 -0.128057)

-------------
DIPOLE MOMENT
-------------
                                X             Y             Z
Electronic contribution:    -19.99819     -17.36021      14.82824
Nuclear contribution   :     21.96467      16.27616     -17.06025
                        -----------------------------------------
Total Dipole Moment    :      1.96649      -1.08405      -2.23201
                        -----------------------------------------
Magnitude (a.u.)       :      3.16608
Magnitude (Debye)      :      8.04755



--------------------
Rotational spectrum 
--------------------
 
Rotational constants in cm-1:     0.001363     0.000282     0.000251 
Rotational constants in MHz :    40.865089     8.452460     7.521912 

 Dipole components along the rotational axes: 
x,y,z [a.u.] :     1.047045    -0.849902    -2.864516 
x,y,z [Debye]:     2.661376    -2.160280    -7.281021 

 

Timings for individual modules:

Sum of individual times         ...     5163.148 sec (=  86.052 min)
GTO integral calculation        ...        4.156 sec (=   0.069 min)   0.1 %
SCF iterations                  ...     5153.475 sec (=  85.891 min)  99.8 %
CIS module                      ...        5.517 sec (=   0.092 min)   0.1 %
                             ****ORCA TERMINATED NORMALLY****
TOTAL RUN TIME: 0 days 1 hours 26 minutes 3 seconds 744 msec
