
                                 *****************
                                 * O   R   C   A *
                                 *****************

           --- An Ab Initio, DFT and Semiempirical electronic structure package ---

                  #######################################################
                  #                        -***-                        #
                  #          Department of theory and spectroscopy      #
                  #               Directorship: Frank Neese             #
                  #        Max Planck Institute fuer Kohlenforschung    #
                  #                Kaiser Wilhelm Platz 1               #
                  #                 D-45470 Muelheim/Ruhr               #
                  #                      Germany                        #
                  #                                                     #
                  #                  All rights reserved                #
                  #                        -***-                        #
                  #######################################################


                         Program Version 4.2.0 -  RELEASE  -


 With contributions from (in alphabetic order):
   Daniel Aravena         : Magnetic Suceptibility
   Michael Atanasov       : Ab Initio Ligand Field Theory (pilot matlab implementation)
   Alexander A. Auer      : GIAO ZORA, VPT2
   Ute Becker             : Parallelization
   Giovanni Bistoni       : ED, misc. LED, open-shell LED, HFLED
   Martin Brehm           : Molecular dynamics
   Dmytro Bykov           : SCF Hessian
   Vijay G. Chilkuri      : MRCI spin determinant printing, contributions to CSF-ICE
   Dipayan Datta          : RHF DLPNO-CCSD density
   Achintya Kumar Dutta   : EOM-CC, STEOM-CC
   Dmitry Ganyushin       : Spin-Orbit,Spin-Spin,Magnetic field MRCI
   Miquel Garcia          : C-PCM Hessian, Gaussian charge scheme
   Yang Guo               : DLPNO-NEVPT2, CIM, IAO-localization
   Andreas Hansen         : Spin unrestricted coupled pair/coupled cluster methods
   Benjamin Helmich-Paris : CASSCF linear response (MC-RPA)
   Lee Huntington         : MR-EOM, pCC
   Robert Izsak           : Overlap fitted RIJCOSX, COSX-SCS-MP3, EOM
   Christian Kollmar      : KDIIS, OOCD, Brueckner-CCSD(T), CCSD density
   Simone Kossmann        : Meta GGA functionals, TD-DFT gradient, OOMP2, MP2 Hessian
   Martin Krupicka        : AUTO-CI
   Lucas Lang             : DCDCAS
   Dagmar Lenk            : GEPOL surface, SMD
   Dimitrios Liakos       : Extrapolation schemes; Compound Job, initial MDCI parallelization
   Dimitrios Manganas     : Further ROCIS development; embedding schemes
   Dimitrios Pantazis     : SARC Basis sets
   Taras Petrenko         : DFT Hessian,TD-DFT gradient, ASA, ECA, R-Raman, ABS, FL, XAS/XES, NRVS
   Peter Pinski           : DLPNO-MP2, DLPNO-MP2 Gradient
   Christoph Reimann      : Effective Core Potentials
   Marius Retegan         : Local ZFS, SOC
   Christoph Riplinger    : Optimizer, TS searches, QM/MM, DLPNO-CCSD(T), (RO)-DLPNO pert. Triples
   Tobias Risthaus        : Range-separated hybrids, TD-DFT gradient, RPA, STAB
   Michael Roemelt        : Original ROCIS implementation
   Masaaki Saitow         : Open-shell DLPNO-CCSD energy and density
   Barbara Sandhoefer     : DKH picture change effects
   Avijit Sen             : IP-ROCIS
   Kantharuban Sivalingam : CASSCF convergence, NEVPT2, FIC-MRCI
   Bernardo de Souza      : ESD, SOC TD-DFT
   Georgi Stoychev        : AutoAux, RI-MP2 NMR
   Willem Van den Heuvel  : Paramagnetic NMR
   Boris Wezisla          : Elementary symmetry handling
   Frank Wennmohs         : Technical directorship


 We gratefully acknowledge several colleagues who have allowed us to
 interface, adapt or use parts of their codes:
   Stefan Grimme, W. Hujo, H. Kruse,             : VdW corrections, initial TS optimization,
                  C. Bannwarth                     DFT functionals, gCP, sTDA/sTD-DF
   Ed Valeev, F. Pavosevic, A. Kumar             : LibInt (2-el integral package), F12 methods
   Garnet Chan, S. Sharma, J. Yang, R. Olivares  : DMRG
   Ulf Ekstrom                                   : XCFun DFT Library
   Mihaly Kallay                                 : mrcc  (arbitrary order and MRCC methods)
   Andreas Klamt, Michael Diedenhofen            : otool_cosmo (COSMO solvation model)
   Jiri Pittner, Ondrej Demel                    : Mk-CCSD
   Frank Weinhold                                : gennbo (NPA and NBO analysis)
   Christopher J. Cramer and Donald G. Truhlar   : smd solvation model
   Lars Goerigk                                  : TD-DFT with DH, B97 family of functionals
   V. Asgeirsson, H. Jonsson                     : NEB implementation
   FAccTs GmbH                                   : IRC, NEB, NEB-TS, Multilevel, MM, QM/MM, CI optimization
   S Lehtola, MJT Oliveira, MAL Marques          : LibXC Library


 Your calculation uses the libint2 library for the computation of 2-el integrals
 For citations please refer to: http://libint.valeyev.net

 Your ORCA version has been built with support for libXC version: 4.2.3
 For citations please refer to: https://tddft.org/programs/libxc/

 This ORCA versions uses:
   CBLAS   interface :  Fast vector & matrix operations
   LAPACKE interface :  Fast linear algebra routines
   SCALAPACK package :  Parallel linear algebra routines


XCFun DFT library Copyright 2009-2010 Ulf Ekstrom and contributors.
See http://admol.org/xcfun for more information. This is free soft-
ware; see the source code for copying conditions. There is ABSOLUTELY
NO WARRANTY; not even for MERCHANTABILITY or FITNESS FOR A PARTICULAR
PURPOSE. For details see the documentation. Scientific users of this 
library should cite U. Ekstrom, L. Visscher, R. Bast, A. J. Thorvald-
sen and K. Ruud; J.Chem.Theor.Comp. 2010, DOI: 10.1021/ct100117s
XCFun Version 0.99 
----- Orbital basis set information -----
Your calculation utilizes the basis: def2-SVP
   F. Weigend and R. Ahlrichs, Phys. Chem. Chem. Phys. 7, 3297 (2005).

----- AuxJ basis set information -----
Your calculation utilizes the auxiliary basis: def2/J
   F. Weigend, Phys. Chem. Chem. Phys. 8, 1057 (2006).

================================================================================
                                        WARNINGS
                       Please study these warnings very carefully!
================================================================================

INFO   : Checking CIS options ...

WARNING: CIS/ROCIS methods need fully converged wavefunctions
  ===> : Setting SCFConvForced true
         You can overwrite this default with %scf ConvForced false 


INFO   : the flag for use of LIBINT has been found!

================================================================================
                                       INPUT FILE
================================================================================
NAME = IDF-4F.inp
|  1> # ORCA input file
|  2> # IDF-4F.out
|  3> ! CAM-B3LYP def2-SVP def2/J RIJCOSX Grid4 TightSCF
|  4> %maxcore 5000
|  5> %tddft
|  6>     Mode sTDDFT
|  7>     Ethresh 5.0
|  8>     maxcore 5000
|  9> end
| 10> * xyz 0 1
| 11>    C        0.27522        -2.56479        -2.16661
| 12>    C       -0.90535        -2.79370        -1.50781
| 13>    C       -2.08193        -3.37517        -2.13136
| 14>    C       -3.17141        -3.32825        -1.15540
| 15>    C       -2.67841        -2.79032         0.04317
| 16>    C       -1.24480        -2.45509        -0.11019
| 17>    C       -4.50299        -3.70526        -1.24370
| 18>    C       -5.30463        -3.53335        -0.12512
| 19>    C       -4.80313        -3.00095         1.06310
| 20>    C       -3.47444        -2.62168         1.15882
| 21>    F       -5.61385        -2.85396         2.11796
| 22>    F       -6.59288        -3.88771        -0.19218
| 23>    O       -0.53596        -1.99921         0.76147
| 24>    C       -2.18858        -3.90526        -3.39048
| 25>    C       -3.37783        -4.45338        -3.91887
| 26>    C       -1.15657        -4.01307        -4.34787
| 27>    N       -4.30648        -4.91115        -4.41399
| 28>    N       -0.38815        -4.15611        -5.18955
| 29>    C        1.48142        -1.98833        -1.73816
| 30>    O        2.43429        -1.84365        -2.72525
| 31>    C        3.47496        -1.25768        -2.15219
| 32>    C        3.24508        -1.01063        -0.79739
| 33>    C        1.97341        -1.48752        -0.52301
| 34>    C       10.85829         3.63262        -3.56402
| 35>    C       10.89425         4.55336        -2.55621
| 36>    C        9.87709         4.96095        -1.61142
| 37>    C       10.55896         5.63739        -0.50919
| 38>    C       11.90214         5.84650        -0.87068
| 39>    C       12.15853         5.24183        -2.20108
| 40>    C       10.08466         6.09668         0.70866
| 41>    C       10.97277         6.75888         1.54277
| 42>    C       12.30179         6.97211         1.17437
| 43>    C       12.78216         6.51557        -0.04303
| 44>    F       13.12152         7.62350         2.00772
| 45>    F       10.54100         7.20037         2.72946
| 46>    O       13.18589         5.26364        -2.83704
| 47>    C        8.52390         4.97035        -1.82590
| 48>    C        7.57516         5.41284        -0.88328
| 49>    C        7.93185         4.62758        -3.05963
| 50>    N        6.75891         5.73053        -0.14156
| 51>    N        7.42033         4.42902        -4.06784
| 52>    C        4.74322        -0.74910        -2.56051
| 53>    C        5.31361        -0.15098        -1.40465
| 54>    C        4.46516        -0.40213        -0.16632
| 55>    C        5.38614        -0.73252        -3.79739
| 56>    C        6.57980        -0.05403        -3.87604
| 57>    C        7.08234         0.64965        -2.74976
| 58>    C        6.47222         0.58245        -1.49827
| 59>    C        7.47227         0.12825        -5.09756
| 60>    C        8.46132         1.12605        -4.56480
| 61>    C        8.21408         1.37572        -3.21799
| 62>    C        4.24124         0.87593         0.61324
| 63>    C        5.04947        -1.49202         0.72651
| 64>    C        8.24604        -1.12658        -5.47067
| 65>    C        6.63704         0.63484        -6.25903
| 66>    C        6.18210        -2.21535         0.38689
| 67>    C        6.63776        -3.22728         1.21443
| 68>    C        5.97482        -3.54345         2.39150
| 69>    C        4.83703        -2.81709         2.72316
| 70>    C        4.37783        -1.80648         1.90259
| 71>    C        3.16663         1.70695         0.33487
| 72>    C        2.98031         2.87434         1.05388
| 73>    C        3.85837         3.24060         2.06436
| 74>    C        4.94608         2.41459         2.32214
| 75>    C        5.13988         1.25060         1.60511
| 76>    C        6.03409        -0.26814        -7.12548
| 77>    C        5.24301         0.18205        -8.16523
| 78>    C        5.02868         1.54028        -8.36121
| 79>    C        5.62294         2.43581        -7.48210
| 80>    C        6.41327         1.99299        -6.43703
| 81>    C        9.01843        -1.10981        -6.62641
| 82>    C        9.76856        -2.21200        -6.98517
| 83>    C        9.77584        -3.35635        -6.19652
| 84>    C        9.00895        -3.36395        -5.04011
| 85>    C        8.25543        -2.26192        -4.67509
| 86>    C        6.44001        -4.67884         3.25643
| 87>    C        5.76378        -5.98354         2.82958
| 88>    C        3.66242         4.50386         2.85107
| 89>    C        4.67267         5.57365         2.43463
| 90>    C       10.55349        -4.57107        -6.61238
| 91>    C        9.69018        -5.48236        -7.48745
| 92>    C        4.21483         2.02662        -9.52525
| 93>    C        5.10695         2.22418       -10.75265
| 94>    C        9.56043         1.90537        -4.90632
| 95>    C        9.88270         2.63256        -3.75579
| 96>    O        9.05340         2.28120        -2.72245
| 97>    H        0.31465        -2.83969        -3.21385
| 98>    H       -4.94244        -4.11986        -2.13568
| 99>    H       -3.08002        -2.20796         2.07320
|100>    H        1.43412        -1.47921         0.40080
|101>    H       11.69559         3.62923        -4.25092
|102>    H        9.06654         5.95373         1.03275
|103>    H       13.80866         6.68205        -0.32823
|104>    H        4.95155        -1.22229        -4.65450
|105>    H        6.88964         1.09643        -0.64645
|106>    H        6.71841        -1.99233        -0.52391
|107>    H        7.52487        -3.77904         0.93720
|108>    H        4.30411        -3.04749         3.63425
|109>    H        3.49382        -1.24936         2.17476
|110>    H        2.46512         1.43766        -0.44166
|111>    H        2.13239         3.50530         0.82938
|112>    H        5.64436         2.68128         3.10244
|113>    H        5.98487         0.61523         1.83055
|114>    H        6.19260        -1.32900        -6.99354
|115>    H        4.78343        -0.53303        -8.83257
|116>    H        5.46314         3.49645        -7.61070
|117>    H        6.85184         2.71065        -5.76022
|118>    H        9.01963        -0.22853        -7.25099
|119>    H       10.36046        -2.18379        -7.88871
|120>    H        9.00161        -4.24293        -4.41139
|121>    H        7.67102        -2.29358        -3.76728
|122>    H        6.19670        -4.47301         4.30055
|123>    H        7.52283        -4.79060         3.17251
|124>    H        4.68319        -5.89548         2.91681
|125>    H        6.09726        -6.80763         3.45573
|126>    H        6.00496        -6.21370         1.79412
|127>    H        3.78465         4.29069         3.91633
|128>    H        2.64993         4.88096         2.69514
|129>    H        5.68826         5.23298         2.61933
|130>    H        4.50717         6.48910         2.99762
|131>    H        4.58124         5.79315         1.37456
|132>    H       10.87874        -5.12364        -5.72868
|133>    H       11.44035        -4.26911        -7.17289
|134>    H        8.80660        -5.80503        -6.94137
|135>    H       10.25229        -6.36247        -7.79029
|136>    H        9.36576        -4.95275        -8.38036
|137>    H        3.73559         2.97431        -9.27249
|138>    H        3.43468         1.30013        -9.76129
|139>    H        5.88336         2.95616       -10.54151
|140>    H        4.51948         2.57454       -11.59800
|141>    H        5.58592         1.28679       -11.02706
|142>    H       10.05281         1.99594        -5.85277
|143> *
|144> 
|145>                          ****END OF INPUT****
================================================================================

                       ****************************
                       * Single Point Calculation *
                       ****************************

---------------------------------
CARTESIAN COORDINATES (ANGSTROEM)
---------------------------------
  C      0.275220   -2.564790   -2.166610
  C     -0.905350   -2.793700   -1.507810
  C     -2.081930   -3.375170   -2.131360
  C     -3.171410   -3.328250   -1.155400
  C     -2.678410   -2.790320    0.043170
  C     -1.244800   -2.455090   -0.110190
  C     -4.502990   -3.705260   -1.243700
  C     -5.304630   -3.533350   -0.125120
  C     -4.803130   -3.000950    1.063100
  C     -3.474440   -2.621680    1.158820
  F     -5.613850   -2.853960    2.117960
  F     -6.592880   -3.887710   -0.192180
  O     -0.535960   -1.999210    0.761470
  C     -2.188580   -3.905260   -3.390480
  C     -3.377830   -4.453380   -3.918870
  C     -1.156570   -4.013070   -4.347870
  N     -4.306480   -4.911150   -4.413990
  N     -0.388150   -4.156110   -5.189550
  C      1.481420   -1.988330   -1.738160
  O      2.434290   -1.843650   -2.725250
  C      3.474960   -1.257680   -2.152190
  C      3.245080   -1.010630   -0.797390
  C      1.973410   -1.487520   -0.523010
  C     10.858290    3.632620   -3.564020
  C     10.894250    4.553360   -2.556210
  C      9.877090    4.960950   -1.611420
  C     10.558960    5.637390   -0.509190
  C     11.902140    5.846500   -0.870680
  C     12.158530    5.241830   -2.201080
  C     10.084660    6.096680    0.708660
  C     10.972770    6.758880    1.542770
  C     12.301790    6.972110    1.174370
  C     12.782160    6.515570   -0.043030
  F     13.121520    7.623500    2.007720
  F     10.541000    7.200370    2.729460
  O     13.185890    5.263640   -2.837040
  C      8.523900    4.970350   -1.825900
  C      7.575160    5.412840   -0.883280
  C      7.931850    4.627580   -3.059630
  N      6.758910    5.730530   -0.141560
  N      7.420330    4.429020   -4.067840
  C      4.743220   -0.749100   -2.560510
  C      5.313610   -0.150980   -1.404650
  C      4.465160   -0.402130   -0.166320
  C      5.386140   -0.732520   -3.797390
  C      6.579800   -0.054030   -3.876040
  C      7.082340    0.649650   -2.749760
  C      6.472220    0.582450   -1.498270
  C      7.472270    0.128250   -5.097560
  C      8.461320    1.126050   -4.564800
  C      8.214080    1.375720   -3.217990
  C      4.241240    0.875930    0.613240
  C      5.049470   -1.492020    0.726510
  C      8.246040   -1.126580   -5.470670
  C      6.637040    0.634840   -6.259030
  C      6.182100   -2.215350    0.386890
  C      6.637760   -3.227280    1.214430
  C      5.974820   -3.543450    2.391500
  C      4.837030   -2.817090    2.723160
  C      4.377830   -1.806480    1.902590
  C      3.166630    1.706950    0.334870
  C      2.980310    2.874340    1.053880
  C      3.858370    3.240600    2.064360
  C      4.946080    2.414590    2.322140
  C      5.139880    1.250600    1.605110
  C      6.034090   -0.268140   -7.125480
  C      5.243010    0.182050   -8.165230
  C      5.028680    1.540280   -8.361210
  C      5.622940    2.435810   -7.482100
  C      6.413270    1.992990   -6.437030
  C      9.018430   -1.109810   -6.626410
  C      9.768560   -2.212000   -6.985170
  C      9.775840   -3.356350   -6.196520
  C      9.008950   -3.363950   -5.040110
  C      8.255430   -2.261920   -4.675090
  C      6.440010   -4.678840    3.256430
  C      5.763780   -5.983540    2.829580
  C      3.662420    4.503860    2.851070
  C      4.672670    5.573650    2.434630
  C     10.553490   -4.571070   -6.612380
  C      9.690180   -5.482360   -7.487450
  C      4.214830    2.026620   -9.525250
  C      5.106950    2.224180  -10.752650
  C      9.560430    1.905370   -4.906320
  C      9.882700    2.632560   -3.755790
  O      9.053400    2.281200   -2.722450
  H      0.314650   -2.839690   -3.213850
  H     -4.942440   -4.119860   -2.135680
  H     -3.080020   -2.207960    2.073200
  H      1.434120   -1.479210    0.400800
  H     11.695590    3.629230   -4.250920
  H      9.066540    5.953730    1.032750
  H     13.808660    6.682050   -0.328230
  H      4.951550   -1.222290   -4.654500
  H      6.889640    1.096430   -0.646450
  H      6.718410   -1.992330   -0.523910
  H      7.524870   -3.779040    0.937200
  H      4.304110   -3.047490    3.634250
  H      3.493820   -1.249360    2.174760
  H      2.465120    1.437660   -0.441660
  H      2.132390    3.505300    0.829380
  H      5.644360    2.681280    3.102440
  H      5.984870    0.615230    1.830550
  H      6.192600   -1.329000   -6.993540
  H      4.783430   -0.533030   -8.832570
  H      5.463140    3.496450   -7.610700
  H      6.851840    2.710650   -5.760220
  H      9.019630   -0.228530   -7.250990
  H     10.360460   -2.183790   -7.888710
  H      9.001610   -4.242930   -4.411390
  H      7.671020   -2.293580   -3.767280
  H      6.196700   -4.473010    4.300550
  H      7.522830   -4.790600    3.172510
  H      4.683190   -5.895480    2.916810
  H      6.097260   -6.807630    3.455730
  H      6.004960   -6.213700    1.794120
  H      3.784650    4.290690    3.916330
  H      2.649930    4.880960    2.695140
  H      5.688260    5.232980    2.619330
  H      4.507170    6.489100    2.997620
  H      4.581240    5.793150    1.374560
  H     10.878740   -5.123640   -5.728680
  H     11.440350   -4.269110   -7.172890
  H      8.806600   -5.805030   -6.941370
  H     10.252290   -6.362470   -7.790290
  H      9.365760   -4.952750   -8.380360
  H      3.735590    2.974310   -9.272490
  H      3.434680    1.300130   -9.761290
  H      5.883360    2.956160  -10.541510
  H      4.519480    2.574540  -11.598000
  H      5.585920    1.286790  -11.027060
  H     10.052810    1.995940   -5.852770

----------------------------
CARTESIAN COORDINATES (A.U.)
----------------------------
  NO LB      ZA    FRAG     MASS         X           Y           Z
   0 C     6.0000    0    12.011    0.520090   -4.846751   -4.094300
   1 C     6.0000    0    12.011   -1.710864   -5.279328   -2.849348
   2 C     6.0000    0    12.011   -3.934278   -6.378147   -4.027687
   3 C     6.0000    0    12.011   -5.993096   -6.289481   -2.183390
   4 C     6.0000    0    12.011   -5.061461   -5.272941    0.081579
   5 C     6.0000    0    12.011   -2.352331   -4.639448   -0.208229
   6 C     6.0000    0    12.011   -8.509418   -7.001927   -2.350252
   7 C     6.0000    0    12.011  -10.024298   -6.677064   -0.236443
   8 C     6.0000    0    12.011   -9.076600   -5.670974    2.008968
   9 C     6.0000    0    12.011   -6.565740   -4.954257    2.189852
  10 F     9.0000    0    18.998  -10.608639   -5.393203    4.002364
  11 F     9.0000    0    18.998  -12.458738   -7.346707   -0.363168
  12 O     8.0000    0    15.999   -1.012818   -3.777959    1.438970
  13 C     6.0000    0    12.011   -4.135817   -7.379872   -6.407079
  14 C     6.0000    0    12.011   -6.383174   -8.415669   -7.405591
  15 C     6.0000    0    12.011   -2.185601   -7.583603   -8.216284
  16 N     7.0000    0    14.007   -8.138068   -9.280729   -8.341232
  17 N     7.0000    0    14.007   -0.733497   -7.853910   -9.806828
  18 C     6.0000    0    12.011    2.799478   -3.757399   -3.284646
  19 O     8.0000    0    15.999    4.600141   -3.483994   -5.149976
  20 C     6.0000    0    12.011    6.566723   -2.376671   -4.067050
  21 C     6.0000    0    12.011    6.132312   -1.909814   -1.506849
  22 C     6.0000    0    12.011    3.729204   -2.811005   -0.988346
  23 C     6.0000    0    12.011   20.519194    6.864657   -6.735022
  24 C     6.0000    0    12.011   20.587149    8.604603   -4.830537
  25 C     6.0000    0    12.011   18.664995    9.374837   -3.045142
  26 C     6.0000    0    12.011   19.953543   10.653123   -0.962230
  27 C     6.0000    0    12.011   22.491785   11.048284   -1.645347
  28 C     6.0000    0    12.011   22.976292    9.905623   -4.159438
  29 C     6.0000    0    12.011   19.057246   11.521056    1.339173
  30 C     6.0000    0    12.011   20.735530   12.772432    2.915413
  31 C     6.0000    0    12.011   23.247014   13.175378    2.219238
  32 C     6.0000    0    12.011   24.154782   12.312643   -0.081315
  33 F     9.0000    0    18.998   24.796079   14.406327    3.794041
  34 F     9.0000    0    18.998   19.919603   13.606727    5.157932
  35 O     8.0000    0    15.999   24.917721    9.946838   -5.361229
  36 C     6.0000    0    12.011   16.107837    9.392600   -3.450451
  37 C     6.0000    0    12.011   14.314978   10.228785   -1.669157
  38 C     6.0000    0    12.011   14.989024    8.744859   -5.781863
  39 N     7.0000    0    14.007   12.772489   10.829132   -0.267510
  40 N     7.0000    0    14.007   14.022392    8.369635   -7.687104
  41 C     6.0000    0    12.011    8.963387   -1.415594   -4.838663
  42 C     6.0000    0    12.011   10.041268   -0.285311   -2.654404
  43 C     6.0000    0    12.011    8.437930   -0.759916   -0.314299
  44 C     6.0000    0    12.011   10.178330   -1.384262   -7.176027
  45 C     6.0000    0    12.011   12.434020   -0.102102   -7.324654
  46 C     6.0000    0    12.011   13.383683    1.227661   -5.196293
  47 C     6.0000    0    12.011   12.230723    1.100671   -2.831320
  48 C     6.0000    0    12.011   14.120544    0.242357   -9.632992
  49 C     6.0000    0    12.011   15.989578    2.127926   -8.626222
  50 C     6.0000    0    12.011   15.522362    2.599734   -6.081120
  51 C     6.0000    0    12.011    8.014782    1.655268    1.158856
  52 C     6.0000    0    12.011    9.542115   -2.819509    1.372905
  53 C     6.0000    0    12.011   15.582757   -2.128928  -10.338068
  54 C     6.0000    0    12.011   12.542188    1.199674  -11.827853
  55 C     6.0000    0    12.011   11.682476   -4.186405    0.731116
  56 C     6.0000    0    12.011   12.543549   -6.098675    2.294940
  57 C     6.0000    0    12.011   11.290773   -6.696150    4.519280
  58 C     6.0000    0    12.011    9.140662   -5.323529    5.146027
  59 C     6.0000    0    12.011    8.272900   -3.413752    3.595374
  60 C     6.0000    0    12.011    5.984063    3.225668    0.632813
  61 C     6.0000    0    12.011    5.631970    5.431715    1.991545
  62 C     6.0000    0    12.011    7.291263    6.123847    3.901075
  63 C     6.0000    0    12.011    9.346737    4.562914    4.388209
  64 C     6.0000    0    12.011    9.712966    2.363292    3.033218
  65 C     6.0000    0    12.011   11.402778   -0.506711  -13.465206
  66 C     6.0000    0    12.011    9.907853    0.344025  -15.430049
  67 C     6.0000    0    12.011    9.502828    2.910707  -15.800397
  68 C     6.0000    0    12.011   10.625817    4.603014  -14.139120
  69 C     6.0000    0    12.011   12.119324    3.766205  -12.164224
  70 C     6.0000    0    12.011   17.042363   -2.097237  -12.522100
  71 C     6.0000    0    12.011   18.459903   -4.180074  -13.200058
  72 C     6.0000    0    12.011   18.473660   -6.342582  -11.709726
  73 C     6.0000    0    12.011   17.024448   -6.356944   -9.524428
  74 C     6.0000    0    12.011   15.600502   -4.274409   -8.834640
  75 C     6.0000    0    12.011   12.169855   -8.841726    6.153761
  76 C     6.0000    0    12.011   10.891966  -11.307252    5.347131
  77 C     6.0000    0    12.011    6.920971    8.511062    5.387741
  78 C     6.0000    0    12.011    8.830067   10.532672    4.600784
  79 C     6.0000    0    12.011   19.943206   -8.638070  -12.495587
  80 C     6.0000    0    12.011   18.311786  -10.360159  -14.149230
  81 C     6.0000    0    12.011    7.964874    3.829757  -18.000114
  82 C     6.0000    0    12.011    9.650737    4.203091  -20.319564
  83 C     6.0000    0    12.011   18.066594    3.600627   -9.271601
  84 C     6.0000    0    12.011   18.675596    4.974817   -7.097415
  85 O     8.0000    0    15.999   17.108447    4.310843   -5.144685
  86 H     1.0000    0     1.008    0.594602   -5.366236   -6.073296
  87 H     1.0000    0     1.008   -9.339858   -7.785407   -4.035850
  88 H     1.0000    0     1.008   -5.820394   -4.172440    3.917780
  89 H     1.0000    0     1.008    2.710094   -2.795302    0.757402
  90 H     1.0000    0     1.008   22.101462    6.858251   -8.033075
  91 H     1.0000    0     1.008   17.133278   11.250919    1.951615
  92 H     1.0000    0     1.008   26.094586   12.627245   -0.620265
  93 H     1.0000    0     1.008    9.357073   -2.309793   -8.795730
  94 H     1.0000    0     1.008   13.019533    2.071952   -1.221613
  95 H     1.0000    0     1.008   12.695955   -3.764958   -0.990046
  96 H     1.0000    0     1.008   14.219943   -7.141351    1.771051
  97 H     1.0000    0     1.008    8.133589   -5.758921    6.867737
  98 H     1.0000    0     1.008    6.602363   -2.360948    4.109701
  99 H     1.0000    0     1.008    4.658402    2.716784   -0.834616
 100 H     1.0000    0     1.008    4.029633    6.624057    1.567301
 101 H     1.0000    0     1.008   10.666295    5.066885    5.862762
 102 H     1.0000    0     1.008   11.309765    1.162616    3.459238
 103 H     1.0000    0     1.008   11.702318   -2.511446  -13.215875
 104 H     1.0000    0     1.008    9.039373   -1.007281  -16.691138
 105 H     1.0000    0     1.008   10.323838    6.607333  -14.382139
 106 H     1.0000    0     1.008   12.948101    5.122386  -10.885238
 107 H     1.0000    0     1.008   17.044631   -0.431859  -13.702385
 108 H     1.0000    0     1.008   19.578432   -4.126765  -14.907501
 109 H     1.0000    0     1.008   17.010578   -8.017976   -8.336319
 110 H     1.0000    0     1.008   14.496127   -4.334238   -7.119127
 111 H     1.0000    0     1.008   11.710066   -8.452764    8.126862
 112 H     1.0000    0     1.008   14.216088   -9.052922    5.995175
 113 H     1.0000    0     1.008    8.849947  -11.140843    5.511972
 114 H     1.0000    0     1.008   11.522152  -12.864556    6.530383
 115 H     1.0000    0     1.008   11.347730  -11.742191    3.390395
 116 H     1.0000    0     1.008    7.151952    8.108229    7.400791
 117 H     1.0000    0     1.008    5.007642    9.223678    5.093076
 118 H     1.0000    0     1.008   10.749254    9.888899    4.949816
 119 H     1.0000    0     1.008    8.517317   12.262622    5.664681
 120 H     1.0000    0     1.008    8.657289   10.947467    2.597542
 121 H     1.0000    0     1.008   20.557839   -9.682276  -10.825636
 122 H     1.0000    0     1.008   21.619128   -8.067449  -13.554798
 123 H     1.0000    0     1.008   16.642062  -10.969917  -13.117288
 124 H     1.0000    0     1.008   19.374020  -12.023326  -14.721515
 125 H     1.0000    0     1.008   17.698721   -9.359341  -15.836585
 126 H     1.0000    0     1.008    7.059242    5.620631  -17.522467
 127 H     1.0000    0     1.008    6.490605    2.456890  -18.446165
 128 H     1.0000    0     1.008   11.117939    5.586333  -19.920567
 129 H     1.0000    0     1.008    8.540579    4.865176  -21.917044
 130 H     1.0000    0     1.008   10.555859    2.431681  -20.838123
 131 H     1.0000    0     1.008   18.997058    3.771780  -11.060132

--------------------------------
INTERNAL COORDINATES (ANGSTROEM)
--------------------------------
 C      0   0   0     0.000000000000     0.00000000     0.00000000
 C      1   0   0     1.371190268708     0.00000000     0.00000000
 C      2   1   0     1.453018396236   123.90391350     0.00000000
 C      3   2   1     1.463443226914   107.68639682   185.89160045
 C      4   3   2     1.403206232098   108.68526006   357.70859369
 C      2   1   3     1.477573923362   127.87928890   183.18716507
 C      4   3   2     1.386736718523   131.58053680   177.58704003
 C      7   4   3     1.386867316689   118.03267873   180.06934185
 C      8   7   4     1.395284479380   121.76248154   359.87758873
 C      5   4   3     1.380861373564   122.30277937   180.12988693
 F      9   8   7     1.338507601062   119.69184492   180.04417002
 F      8   7   4     1.337780294256   118.90484813   179.81430420
 O      6   2   1     1.212465205934   129.18821167   354.23960718
 C      3   2   1     1.370311207354   127.74489986     7.04659480
 C     14   3   2     1.412071913537   124.02382328   179.96354435
 C     14   3   2     1.411829751882   126.56569603     0.93900627
 N     15  14   3     1.147644548543   176.16419770   177.99380577
 N     16  14   3     1.148631777551   174.51758308   174.61097019
 C      1   2   3     1.403849697831   131.42814502   178.08260318
 O     19   1   2     1.379579721292   114.71767396   184.18650374
 C     20  19   1     1.324670771701   106.22894206   178.32362213
 C     21  20  19     1.396195386363   111.63566502     0.29610922
 C     22  21  20     1.385587617367   106.40129330     0.33058771
 C     21  20  19     8.967823589244   145.07633858   202.08419764
 C     24  21  20     1.365553464827   105.85343291   138.78057000
 C     25  24  21     1.446849065314   130.79542438   345.95138039
 C     26  25  24     1.461994782275   107.14353013   162.01782471
 C     27  26  25     1.406603897549   108.68692851     9.90662032
 C     25  24  21     1.482738067293   120.81667115   160.25268683
 C     27  26  25     1.385303727202   131.03378842   187.49607246
 C     30  27  26     1.386718321866   117.89415364   182.60890968
 C     31  30  27     1.395521319543   121.60750314     0.51977659
 C     28  27  26     1.380975882411   121.77026224   177.40690074
 F     32  31  30     1.338184750885   119.56147477   179.58639988
 F     31  30  27     1.337748821379   118.97755721   180.62872795
 O     29  25  24     1.208465707954   127.38867346    12.98538784
 C     26  25  24     1.370114304173   126.44455538   329.55801233
 C     37  26  25     1.408700625435   124.23393818   181.85128126
 C     37  26  25     1.410710526047   123.34875116   356.99096474
 N     38  37  26     1.147754136128   176.68944723   209.65757478
 N     39  37  26     1.147852859952   175.71641530   243.08899815
 C     21  20  19     1.426135430596   137.09867287   184.30695724
 C     42  21  20     1.420952014003   105.91363529   175.46611433
 C     22  21  20     1.502370394177   110.21551860   177.51654114
 C     42  21  20     1.394092234108   131.94275743   357.52691317
 C     45  42  21     1.375266773466   117.18613898   174.68779062
 C     46  45  42     1.419936136733   120.41842701   356.89127861
 C     43  42  21     1.374431301084   120.50354806   188.11547270
 C     46  45  42     1.523758448607   127.82288048   180.57966472
 C     49  46  45     1.502550485042   100.41263350   171.23852444
 C     50  49  46     1.391890765326   110.19890913     4.11016583
 C     44  22  21     1.513701200237   115.98707327   128.23794120
 C     44  22  21     1.525261878203   105.51988051   251.55796964
 C     49  46  45     1.520700303775   113.32819917   285.53515279
 C     49  46  45     1.517647897867   109.33566105    50.68326634
 C     53  44  22     1.386145284665   122.85276138   104.60859021
 C     56  53  44     1.384359350783   120.26039808   182.41254973
 C     57  56  53     1.387424483495   121.09431042     0.25592752
 C     58  57  56     1.390022765749   118.32418628     0.00000000
 C     59  58  57     1.380410206062   120.86540929     0.00000000
 C     52  44  22     1.386676151594   121.14794528   335.06253911
 C     61  52  44     1.383650943916   120.37508346   180.26770619
 C     62  61  52     1.387878086000   121.05103302     0.02336263
 C     63  62  61     1.389912260756   118.24914019     1.07576734
 C     64  63  62     1.380783538792   120.96465514   359.14205891
 C     55  49  46     1.389121011791   119.95038738   269.80854680
 C     66  55  49     1.381867817485   120.39956377   178.29928905
 C     67  66  55     1.388932770943   120.86984807   359.64688180
 C     68  67  66     1.388507587520   118.38034261   359.65189963
 C     69  68  67     1.383069906476   121.09589602     0.18290936
 C     54  49  46     1.390180740983   118.47194609   175.35423040
 C     71  54  49     1.380661635087   120.54813270   178.12814481
 C     72  71  54     1.389805289744   120.84457963   359.54582725
 C     73  72  71     1.387610219118   118.32814307     0.07337687
 C     74  73  72     1.384016658751   121.08657342   359.90012783
 C     58  57  56     1.501204880454   120.86981510   177.44104162
 C     76  58  57     1.530271226090   110.31527518   270.66499520
 C     63  62  61     1.501044587679   121.40574712   180.11589012
 C     78  63  62     1.529208285421   111.08680261   254.20040516
 C     73  72  71     1.501074195535   120.78509727   177.83648072
 C     80  73  72     1.530196433501   110.36985680   271.08555371
 C     68  67  66     1.501288626381   120.65348783   177.47169413
 C     82  68  67     1.530169535705   110.34740992   271.97577010
 C     50  49  46     1.389970634546   143.67915129   183.34786670
 C     84  50  49     1.398707449719   105.75828604   178.18098211
 O     51  50  49     1.330380390866   111.74261680   181.52466205
 H      1   2   3     1.083437285910   116.96090065     0.02362080
 H      7   4   3     1.077329004019   123.30038842   359.86199426
 H     10   5   4     1.078342320045   121.40553593   179.91372854
 H     23  22  21     1.069732525588   129.12581332   180.27063070
 H     24  21  20     1.083011722974   137.27903870   314.19747243
 H     30  27  26     1.077978369449   122.93631344     3.13559847
 H     33  28  27     1.078312051495   121.52784353   180.60119631
 H     45  42  21     1.078601257694   120.91860115   355.51304217
 H     48  43  42     1.078893974958   121.77469434   176.11475728
 H     56  53  44     1.080242091617   120.29928447     2.60440664
 H     57  56  53     1.080860639768   119.33870830   180.25551283
 H     59  58  57     1.080357753015   119.57396095   179.89394734
 H     60  59  58     1.079783720659   120.01605416   180.14792204
 H     61  52  44     1.080570323996   119.86879180     0.83100552
 H     62  61  52     1.080499466913   119.36592496   180.55415072
 H     64  63  62     1.080549214289   119.53629008   179.83088143
 H     65  64  63     1.080983964081   119.79515159   180.83916502
 H     66  55  49     1.080720835045   119.88620429   357.61556181
 H     67  66  55     1.080692305145   119.50603695   179.80690431
 H     69  68  67     1.080292187142   119.63993454   180.50532225
 H     70  69  68     1.079560696117   119.53938573   180.85390525
 H     71  54  49     1.080164827607   119.41773891   357.45713812
 H     72  71  54     1.080521145420   119.60812164   179.76464498
 H     74  73  72     1.080716685538   119.54049491   180.11165637
 H     75  74  73     1.080118697088   119.53162588   180.27074561
 H     76  58  57     1.091674090285   109.83996269   150.22786895
 H     76  58  57     1.091802187395   109.90501248    31.18183821
 H     77  76  58     1.087675679879   110.34214866   300.29544849
 H     77  76  58     1.087380826114   110.48780247   180.11674378
 H     77  76  58     1.087804591643   110.36097252    59.93211172
 H     78  63  62     1.093233959132   109.39024730   133.65064179
 H     78  63  62     1.091629321244   109.69042096    15.27289742
 H     79  78  63     1.087011125518   110.59202484   298.98203672
 H     79  78  63     1.087380656716   110.32923906   178.87918710
 H     79  78  63     1.086410649708   110.57700491    58.46744879
 H     80  73  72     1.091808983934   109.85574794   150.56728723
 H     80  73  72     1.091728886354   109.83163747    31.58034491
 H     81  80  73     1.087673164007   110.35754838   300.11369814
 H     81  80  73     1.087323930483   110.46635282   179.95328935
 H     81  80  73     1.087668771548   110.35081637    59.79669416
 H     82  68  67     1.091638645019   109.85800076   151.46550877
 H     82  68  67     1.091850092366   109.84127134    32.43642715
 H     83  82  68     1.087744137240   110.32409740   300.04552273
 H     83  82  68     1.087423446961   110.49930608   179.88357186
 H     83  82  68     1.087847931055   110.35184910    59.72611887
 H     84  50  49     1.070704717371   128.92125308     1.10438061

---------------------------
INTERNAL COORDINATES (A.U.)
---------------------------
 C      0   0   0     0.000000000000     0.00000000     0.00000000
 C      1   0   0     2.591174085356     0.00000000     0.00000000
 C      2   1   0     2.745806836435   123.90391350     0.00000000
 C      3   2   1     2.765506911409   107.68639682   185.89160045
 C      4   3   2     2.651675488078   108.68526006   357.70859369
 C      2   1   3     2.792210057778   127.87928890   183.18716507
 C      4   3   2     2.620552617861   131.58053680   177.58704003
 C      7   4   3     2.620799412628   118.03267873   180.06934185
 C      8   7   4     2.636705544940   121.76248154   359.87758873
 C      5   4   3     2.609449824946   122.30277937   180.12988693
 F      9   8   7     2.529412794179   119.69184492   180.04417002
 F      8   7   4     2.528038383501   118.90484813   179.81430420
 O      6   2   1     2.291227186123   129.18821167   354.23960718
 C      3   2   1     2.589512900142   127.74489986     7.04659480
 C     14   3   2     2.668429197987   124.02382328   179.96354435
 C     14   3   2     2.667971578780   126.56569603     0.93900627
 N     15  14   3     2.168733895834   176.16419770   177.99380577
 N     16  14   3     2.170599488291   174.51758308   174.61097019
 C      1   2   3     2.652891462089   131.42814502   178.08260318
 O     19   1   2     2.607027853153   114.71767396   184.18650374
 C     20  19   1     2.503264976126   106.22894206   178.32362213
 C     21  20  19     2.638426909670   111.63566502     0.29610922
 C     22  21  20     2.618381131376   106.40129330     0.33058771
 C     21  20  19    16.946730600990   145.07633858   202.08419764
 C     24  21  20     2.580522069750   105.85343291   138.78057000
 C     25  24  21     2.734148490563   130.79542438   345.95138039
 C     26  25  24     2.762769747722   107.14353013   162.01782471
 C     27  26  25     2.658096145274   108.68692851     9.90662032
 C     25  24  21     2.801968875524   120.81667115   160.25268683
 C     27  26  25     2.617844656712   131.03378842   187.49607246
 C     30  27  26     2.620517853218   117.89415364   182.60890968
 C     31  30  27     2.637153107985   121.60750314     0.51977659
 C     28  27  26     2.609666215306   121.77026224   177.40690074
 F     32  31  30     2.528802695761   119.56147477   179.58639988
 F     31  30  27     2.527978908382   118.97755721   180.62872795
 O     29  25  24     2.283669230268   127.38867346    12.98538784
 C     26  25  24     2.589140807055   126.44455538   329.55801233
 C     37  26  25     2.662058386755   124.23393818   181.85128126
 C     37  26  25     2.665856548469   123.34875116   356.99096474
 N     38  37  26     2.168940986358   176.68944723   209.65757478
 N     39  37  26     2.169127547348   175.71641530   243.08899815
 C     21  20  19     2.695005393707   137.09867287   184.30695724
 C     42  21  20     2.685210155910   105.91363529   175.46611433
 C     22  21  20     2.839068596706   110.21551860   177.51654114
 C     42  21  20     2.634452527890   131.94275743   357.52691317
 C     45  42  21     2.598877562933   117.18613898   174.68779062
 C     46  45  42     2.683290426083   120.41842701   356.89127861
 C     43  42  21     2.597298748938   120.50354806   188.11547270
 C     46  45  42     2.879486162115   127.82288048   180.57966472
 C     49  46  45     2.839408919120   100.41263350   171.23852444
 C     50  49  46     2.630292354800   110.19890913     4.11016583
 C     44  22  21     2.860480717036   115.98707327   128.23794120
 C     44  22  21     2.882327232314   105.51988051   251.55796964
 C     49  46  45     2.873707105905   113.32819917   285.53515279
 C     49  46  45     2.867938894690   109.33566105    50.68326634
 C     53  44  22     2.619434969844   122.85276138   104.60859021
 C     56  53  44     2.616060043913   120.26039808   182.41254973
 C     57  56  53     2.621852305302   121.09431042     0.25592752
 C     58  57  56     2.626762347181   118.32418628     0.00000000
 C     59  58  57     2.608597241927   120.86540929     0.00000000
 C     52  44  22     2.620438162953   121.14794528   335.06253911
 C     61  52  44     2.614721348943   120.37508346   180.26770619
 C     62  61  52     2.622709489811   121.05103302     0.02336263
 C     63  62  61     2.626553523008   118.24914019     1.07576734
 C     64  63  62     2.609302738544   120.96465514   359.14205891
 C     55  49  46     2.625058279161   119.95038738   269.80854680
 C     66  55  49     2.611351728326   120.39956377   178.29928905
 C     67  66  55     2.624702555511   120.86984807   359.64688180
 C     68  67  66     2.623899075284   118.38034261   359.65189963
 C     69  68  67     2.613623347308   121.09589602     0.18290936
 C     54  49  46     2.627060877110   118.47194609   175.35423040
 C     71  54  49     2.609072373926   120.54813270   178.12814481
 C     72  71  54     2.626351377091   120.84457963   359.54582725
 C     73  72  71     2.622203294763   118.32814307     0.07337687
 C     74  73  72     2.615412449824   121.08657342   359.90012783
 C     58  57  56     2.836866094965   120.86981510   177.44104162
 C     76  58  57     2.891793527931   110.31527518   270.66499520
 C     63  62  61     2.836563185518   121.40574712   180.11589012
 C     78  63  62     2.889784861169   111.08680261   254.20040516
 C     73  72  71     2.836619136257   120.78509727   177.83648072
 C     80  73  72     2.891652190420   110.36985680   271.08555371
 C     68  67  66     2.837024351830   120.65348783   177.47169413
 C     82  68  67     2.891601360952   110.34740992   271.97577010
 C     50  49  46     2.626663833485   143.67915129   183.34786670
 C     84  50  49     2.643174021445   105.75828604   178.18098211
 O     51  50  49     2.514054592675   111.74261680   181.52466205
 H      1   2   3     2.047399753649   116.96090065     0.02362080
 H      7   4   3     2.035856773726   123.30038842   359.86199426
 H     10   5   4     2.037771663502   121.40553593   179.91372854
 H     23  22  21     2.021501509908   129.12581332   180.27063070
 H     24  21  20     2.046595556248   137.27903870   314.19747243
 H     30  27  26     2.037083896550   122.93631344     3.13559847
 H     33  28  27     2.037714464233   121.52784353   180.60119631
 H     45  42  21     2.038260984745   120.91860115   355.51304217
 H     48  43  42     2.038814140208   121.77469434   176.11475728
 H     56  53  44     2.041361711489   120.29928447     2.60440664
 H     57  56  53     2.042530598097   119.33870830   180.25551283
 H     59  58  57     2.041580279857   119.57396095   179.89394734
 H     60  59  58     2.040495515912   120.01605416   180.14792204
 H     61  52  44     2.041981980794   119.86879180     0.83100552
 H     62  61  52     2.041848080314   119.36592496   180.55415072
 H     64  63  62     2.041942089229   119.53629008   179.83088143
 H     65  64  63     2.042763647273   119.79515159   180.83916502
 H     66  55  49     2.042266405457   119.88620429   357.61556181
 H     67  66  55     2.042212491760   119.50603695   179.80690431
 H     69  68  67     2.041456378313   119.63993454   180.50532225
 H     70  69  68     2.040074060606   119.53938573   180.85390525
 H     71  54  49     2.041215703672   119.41773891   357.45713812
 H     72  71  54     2.041889046755   119.60812164   179.76464498
 H     74  73  72     2.042258564026   119.54049491   180.11165637
 H     75  74  73     2.041128529625   119.53162588   180.27074561
 H     76  58  57     2.062965058137   109.83996269   150.22786895
 H     76  58  57     2.063207126592   109.90501248    31.18183821
 H     77  76  58     2.055409157498   110.34214866   300.29544849
 H     77  76  58     2.054851964632   110.48780247   180.11674378
 H     77  76  58     2.055652765428   110.36097252    59.93211172
 H     78  63  62     2.065912783062   109.39024730   133.65064179
 H     78  63  62     2.062880456910   109.69042096    15.27289742
 H     79  78  63     2.054153331755   110.59202484   298.98203672
 H     79  78  63     2.054851644517   110.32923906   178.87918710
 H     79  78  63     2.053018596924   110.57700491    58.46744879
 H     80  73  72     2.063219970191   109.85574794   150.56728723
 H     80  73  72     2.063068607700   109.83163747    31.58034491
 H     81  80  73     2.055404403188   110.35754838   300.11369814
 H     81  80  73     2.054744447471   110.46635282   179.95328935
 H     81  80  73     2.055396102644   110.35081637    59.79669416
 H     82  68  67     2.062898076292   109.85800076   151.46550877
 H     82  68  67     2.063297653869   109.84127134    32.43642715
 H     83  82  68     2.055538523162   110.32409740   300.04552273
 H     83  82  68     2.054932506360   110.49930608   179.88357186
 H     83  82  68     2.055734665046   110.35184910    59.72611887
 H     84  50  49     2.023338686128   128.92125308     1.10438061

---------------------
BASIS SET INFORMATION
---------------------
There are 5 groups of distinct atoms

 Group   1 Type C   : 7s4p1d contracted to 3s2p1d pattern {511/31/1}
 Group   2 Type F   : 7s4p1d contracted to 3s2p1d pattern {511/31/1}
 Group   3 Type O   : 7s4p1d contracted to 3s2p1d pattern {511/31/1}
 Group   4 Type N   : 7s4p1d contracted to 3s2p1d pattern {511/31/1}
 Group   5 Type H   : 4s1p contracted to 2s1p pattern {31/1}

Atom   0C    basis set group =>   1
Atom   1C    basis set group =>   1
Atom   2C    basis set group =>   1
Atom   3C    basis set group =>   1
Atom   4C    basis set group =>   1
Atom   5C    basis set group =>   1
Atom   6C    basis set group =>   1
Atom   7C    basis set group =>   1
Atom   8C    basis set group =>   1
Atom   9C    basis set group =>   1
Atom  10F    basis set group =>   2
Atom  11F    basis set group =>   2
Atom  12O    basis set group =>   3
Atom  13C    basis set group =>   1
Atom  14C    basis set group =>   1
Atom  15C    basis set group =>   1
Atom  16N    basis set group =>   4
Atom  17N    basis set group =>   4
Atom  18C    basis set group =>   1
Atom  19O    basis set group =>   3
Atom  20C    basis set group =>   1
Atom  21C    basis set group =>   1
Atom  22C    basis set group =>   1
Atom  23C    basis set group =>   1
Atom  24C    basis set group =>   1
Atom  25C    basis set group =>   1
Atom  26C    basis set group =>   1
Atom  27C    basis set group =>   1
Atom  28C    basis set group =>   1
Atom  29C    basis set group =>   1
Atom  30C    basis set group =>   1
Atom  31C    basis set group =>   1
Atom  32C    basis set group =>   1
Atom  33F    basis set group =>   2
Atom  34F    basis set group =>   2
Atom  35O    basis set group =>   3
Atom  36C    basis set group =>   1
Atom  37C    basis set group =>   1
Atom  38C    basis set group =>   1
Atom  39N    basis set group =>   4
Atom  40N    basis set group =>   4
Atom  41C    basis set group =>   1
Atom  42C    basis set group =>   1
Atom  43C    basis set group =>   1
Atom  44C    basis set group =>   1
Atom  45C    basis set group =>   1
Atom  46C    basis set group =>   1
Atom  47C    basis set group =>   1
Atom  48C    basis set group =>   1
Atom  49C    basis set group =>   1
Atom  50C    basis set group =>   1
Atom  51C    basis set group =>   1
Atom  52C    basis set group =>   1
Atom  53C    basis set group =>   1
Atom  54C    basis set group =>   1
Atom  55C    basis set group =>   1
Atom  56C    basis set group =>   1
Atom  57C    basis set group =>   1
Atom  58C    basis set group =>   1
Atom  59C    basis set group =>   1
Atom  60C    basis set group =>   1
Atom  61C    basis set group =>   1
Atom  62C    basis set group =>   1
Atom  63C    basis set group =>   1
Atom  64C    basis set group =>   1
Atom  65C    basis set group =>   1
Atom  66C    basis set group =>   1
Atom  67C    basis set group =>   1
Atom  68C    basis set group =>   1
Atom  69C    basis set group =>   1
Atom  70C    basis set group =>   1
Atom  71C    basis set group =>   1
Atom  72C    basis set group =>   1
Atom  73C    basis set group =>   1
Atom  74C    basis set group =>   1
Atom  75C    basis set group =>   1
Atom  76C    basis set group =>   1
Atom  77C    basis set group =>   1
Atom  78C    basis set group =>   1
Atom  79C    basis set group =>   1
Atom  80C    basis set group =>   1
Atom  81C    basis set group =>   1
Atom  82C    basis set group =>   1
Atom  83C    basis set group =>   1
Atom  84C    basis set group =>   1
Atom  85O    basis set group =>   3
Atom  86H    basis set group =>   5
Atom  87H    basis set group =>   5
Atom  88H    basis set group =>   5
Atom  89H    basis set group =>   5
Atom  90H    basis set group =>   5
Atom  91H    basis set group =>   5
Atom  92H    basis set group =>   5
Atom  93H    basis set group =>   5
Atom  94H    basis set group =>   5
Atom  95H    basis set group =>   5
Atom  96H    basis set group =>   5
Atom  97H    basis set group =>   5
Atom  98H    basis set group =>   5
Atom  99H    basis set group =>   5
Atom 100H    basis set group =>   5
Atom 101H    basis set group =>   5
Atom 102H    basis set group =>   5
Atom 103H    basis set group =>   5
Atom 104H    basis set group =>   5
Atom 105H    basis set group =>   5
Atom 106H    basis set group =>   5
Atom 107H    basis set group =>   5
Atom 108H    basis set group =>   5
Atom 109H    basis set group =>   5
Atom 110H    basis set group =>   5
Atom 111H    basis set group =>   5
Atom 112H    basis set group =>   5
Atom 113H    basis set group =>   5
Atom 114H    basis set group =>   5
Atom 115H    basis set group =>   5
Atom 116H    basis set group =>   5
Atom 117H    basis set group =>   5
Atom 118H    basis set group =>   5
Atom 119H    basis set group =>   5
Atom 120H    basis set group =>   5
Atom 121H    basis set group =>   5
Atom 122H    basis set group =>   5
Atom 123H    basis set group =>   5
Atom 124H    basis set group =>   5
Atom 125H    basis set group =>   5
Atom 126H    basis set group =>   5
Atom 127H    basis set group =>   5
Atom 128H    basis set group =>   5
Atom 129H    basis set group =>   5
Atom 130H    basis set group =>   5
Atom 131H    basis set group =>   5
---------------------------------
AUXILIARY/J BASIS SET INFORMATION
---------------------------------
There are 5 groups of distinct atoms

 Group   1 Type C   : 12s5p4d2f1g contracted to 6s4p3d1f1g pattern {711111/2111/211/2/1}
 Group   2 Type F   : 12s5p4d2f1g contracted to 6s4p3d1f1g pattern {711111/2111/211/2/1}
 Group   3 Type O   : 12s5p4d2f1g contracted to 6s4p3d1f1g pattern {711111/2111/211/2/1}
 Group   4 Type N   : 12s5p4d2f1g contracted to 6s4p3d1f1g pattern {711111/2111/211/2/1}
 Group   5 Type H   : 5s2p1d contracted to 3s1p1d pattern {311/2/1}

Atom   0C    basis set group =>   1
Atom   1C    basis set group =>   1
Atom   2C    basis set group =>   1
Atom   3C    basis set group =>   1
Atom   4C    basis set group =>   1
Atom   5C    basis set group =>   1
Atom   6C    basis set group =>   1
Atom   7C    basis set group =>   1
Atom   8C    basis set group =>   1
Atom   9C    basis set group =>   1
Atom  10F    basis set group =>   2
Atom  11F    basis set group =>   2
Atom  12O    basis set group =>   3
Atom  13C    basis set group =>   1
Atom  14C    basis set group =>   1
Atom  15C    basis set group =>   1
Atom  16N    basis set group =>   4
Atom  17N    basis set group =>   4
Atom  18C    basis set group =>   1
Atom  19O    basis set group =>   3
Atom  20C    basis set group =>   1
Atom  21C    basis set group =>   1
Atom  22C    basis set group =>   1
Atom  23C    basis set group =>   1
Atom  24C    basis set group =>   1
Atom  25C    basis set group =>   1
Atom  26C    basis set group =>   1
Atom  27C    basis set group =>   1
Atom  28C    basis set group =>   1
Atom  29C    basis set group =>   1
Atom  30C    basis set group =>   1
Atom  31C    basis set group =>   1
Atom  32C    basis set group =>   1
Atom  33F    basis set group =>   2
Atom  34F    basis set group =>   2
Atom  35O    basis set group =>   3
Atom  36C    basis set group =>   1
Atom  37C    basis set group =>   1
Atom  38C    basis set group =>   1
Atom  39N    basis set group =>   4
Atom  40N    basis set group =>   4
Atom  41C    basis set group =>   1
Atom  42C    basis set group =>   1
Atom  43C    basis set group =>   1
Atom  44C    basis set group =>   1
Atom  45C    basis set group =>   1
Atom  46C    basis set group =>   1
Atom  47C    basis set group =>   1
Atom  48C    basis set group =>   1
Atom  49C    basis set group =>   1
Atom  50C    basis set group =>   1
Atom  51C    basis set group =>   1
Atom  52C    basis set group =>   1
Atom  53C    basis set group =>   1
Atom  54C    basis set group =>   1
Atom  55C    basis set group =>   1
Atom  56C    basis set group =>   1
Atom  57C    basis set group =>   1
Atom  58C    basis set group =>   1
Atom  59C    basis set group =>   1
Atom  60C    basis set group =>   1
Atom  61C    basis set group =>   1
Atom  62C    basis set group =>   1
Atom  63C    basis set group =>   1
Atom  64C    basis set group =>   1
Atom  65C    basis set group =>   1
Atom  66C    basis set group =>   1
Atom  67C    basis set group =>   1
Atom  68C    basis set group =>   1
Atom  69C    basis set group =>   1
Atom  70C    basis set group =>   1
Atom  71C    basis set group =>   1
Atom  72C    basis set group =>   1
Atom  73C    basis set group =>   1
Atom  74C    basis set group =>   1
Atom  75C    basis set group =>   1
Atom  76C    basis set group =>   1
Atom  77C    basis set group =>   1
Atom  78C    basis set group =>   1
Atom  79C    basis set group =>   1
Atom  80C    basis set group =>   1
Atom  81C    basis set group =>   1
Atom  82C    basis set group =>   1
Atom  83C    basis set group =>   1
Atom  84C    basis set group =>   1
Atom  85O    basis set group =>   3
Atom  86H    basis set group =>   5
Atom  87H    basis set group =>   5
Atom  88H    basis set group =>   5
Atom  89H    basis set group =>   5
Atom  90H    basis set group =>   5
Atom  91H    basis set group =>   5
Atom  92H    basis set group =>   5
Atom  93H    basis set group =>   5
Atom  94H    basis set group =>   5
Atom  95H    basis set group =>   5
Atom  96H    basis set group =>   5
Atom  97H    basis set group =>   5
Atom  98H    basis set group =>   5
Atom  99H    basis set group =>   5
Atom 100H    basis set group =>   5
Atom 101H    basis set group =>   5
Atom 102H    basis set group =>   5
Atom 103H    basis set group =>   5
Atom 104H    basis set group =>   5
Atom 105H    basis set group =>   5
Atom 106H    basis set group =>   5
Atom 107H    basis set group =>   5
Atom 108H    basis set group =>   5
Atom 109H    basis set group =>   5
Atom 110H    basis set group =>   5
Atom 111H    basis set group =>   5
Atom 112H    basis set group =>   5
Atom 113H    basis set group =>   5
Atom 114H    basis set group =>   5
Atom 115H    basis set group =>   5
Atom 116H    basis set group =>   5
Atom 117H    basis set group =>   5
Atom 118H    basis set group =>   5
Atom 119H    basis set group =>   5
Atom 120H    basis set group =>   5
Atom 121H    basis set group =>   5
Atom 122H    basis set group =>   5
Atom 123H    basis set group =>   5
Atom 124H    basis set group =>   5
Atom 125H    basis set group =>   5
Atom 126H    basis set group =>   5
Atom 127H    basis set group =>   5
Atom 128H    basis set group =>   5
Atom 129H    basis set group =>   5
Atom 130H    basis set group =>   5
Atom 131H    basis set group =>   5
------------------------------------------------------------------------------
                           ORCA GTO INTEGRAL CALCULATION
                           -- RI-GTO INTEGRALS CHOSEN --
------------------------------------------------------------------------------

                         BASIS SET STATISTICS AND STARTUP INFO

Gaussian basis set:
 # of primitive gaussian shells          ... 1262
 # of primitive gaussian functions       ... 2386
 # of contracted shells                  ...  654
 # of contracted basis functions         ... 1434
 Highest angular momentum                ...    2
 Maximum contraction depth               ...    5
Auxiliary gaussian basis set:
 # of primitive gaussian shells          ... 2432
 # of primitive gaussian functions       ... 6756
 # of contracted shells                  ... 1520
 # of contracted aux-basis functions     ... 4720
 Highest angular momentum                ...    4
 Maximum contraction depth               ...    7
Ratio of auxiliary to basis functions    ...  3.29
Integral package used                  ... LIBINT
 One Electron integrals                  ... done
 Ordering auxiliary basis shells         ... done
 Integral threshhold             Thresh  ...  2.500e-11
 Primitive cut-off               TCut    ...  2.500e-12
 Pre-screening matrix                    ... done
 Shell pair data                         ... 
 Ordering of the shell pairs             ... done (   0.017 sec) 73115 of 214185 pairs
 Determination of significant pairs      ... done (   0.000 sec)
 Creation of shell pair data             ... done (   0.010 sec)
 Storage of shell pair data              ... done (   0.013 sec)
 Shell pair data done in (   0.041 sec)
 Computing two index integrals           ... done
 Cholesky decomposition of the V-matrix  ... done


Timings:
 Total evaluation time                   ...   3.455 sec (  0.058 min)
 One electron matrix time                ...   1.015 sec (  0.017 min) = 29.4%
 Schwartz matrix evaluation time         ...   0.946 sec (  0.016 min) = 27.4%
 Two index repulsion integral time       ...   0.576 sec (  0.010 min) = 16.7%
 Cholesky decomposition of V             ...   0.859 sec (  0.014 min) = 24.9%
 Three index repulsion integral time     ...   0.000 sec (  0.000 min) =  0.0%

-------------------------------------------------------------------------------
                                 ORCA SCF
-------------------------------------------------------------------------------

------------
SCF SETTINGS
------------
Hamiltonian:
 Density Functional     Method          .... DFT(GTOs)
 Exchange Functional    Exchange        .... WB88
 Correlation Functional Correlation     .... LYP
 LDA part of GGA corr.  LDAOpt          .... VWN-5
 Gradients option       PostSCFGGA      .... off
 Hybrid DFT is turned on
   Fraction HF Exchange ScalHFX         ....  0.190000
   Scaling of DF-GGA-X  ScalDFX         ....  0.350000
   Scaling of DF-GGA-C  ScalDFC         ....  0.810000
   Scaling of DF-LDA-C  ScalLDAC        ....  1.000000
   Perturbative correction              ....  0.000000
   Density functional embedding theory  .... OFF
 Long-range corrected/Screened/Range-Separated Hybrid DFT is turned on
   Amount of maximum screened exact exchange              ....  0.460000
   Range separation parameter mu (erf(mu*r12)/r12)        ....  0.330000
 RI-approximation to the Coulomb term is turned on
   Number of auxiliary basis functions  .... 4720
   RIJ-COSX (HFX calculated with COS-X)).... on


General Settings:
 Integral files         IntName         .... IDF-4F
 Hartree-Fock type      HFTyp           .... RHF
 Total Charge           Charge          ....    0
 Multiplicity           Mult            ....    1
 Number of Electrons    NEL             ....  586
 Basis Dimension        Dim             .... 1434
 Nuclear Repulsion      ENuc            ....  13671.3980913644 Eh

Convergence Acceleration:
 DIIS                   CNVDIIS         .... on
   Start iteration      DIISMaxIt       ....    12
   Startup error        DIISStart       ....  0.200000
   # of expansion vecs  DIISMaxEq       ....     5
   Bias factor          DIISBfac        ....   1.050
   Max. coefficient     DIISMaxC        ....  10.000
 Newton-Raphson         CNVNR           .... off
 SOSCF                  CNVSOSCF        .... on
   Start iteration      SOSCFMaxIt      ....   150
   Startup grad/error   SOSCFStart      ....  0.003300
 Level Shifting         CNVShift        .... on
   Level shift para.    LevelShift      ....    0.2500
   Turn off err/grad.   ShiftErr        ....    0.0010
 Zerner damping         CNVZerner       .... off
 Static damping         CNVDamp         .... on
   Fraction old density DampFac         ....    0.7000
   Max. Damping (<1)    DampMax         ....    0.9800
   Min. Damping (>=0)   DampMin         ....    0.0000
   Turn off err/grad.   DampErr         ....    0.1000
 Fernandez-Rico         CNVRico         .... off

SCF Procedure:
 Maximum # iterations   MaxIter         ....   125
 SCF integral mode      SCFMode         .... Direct
   Integral package                     .... LIBINT
 Reset frequency        DirectResetFreq ....    20
 Integral Threshold     Thresh          ....  2.500e-11 Eh
 Primitive CutOff       TCut            ....  2.500e-12 Eh

Convergence Tolerance:
 Convergence Check Mode ConvCheckMode   .... Total+1el-Energy
 Convergence forced     ConvForced      .... 1
 Energy Change          TolE            ....  1.000e-08 Eh
 1-El. energy change                    ....  1.000e-05 Eh
 Orbital Gradient       TolG            ....  1.000e-05
 Orbital Rotation angle TolX            ....  1.000e-05
 DIIS Error             TolErr          ....  5.000e-07


Diagonalization of the overlap matrix:
Smallest eigenvalue                        ... 1.873e-04
Time for diagonalization                   ...    0.696 sec
Threshold for overlap eigenvalues          ... 1.000e-08
Number of eigenvalues below threshold      ... 0
Time for construction of square roots      ...    0.255 sec
Total time needed                          ...    0.957 sec

-------------------
DFT GRID GENERATION
-------------------

General Integration Accuracy     IntAcc      ...  4.670
Radial Grid Type                 RadialGrid  ... Gauss-Chebyshev
Angular Grid (max. acc.)         AngularGrid ... Lebedev-302
Angular grid pruning method      GridPruning ... 3 (G Style)
Weight generation scheme         WeightScheme... Becke
Basis function cutoff            BFCut       ...    1.0000e-11
Integration weight cutoff        WCut        ...    1.0000e-14
Grids for H and He will be reduced by one unit

# of grid points (after initial pruning)     ... 690596 (   2.1 sec)
# of grid points (after weights+screening)   ... 578241 (  41.6 sec)
nearest neighbour list constructed           ...    0.0 sec
Grid point re-assignment to atoms done       ...    0.1 sec
Grid point division into batches done        ...    2.0 sec
Reduced shell lists constructed in   12.7 sec

Total number of grid points                  ...   578241
Total number of batches                      ...     9101
Average number of points per batch           ...       63
Average number of grid points per atom       ...     4381
Average number of shells per batch           ...   112.03 (17.13%)
Average number of basis functions per batch  ...   225.67 (15.74%)
Average number of large shells per batch     ...    62.85 (56.10%)
Average number of large basis fcns per batch ...   129.45 (57.36%)
Maximum spatial batch extension              ...  21.32, 21.85, 21.45 au
Average spatial batch extension              ...   2.05,  2.11,  2.07 au

Time for grid setup =   56.468 sec

------------------------------
INITIAL GUESS: MODEL POTENTIAL
------------------------------
Loading Hartree-Fock densities                     ... done
Calculating cut-offs                               ... done
Setting up the integral package                    ... done
Initializing the effective Hamiltonian             ... done
Starting the Coulomb interaction                   ... done (  15.5 sec)
Reading the grid                                   ... done
Mapping shells                                     ... done
Starting the XC term evaluation                    ... done (  12.4 sec)
  promolecular density results
     # of electrons  =    585.977697045
     EX              =   -491.124757154
     EC              =    -19.853055532
     EX+EC           =   -510.977812686
Transforming the Hamiltonian                       ... done (   0.2 sec)
Diagonalizing the Hamiltonian                      ... done (   0.6 sec)
Back transforming the eigenvectors                 ... done (   0.1 sec)
Now organizing SCF variables                       ... done
                      ------------------
                      INITIAL GUESS DONE (  85.8 sec)
                      ------------------
--------------------
COSX GRID GENERATION
--------------------

General Integration Accuracy     IntAcc      ...  3.340
Radial Grid Type                 RadialGrid  ... Gauss-Chebyshev
Angular Grid (max. acc.)         AngularGrid ... Lebedev-50
Angular grid pruning method      GridPruning ... 3 (G Style)
Weight generation scheme         WeightScheme... Becke
Basis function cutoff            BFCut       ...    1.0000e-11
Integration weight cutoff        WCut        ...    1.0000e-14
Grids for H and He will be reduced by one unit

# of grid points (after initial pruning)     ...  64544 (   0.1 sec)
# of grid points (after weights+screening)   ...  56807 (   3.9 sec)
nearest neighbour list constructed           ...    0.0 sec
Grid point re-assignment to atoms done       ...    0.0 sec
Grid point division into batches done        ...    0.0 sec
Reduced shell lists constructed in    1.5 sec

Total number of grid points                  ...    56807
Total number of batches                      ...      965
Average number of points per batch           ...       58
Average number of grid points per atom       ...      430
Average number of shells per batch           ...   138.78 (21.22%)
Average number of basis functions per batch  ...   281.69 (19.64%)
Average number of large shells per batch     ...    76.96 (55.46%)
Average number of large basis fcns per batch ...   160.61 (57.02%)
Maximum spatial batch extension              ...  21.95, 25.10, 22.45 au
Average spatial batch extension              ...   4.13,  4.56,  4.22 au

Overlap Fitting                  UseSFitting ... on
Constructing numerical overlap ... done (      1.0 sec)
Inverting numerical overlap    ... done (      0.1 sec)
Obtaining analytic overlap     ... done (      0.0 sec)
Final contraction and storage  ... done (      0.1 sec)


General Integration Accuracy     IntAcc      ...  3.670
Radial Grid Type                 RadialGrid  ... Gauss-Chebyshev
Angular Grid (max. acc.)         AngularGrid ... Lebedev-50
Angular grid pruning method      GridPruning ... 3 (G Style)
Weight generation scheme         WeightScheme... Becke
Basis function cutoff            BFCut       ...    1.0000e-11
Integration weight cutoff        WCut        ...    1.0000e-14
Grids for H and He will be reduced by one unit

# of grid points (after initial pruning)     ...  80868 (   0.1 sec)
# of grid points (after weights+screening)   ...  70830 (   4.9 sec)
nearest neighbour list constructed           ...    0.0 sec
Grid point re-assignment to atoms done       ...    0.0 sec
Grid point division into batches done        ...    0.0 sec
Reduced shell lists constructed in    1.9 sec

Total number of grid points                  ...    70830
Total number of batches                      ...     1164
Average number of points per batch           ...       60
Average number of grid points per atom       ...      537
Average number of shells per batch           ...   135.28 (20.69%)
Average number of basis functions per batch  ...   274.20 (19.12%)
Average number of large shells per batch     ...    75.04 (55.47%)
Average number of large basis fcns per batch ...   156.33 (57.01%)
Maximum spatial batch extension              ...  23.90, 24.85, 24.13 au
Average spatial batch extension              ...   3.87,  4.30,  3.91 au

Overlap Fitting                  UseSFitting ... on
Constructing numerical overlap ... done (      1.2 sec)
Inverting numerical overlap    ... done (      0.1 sec)
Obtaining analytic overlap     ... done (      0.0 sec)
Final contraction and storage  ... done (      0.1 sec)


General Integration Accuracy     IntAcc      ...  4.010
Radial Grid Type                 RadialGrid  ... Gauss-Chebyshev
Angular Grid (max. acc.)         AngularGrid ... Lebedev-110
Angular grid pruning method      GridPruning ... 3 (G Style)
Weight generation scheme         WeightScheme... Becke
Basis function cutoff            BFCut       ...    1.0000e-11
Integration weight cutoff        WCut        ...    1.0000e-14
Grids for H and He will be reduced by one unit

# of grid points (after initial pruning)     ... 156704 (   0.3 sec)
# of grid points (after weights+screening)   ... 135767 (   9.6 sec)
nearest neighbour list constructed           ...    0.0 sec
Grid point re-assignment to atoms done       ...    0.0 sec
Grid point division into batches done        ...    0.1 sec
Reduced shell lists constructed in    3.2 sec

Total number of grid points                  ...   135767
Total number of batches                      ...     2196
Average number of points per batch           ...       61
Average number of grid points per atom       ...     1029
Average number of shells per batch           ...   127.74 (19.53%)
Average number of basis functions per batch  ...   258.83 (18.05%)
Average number of large shells per batch     ...    71.46 (55.94%)
Average number of large basis fcns per batch ...   148.50 (57.37%)
Maximum spatial batch extension              ...  25.51, 28.18, 18.63 au
Average spatial batch extension              ...   3.25,  3.47,  3.27 au

Overlap Fitting                  UseSFitting ... on
Constructing numerical overlap ... done (      2.1 sec)
Inverting numerical overlap    ... done (      0.1 sec)
Obtaining analytic overlap     ... done (      0.0 sec)
Final contraction and storage  ... done (      0.1 sec)

Time for X-Grid setup             =   30.325 sec
--------------
SCF ITERATIONS
--------------
ITER       Energy         Delta-E        Max-DP      RMS-DP      [F,P]     Damp
               ***  Starting incremental Fock matrix formation  ***
  0  -3760.5924851400   0.000000000000 0.15703952  0.00085494  0.2262843 0.7000
  1  -3761.2140167443  -0.621531604280 0.09773693  0.00061234  0.0972719 0.7000
                               ***Turning on DIIS***
  2  -3761.4982296944  -0.284212950075 0.17644564  0.00115475  0.0429708 0.0000
  3  -3761.9764318602  -0.478202165803 0.04978292  0.00040284  0.0496884 0.0000
  4  -3762.0482413753  -0.071809515135 0.01683951  0.00011993  0.0239252 0.0000
  5  -3762.0539426270  -0.005701251701 0.00548728  0.00004292  0.0082452 0.0000
                      *** Initiating the SOSCF procedure ***
                           *** Shutting down DIIS ***
                      *** Re-Reading the Fockian *** 
                      *** Removing any level shift *** 
ITER      Energy       Delta-E        Grad      Rot      Max-DP    RMS-DP
  6  -3762.05477143  -0.0008288063  0.002449  0.002449  0.004582  0.000041
               *** Restarting incremental Fock matrix formation ***
  7  -3762.05503574  -0.0002643070  0.000888  0.005344  0.001560  0.000019
  8  -3762.05507031  -0.0000345747  0.000383  0.003528  0.001609  0.000013
  9  -3762.05510493  -0.0000346183  0.000143  0.000739  0.000800  0.000006
 10  -3762.05510360   0.0000013286  0.000165  0.000437  0.000496  0.000003
 11  -3762.05510820  -0.0000045972  0.000025  0.000080  0.000166  0.000001
 12  -3762.05510819   0.0000000165  0.000034  0.000112  0.000111  0.000001
 13  -3762.05510843  -0.0000002484  0.000004  0.000031  0.000030  0.000000
 14  -3762.05510843   0.0000000014  0.000006  0.000012  0.000025  0.000000
                  ***Gradient check signals convergence***
              ***Rediagonalizing the Fockian in SOSCF/NRSCF***

               *****************************************************
               *                     SUCCESS                       *
               *           SCF CONVERGED AFTER  15 CYCLES          *
               *****************************************************

Setting up the final grid:

General Integration Accuracy     IntAcc      ...  5.010
Radial Grid Type                 RadialGrid  ... Gauss-Chebyshev
Angular Grid (max. acc.)         AngularGrid ... Lebedev-434
Angular grid pruning method      GridPruning ... 3 (G Style)
Weight generation scheme         WeightScheme... Becke
Basis function cutoff            BFCut       ...    1.0000e-11
Integration weight cutoff        WCut        ...    1.0000e-14
Grids for H and He will be reduced by one unit

# of grid points (after initial pruning)     ... 1228484 (   2.9 sec)
# of grid points (after weights+screening)   ... 1025208 (  71.9 sec)
nearest neighbour list constructed           ...    0.0 sec
Grid point re-assignment to atoms done       ...    0.2 sec
Grid point division into batches done        ...    6.3 sec
Reduced shell lists constructed in   21.7 sec

Total number of grid points                  ...  1025208
Total number of batches                      ...    16089
Average number of points per batch           ...       63
Average number of grid points per atom       ...     7767
Average number of shells per batch           ...   107.51 (16.44%)
Average number of basis functions per batch  ...   215.92 (15.06%)
Average number of large shells per batch     ...    60.37 (56.15%)
Average number of large basis fcns per batch ...   124.01 (57.43%)
Maximum spatial batch extension              ...  23.31, 22.71, 20.87 au
Average spatial batch extension              ...   1.66,  1.70,  1.66 au

Final grid set up in   96.6 sec
Final integration                            ... done (  25.9 sec)
Change in XC energy                          ...    -0.000028137
Integrated number of electrons               ...   585.999759044
Previous integrated no of electrons          ...   586.000011123
Old exchange energy                            =   -140.784678159 Eh
New exchange energy                            =   -140.785069224 Eh
Exchange energy change after final integration =     -0.000391065 Eh
Total energy after final integration           =  -3762.055527632 Eh
Final COS-X integration done in                =   648.866 sec

----------------
TOTAL SCF ENERGY
----------------

Total Energy       :        -3762.05552763 Eh         -102370.73533 eV

Components:
Nuclear Repulsion  :        13671.39809136 Eh          372017.65508 eV
Electronic Energy  :       -17433.45361900 Eh         -474388.39041 eV
One Electron Energy:       -32360.43027587 Eh         -880572.07523 eV
Two Electron Energy:        14926.97665688 Eh          406183.68481 eV

Virial components:
Potential Energy   :        -7489.42830265 Eh         -203797.70499 eV
Kinetic Energy     :         3727.37277502 Eh          101426.96966 eV
Virial Ratio       :            2.00930488


DFT components:
N(Alpha)           :      292.999879521891 electrons
N(Beta)            :      292.999879521891 electrons
N(Total)           :      585.999759043781 electrons
E(XC)              :     -379.907542897919 Eh       
DFET-embed. en.    :        0.000000000000 Eh       

---------------
SCF CONVERGENCE
---------------

  Last Energy change         ...    2.0264e-09  Tolerance :   1.0000e-08
  Last MAX-Density change    ...    9.3259e-15  Tolerance :   1.0000e-07
  Last RMS-Density change    ...    3.3628e-17  Tolerance :   5.0000e-09
  Last Orbital Gradient      ...    1.4215e-06  Tolerance :   1.0000e-05
  Last Orbital Rotation      ...    1.1618e-05  Tolerance :   1.0000e-05

             **** THE GBW FILE WAS UPDATED (IDF-4F.gbw) ****
             **** DENSITY FILE WAS UPDATED (IDF-4F.scfp) ****
             **** ENERGY FILE WAS UPDATED (IDF-4F.en.tmp) ****
             **** THE GBW FILE WAS UPDATED (IDF-4F.gbw) ****
             **** DENSITY FILE WAS UPDATED (IDF-4F.scfp) ****
----------------
ORBITAL ENERGIES
----------------

  NO   OCC          E(Eh)            E(eV) 
   0   2.0000     -24.803909      -674.9487 
   1   2.0000     -24.803747      -674.9443 
   2   2.0000     -24.800134      -674.8460 
   3   2.0000     -24.798385      -674.7984 
   4   2.0000     -19.317614      -525.6590 
   5   2.0000     -19.312613      -525.5229 
   6   2.0000     -19.221538      -523.0446 
   7   2.0000     -19.220915      -523.0277 
   8   2.0000     -14.421967      -392.4417 
   9   2.0000     -14.420715      -392.4076 
  10   2.0000     -14.416339      -392.2885 
  11   2.0000     -14.413664      -392.2157 
  12   2.0000     -10.389657      -282.7169 
  13   2.0000     -10.388857      -282.6952 
  14   2.0000     -10.384737      -282.5831 
  15   2.0000     -10.384099      -282.5657 
  16   2.0000     -10.373202      -282.2692 
  17   2.0000     -10.372604      -282.2529 
  18   2.0000     -10.352730      -281.7121 
  19   2.0000     -10.351702      -281.6841 
  20   2.0000     -10.350995      -281.6649 
  21   2.0000     -10.347820      -281.5785 
  22   2.0000     -10.347199      -281.5616 
  23   2.0000     -10.346793      -281.5506 
  24   2.0000     -10.343265      -281.4545 
  25   2.0000     -10.342237      -281.4266 
[...]
setting up A+B and A-B matrices...  done
estimated time (min):    0.000
calculating (A-B)^0.5 ... done
calculating (A+B)*(A-B)^0.5 ... done
calculating (A-B)^0.5 *(A+B)*(A-B)^0.5 ... done
diagonalizing ...using LAPACKE_ssyevr ...done

   44 roots found, lowest/highest eigenvalue :     2.050     4.999

excitation energies, transition moments and amplitudes

molecular weight: 1131.198
state   eV        nm        fL         fV        Rl        RV
   0   2.050     604.7   1.260010   1.524562  254.096968  299.541728     0.90 ( 114-> 115)    0.05 ( 113-> 116)    0.02 ( 113-> 115)
   1   2.618     473.6   0.668196   0.742404  -413.232496  -437.420058     0.81 ( 114-> 116)    0.11 ( 113-> 115)    0.02 ( 113-> 117)
   2   3.115     398.0   0.172378   0.167755  -4.596984  -4.698504     0.76 ( 114-> 117)    0.10 ( 113-> 118)    0.04 ( 113-> 116)
   3   3.211     386.1   0.089260   0.090872  -81.260150  -87.349437     0.66 ( 113-> 115)    0.13 ( 114-> 118)    0.06 ( 114-> 116)
   4   3.249     381.6   0.016519   0.015986  -8.374523  -8.618778     0.89 ( 112-> 115)    0.02 ( 111-> 115)    0.02 ( 111-> 116)
   5   3.295     376.3   0.017158   0.016614  -32.893694  -31.139365     0.61 ( 114-> 118)    0.14 ( 113-> 115)    0.07 ( 113-> 117)
   6   3.342     370.9   0.001605   0.001683  -1.783556  -1.648658     0.90 ( 111-> 115)    0.02 ( 112-> 116)    0.02 ( 112-> 115)
   7   3.611     343.3   0.016198   0.015688  64.032903  64.535750     0.61 ( 110-> 115)    0.16 ( 109-> 115)    0.03 ( 113-> 116)
   8   3.659     338.8   0.141490   0.133284   9.260363   1.643048     0.31 ( 109-> 115)    0.19 ( 110-> 115)    0.11 ( 105-> 115)
   9   3.725     332.8   0.066896   0.059724  -57.395139  -52.805964     0.40 ( 109-> 115)    0.11 ( 105-> 115)    0.10 ( 107-> 115)
  10   3.794     326.8   0.075378   0.071606  58.530087  55.479796     0.22 ( 100-> 115)    0.19 ( 113-> 116)    0.11 ( 100-> 116)
  11   3.814     325.1   0.093049   0.090513  76.848133  72.138302     0.46 ( 113-> 116)    0.11 ( 100-> 115)    0.09 ( 100-> 118)
  12   3.865     320.7   0.015003   0.014579   0.618834   2.272841     0.62 ( 112-> 116)    0.08 ( 111-> 116)    0.07 ( 106-> 115)
  13   3.876     319.9   0.008196   0.005932  -38.934201  -32.052582     0.55 ( 108-> 115)    0.22 ( 107-> 115)    0.03 (  99-> 115)
  14   3.892     318.5   0.111266   0.099023  181.291271  168.771040     0.18 ( 107-> 115)    0.15 ( 108-> 115)    0.11 ( 101-> 115)
  15   3.909     317.2   0.086842   0.079902  -135.548257  -127.841284     0.19 ( 106-> 115)    0.15 ( 105-> 115)    0.10 (  99-> 115)
  16   3.939     314.7   0.103208   0.093504  -28.640651  -26.202782     0.46 ( 106-> 115)    0.18 ( 105-> 115)    0.06 ( 113-> 116)
  17   4.054     305.8   0.002310   0.002084  -2.218898  -2.762644     0.71 ( 111-> 116)    0.08 ( 112-> 116)    0.02 ( 111-> 118)
  18   4.075     304.3   0.046451   0.043602  43.647874  41.683570     0.21 (  99-> 117)    0.11 ( 101-> 117)    0.10 (  99-> 118)
  19   4.125     300.5   0.003710   0.003330  -13.220380  -12.873025     0.29 ( 100-> 117)    0.25 ( 100-> 118)    0.23 ( 100-> 116)
  20   4.163     297.8   0.022571   0.017381  33.028851  27.554021     0.70 ( 104-> 115)    0.08 ( 102-> 115)    0.02 ( 104-> 116)
  21   4.182     296.5   0.028257   0.022672  -4.358854  -4.029745     0.38 ( 102-> 115)    0.17 ( 114-> 119)    0.14 ( 114-> 121)
  22   4.208     294.6   0.006470   0.005289  -1.103191  -1.663528     0.86 ( 103-> 115)    0.04 ( 114-> 119)    0.02 ( 103-> 116)
  23   4.252     291.6   0.026034   0.025798   6.476508   4.950887     0.41 ( 114-> 119)    0.11 ( 113-> 118)    0.10 ( 102-> 115)
  24   4.282     289.6   0.020455   0.018355   9.341919   8.856158     0.68 ( 110-> 116)    0.04 ( 109-> 116)    0.03 ( 110-> 115)
  25   4.395     282.1   0.135963   0.122684  -88.262557  -83.655276     0.53 ( 113-> 117)    0.10 ( 109-> 116)    0.09 ( 114-> 118)
  26   4.440     279.3   0.077279   0.067094  15.840089  15.007816     0.58 ( 109-> 116)    0.09 ( 113-> 117)    0.07 ( 110-> 116)
  27   4.493     276.0   0.073613   0.063737  77.242972  70.341684     0.58 ( 106-> 116)    0.10 ( 107-> 116)    0.03 ( 105-> 116)
  28   4.523     274.1   0.113831   0.101743  115.724917  107.845090     0.18 (  97-> 115)    0.13 ( 101-> 115)    0.12 (  98-> 116)
  29   4.539     273.2   0.146246   0.127884  -108.596744  -96.549325     0.31 ( 112-> 117)    0.21 ( 113-> 118)    0.06 ( 114-> 119)
  30   4.569     271.4   0.226039   0.193344  -209.182252  -192.953771     0.24 ( 112-> 117)    0.10 (  98-> 115)    0.08 ( 108-> 116)
  31   4.592     270.0   0.168238   0.145775  -32.827724  -34.985945     0.15 ( 108-> 116)    0.14 ( 113-> 118)    0.13 ( 107-> 116)
  32   4.615     268.7   0.041384   0.036485  194.554350  173.771946     0.21 ( 108-> 116)    0.16 ( 107-> 116)    0.11 ( 105-> 116)
  33   4.636     267.4   0.081157   0.066283  358.783052  325.033510     0.11 ( 107-> 117)    0.08 ( 105-> 118)    0.08 ( 114-> 119)
  34   4.667     265.7   0.029393   0.025046  -55.850827  -50.528977     0.32 ( 112-> 118)    0.25 ( 111-> 117)    0.08 ( 113-> 118)
  35   4.686     264.6   0.344810   0.283925  -430.300386  -397.869899     0.19 ( 105-> 117)    0.13 (  98-> 115)    0.06 ( 108-> 116)
  36   4.721     262.6   0.035865   0.031359  26.479122  27.943738     0.20 ( 112-> 118)    0.19 ( 114-> 121)    0.12 ( 111-> 118)
  37   4.743     261.4   0.032075   0.027604   3.355753   6.347968     0.24 ( 111-> 117)    0.21 ( 111-> 118)    0.15 ( 114-> 121)
  38   4.793     258.7   0.007611   0.006216   7.420561   6.621386     0.73 ( 104-> 116)    0.05 ( 104-> 115)    0.05 ( 106-> 116)
  39   4.859     255.2   0.111964   0.087503  252.128970  218.876752     0.28 (  97-> 115)    0.09 (  98-> 115)    0.05 ( 101-> 115)
  40   4.880     254.0   0.039974   0.032262  -8.356762  -5.348059     0.31 ( 110-> 117)    0.21 ( 110-> 118)    0.08 ( 109-> 117)
  41   4.935     251.2   0.017730   0.012831   7.241899   6.058181     0.22 ( 107-> 116)    0.13 ( 105-> 115)    0.09 ( 108-> 116)
  42   4.963     249.8   0.072979   0.056575  -11.094501  -9.276373     0.16 ( 102-> 116)    0.15 ( 109-> 117)    0.14 ( 110-> 117)
  43   4.999     248.0   0.003423   0.003136   4.808365   4.856602     0.51 ( 103-> 116)    0.07 ( 111-> 118)    0.07 ( 109-> 117)

-----------------------------------------------------------------------------
         ABSORPTION SPECTRUM VIA TRANSITION ELECTRIC DIPOLE MOMENTS
-----------------------------------------------------------------------------
State   Energy  Wavelength   fosc         T2         TX        TY        TZ  
        (cm-1)    (nm)                  (au**2)     (au)      (au)      (au) 
-----------------------------------------------------------------------------
   0   16536.5    604.7   1.260009920  25.08447   3.82828   3.21004   0.35271
   1   21113.4    473.6   0.668195697  10.41886  -3.16165  -0.54002   0.36221
   2   25124.2    398.0   0.172377873   2.25873   1.19971   0.52585  -0.73683
   3   25902.3    386.1   0.089260483   1.13448   0.85422  -0.44084  -0.45873
   4   26208.5    381.6   0.016518857   0.20750  -0.26336  -0.14648   0.34159
   5   26572.4    376.3   0.017158138   0.21258  -0.00173  -0.29911  -0.35087
   6   26959.1    370.9   0.001605344   0.01960   0.04998  -0.11404  -0.06404
   7   29128.0    343.3   0.016198136   0.18308  -0.03720  -0.37522  -0.20224
   8   29513.1    338.8   0.141490330   1.57830   1.07318   0.47240   0.45103
   9   30044.7    332.8   0.066896167   0.73301  -0.61762  -0.58310  -0.10742
  10   30599.6    326.8   0.075378485   0.81097  -0.24535   0.34864   0.79324
  11   30761.0    325.1   0.093048589   0.99583   0.29823  -0.27277  -0.91241
  12   31177.2    320.7   0.015002909   0.15842  -0.26354   0.15532   0.25465
  13   31261.9    319.9   0.008196435   0.08631  -0.10627  -0.01326  -0.27358
  14   31394.6    318.5   0.111265739   1.16676   1.03929   0.23435  -0.17812
  15   31529.1    317.2   0.086841942   0.90676   0.04404   0.40263   0.86181
  16   31772.1    314.7   0.103207509   1.06940   0.77679  -0.10791  -0.67406
  17   32698.6    305.8   0.002309742   0.02325   0.14821   0.02367   0.02700
  18   32867.0    304.3   0.046450849   0.46527   0.60521   0.21411   0.23054
  19   33273.4    300.5   0.003710240   0.03671   0.04595  -0.08140  -0.16725
  20   33575.5    297.8   0.022570547   0.22131  -0.17522  -0.11664  -0.42071
  21   33729.7    296.5   0.028256904   0.27580  -0.23068   0.13929   0.45076
  22   33942.4    294.6   0.006469628   0.06275  -0.06078  -0.23041   0.07724
  23   34296.2    291.6   0.026033904   0.24990  -0.26160  -0.10662   0.41243
  24   34535.9    289.6   0.020455253   0.19499  -0.03167  -0.28573  -0.33518
  25   35451.1    282.1   0.135962911   1.26260   0.48080   0.54666   0.85592
  26   35808.4    279.3   0.077278871   0.71048  -0.46260   0.02482   0.70418
  27   36236.6    276.0   0.073612611   0.66878   0.71519  -0.01393  -0.39634
  28   36483.6    274.1   0.113831283   1.02716   0.98108   0.23532  -0.09632
  29   36605.5    273.2   0.146246357   1.31527  -0.65238  -0.02615   0.94286
  30   36849.1    271.4   0.226038735   2.01944   0.01784   0.49357   1.33248
  31   37035.2    270.0   0.168237599   1.49549  -0.84259  -0.51515  -0.72122
  32   37221.6    268.7   0.041383754   0.36602  -0.52823   0.09446   0.27942
  33   37390.9    267.4   0.081157348   0.71456  -0.73606   0.15120   0.38718
  34   37642.9    265.7   0.029392577   0.25706  -0.35112  -0.17242  -0.32256
  35   37792.6    264.6   0.344810380   3.00365  -1.32630  -0.54962  -0.97082
  36   38077.5    262.6   0.035864965   0.31008  -0.22387   0.00716   0.50982
  37   38257.0    261.4   0.032074902   0.27601  -0.12690   0.08666   0.50239
  38   38656.1    258.7   0.007611204   0.06482  -0.04370   0.13914   0.20869
  39   39192.6    255.2   0.111963639   0.94048  -0.33763   0.33760   0.84410
  40   39363.2    254.0   0.039974477   0.33432  -0.08329   0.21941   0.52844
  41   39803.6    251.2   0.017730216   0.14665   0.32576   0.05584  -0.19341
  42   40032.0    249.8   0.072978961   0.60016   0.42154   0.22377   0.61024
  43   40323.3    248.0   0.003423155   0.02795  -0.15248  -0.06834  -0.00540

-----------------------------------------------------------------------------
         ABSORPTION SPECTRUM VIA TRANSITION VELOCITY DIPOLE MOMENTS
-----------------------------------------------------------------------------
State   Energy  Wavelength   fosc         P2         PX        PY        PZ  
        (cm-1)    (nm)                  (au**2)     (au)      (au)      (au) 
-----------------------------------------------------------------------------
   0   16536.5    604.7   1.524561906   0.17230   0.31553   0.26774   0.03257
   1   21113.4    473.6   0.742404120   0.10713  -0.32103  -0.05148   0.03768
   2   25124.2    398.0   0.167755415   0.02881   0.13542   0.05834  -0.08404
   3   25902.3    386.1   0.090872454   0.01609   0.10246  -0.05253  -0.05320
   4   26208.5    381.6   0.015985653   0.00286  -0.03088  -0.01650   0.04046
   5   26572.4    376.3   0.016613759   0.00302  -0.00281  -0.03582  -0.04155
   6   26959.1    370.9   0.001682855   0.00031   0.00609  -0.01430  -0.00827
   7   29128.0    343.3   0.015687879   0.00312  -0.00381  -0.04850  -0.02751
   8   29513.1    338.8   0.133283592   0.02688   0.13934   0.06404   0.05803
   9   30044.7    332.8   0.059724269   0.01226  -0.08096  -0.07462  -0.01188
  10   30599.6    326.8   0.071605740   0.01498  -0.02897   0.05043   0.10767
  11   30761.0    325.1   0.090513452   0.01903   0.03382  -0.04088  -0.12734
  12   31177.2    320.7   0.014579411   0.00311  -0.03440   0.02238   0.03771
  13   31261.9    319.9   0.005932335   0.00127  -0.01195   0.00138  -0.03351
  14   31394.6    318.5   0.099022753   0.02125   0.13998   0.03128  -0.02599
  15   31529.1    317.2   0.079901568   0.01722   0.00512   0.05376   0.11959
  16   31772.1    314.7   0.093503717   0.02030   0.10876  -0.01354  -0.09106
  17   32698.6    305.8   0.002083765   0.00047   0.02072   0.00371   0.00474
  18   32867.0    304.3   0.043601516   0.00979   0.08785   0.03187   0.03256
  19   33273.4    300.5   0.003330118   0.00076   0.00587  -0.01139  -0.02435
  20   33575.5    297.8   0.017381311   0.00399  -0.02533  -0.01708  -0.05527
  21   33729.7    296.5   0.022672048   0.00523  -0.03133   0.01959   0.06214
  22   33942.4    294.6   0.005289184   0.00123  -0.01015  -0.03111   0.01250
  23   34296.2    291.6   0.025797620   0.00605  -0.03959  -0.01485   0.06526
  24   34535.9    289.6   0.018355240   0.00433  -0.00534  -0.04275  -0.04976
  25   35451.1    282.1   0.122684490   0.02973   0.07589   0.08430   0.12984
  26   35808.4    279.3   0.067094201   0.01642  -0.07039   0.00525   0.10694
  27   36236.6    276.0   0.063737024   0.01579   0.10892  -0.00103  -0.06262
  28   36483.6    274.1   0.101742609   0.02537   0.15401   0.03775  -0.01498
  29   36605.5    273.2   0.127884138   0.03199  -0.10372  -0.00461   0.14565
  30   36849.1    271.4   0.193343571   0.04869   0.00197   0.07694   0.20680
  31   37035.2    270.0   0.145775382   0.03690  -0.13018  -0.08146  -0.11540
  32   37221.6    268.7   0.036484802   0.00928  -0.08600   0.01120   0.04195
  33   37390.9    267.4   0.066282509   0.01694  -0.11464   0.02330   0.05703
  34   37642.9    265.7   0.025046309   0.00644  -0.05534  -0.02795  -0.05099
  35   37792.6    264.6   0.283924887   0.07334  -0.20354  -0.08635  -0.15637
  36   38077.5    262.6   0.031359271   0.00816  -0.04166  -0.00241   0.08012
  37   38257.0    261.4   0.027603623   0.00722  -0.02755   0.01038   0.07969
  38   38656.1    258.7   0.006216329   0.00164  -0.00590   0.02287   0.03293
  39   39192.6    255.2   0.087503000   0.02344  -0.05556   0.05357   0.13222
  40   39363.2    254.0   0.032261959   0.00868  -0.01385   0.03360   0.08578
  41   39803.6    251.2   0.012831474   0.00349   0.04900   0.00702  -0.03225
  42   40032.0    249.8   0.056575444   0.01548   0.06704   0.03547   0.09862
  43   40323.3    248.0   0.003135912   0.00086  -0.02681  -0.01178  -0.00257

-------------------------------------------------------------------
                             CD SPECTRUM
-------------------------------------------------------------------
State   Energy Wavelength       R         MX        MY        MZ   
        (cm-1)   (nm)       (1e40*cgs)   (au)      (au)      (au)  
-------------------------------------------------------------------
   0   16536.5    604.7    254.09697  -2.08087   2.62275  -4.34053
   1   21113.4    473.6    -413.23250  -0.64793   0.26602  -0.41914
   2   25124.2    398.0     -4.59698  -0.82786   0.68251  -0.88732
   3   25902.3    386.1    -81.26015   0.77205  -0.80395   1.45877
   4   26208.5    381.6     -8.37452   0.19865   0.11204   0.30521
   5   26572.4    376.3    -32.89369   0.30392  -0.65423   0.15850
   6   26959.1    370.9     -1.78356   0.18038  -0.12152   0.23901
   7   29128.0    343.3     64.03290   0.31797   0.08560   1.12591
   8   29513.1    338.8      9.26036  -0.58439   1.48673  -0.25378
   9   30044.7    332.8    -57.39514   1.43656  -2.16311   1.21559
  10   30599.6    326.8     58.53009  -0.63630   1.17342  -1.02557
  11   30761.0    325.1     76.84813  -0.06602  -0.74381   0.55810
  12   31177.2    320.7      0.61883  -0.16794   0.32583  -0.38285
  13   31261.9    319.9    -38.93420  -0.00974  -0.28330  -0.58622
  14   31394.6    318.5    181.29127  -1.31114   1.88501  -0.85231
  15   31529.1    317.2    -135.54826  -0.74403   1.24039   0.12576
  16   31772.1    314.7    -28.64065  -0.08496   0.00300  -0.27865
  17   32698.6    305.8     -2.21890  -0.03171   0.16397   0.37895
  18   32867.0    304.3     43.64787  -0.82418   0.99895   0.43266
  19   33273.4    300.5    -13.22038  -0.26226  -0.22253  -0.29909
  20   33575.5    297.8     33.02885   0.40939  -0.84138   0.39581
  21   33729.7    296.5     -4.35885  -0.36967   0.65574  -0.35079
  22   33942.4    294.6     -1.10319   0.14955   0.06150   0.36175
  23   34296.2    291.6      6.47651  -0.36201   0.84894  -0.07678
  24   34535.9    289.6      9.34192   0.17955  -0.26375   0.32612
  25   35451.1    282.1    -88.26256  -0.24589   0.91133  -0.00646
  26   35808.4    279.3     15.84009   0.38518  -0.08712   0.16068
  27   36236.6    276.0     77.24297  -0.45114   0.56779  -0.00725
  28   36483.6    274.1    115.72492  -0.77930   1.23045   0.16542
  29   36605.5    273.2    -108.59674   1.29684  -1.69558   1.33890
  30   36849.1    271.4    -209.18225   0.38585   0.04061   0.64577
  31   37035.2    270.0    -32.82772   1.01863  -2.04042   0.07429
  32   37221.6    268.7    194.55435   1.33472  -2.62408   0.45653
  33   37390.9    267.4    358.78305   1.35854  -2.21132  -0.48486
  34   37642.9    265.7    -55.85083  -0.62330   0.84141  -0.50582
  35   37792.6    264.6    -430.30039  -0.32666  -0.03682  -1.41320
  36   38077.5    262.6     26.47912  -0.27208   1.32400  -0.35842
  37   38257.0    261.4      3.35575  -0.02716   0.78255  -0.17019
  38   38656.1    258.7      7.42056  -0.04812   0.07410  -0.21032
  39   39192.6    255.2    252.12897  -0.42311   0.87025  -1.78444
  40   39363.2    254.0     -8.35676  -0.20752   0.86849  -0.32622
  41   39803.6    251.2      7.24190   0.35934  -1.03601   0.46497
  42   40032.0    249.8    -11.09450  -0.30987   1.10618  -0.11446
  43   40323.3    248.0      4.80836   0.17948  -0.11037   0.10640

sTD-DFT done

Total run time:        6.280 sec

           *** ORCA-CIS/TD-DFT FINISHED WITHOUT ERROR ***

-------------------------   --------------------
FINAL SINGLE POINT ENERGY     -3762.055527632387
-------------------------   --------------------


                            ***************************************
                            *     ORCA property calculations      *
                            ***************************************

                                    ---------------------
                                    Active property flags
                                    ---------------------
   (+) Dipole Moment


------------------------------------------------------------------------------
                       ORCA ELECTRIC PROPERTIES CALCULATION
------------------------------------------------------------------------------

Dipole Moment Calculation                       ... on
Quadrupole Moment Calculation                   ... off
Polarizability Calculation                      ... off
GBWName                                         ... IDF-4F.gbw
Electron density file                           ... IDF-4F.scfp
The origin for moment calculation is the CENTER OF MASS  = ( 9.559814,  0.619454 -3.697616)

-------------
DIPOLE MOMENT
-------------
                                X             Y             Z
Electronic contribution:    -43.56319      35.05283      39.95613
Nuclear contribution   :     46.33120     -35.26433     -39.26421
                        -----------------------------------------
Total Dipole Moment    :      2.76802      -0.21151       0.69192
                        -----------------------------------------
Magnitude (a.u.)       :      2.86101
Magnitude (Debye)      :      7.27212



--------------------
Rotational spectrum 
--------------------
 
Rotational constants in cm-1:     0.000850     0.000392     0.000330 
Rotational constants in MHz :    25.479997    11.747965     9.891771 

 Dipole components along the rotational axes: 
x,y,z [a.u.] :     2.215369     0.075512     1.808822 
x,y,z [Debye]:     5.631021     0.191937     4.597661 

 

Timings for individual modules:

Sum of individual times         ...     5472.851 sec (=  91.214 min)
GTO integral calculation        ...        4.719 sec (=   0.079 min)   0.1 %
SCF iterations                  ...     5461.783 sec (=  91.030 min)  99.8 %
CIS module                      ...        6.348 sec (=   0.106 min)   0.1 %
                             ****ORCA TERMINATED NORMALLY****
TOTAL RUN TIME: 0 days 1 hours 31 minutes 13 seconds 503 msec
