
                                 *****************
                                 * O   R   C   A *
                                 *****************

           --- An Ab Initio, DFT and Semiempirical electronic structure package ---

                  #######################################################
                  #                        -***-                        #
                  #          Department of theory and spectroscopy      #
                  #               Directorship: Frank Neese             #
                  #        Max Planck Institute fuer Kohlenforschung    #
                  #                Kaiser Wilhelm Platz 1               #
                  #                 D-45470 Muelheim/Ruhr               #
                  #                      Germany                        #
                  #                                                     #
                  #                  All rights reserved                #
                  #                        -***-                        #
                  #######################################################


                         Program Version 4.2.0 -  RELEASE  -


 With contributions from (in alphabetic order):
   Daniel Aravena         : Magnetic Suceptibility
   Michael Atanasov       : Ab Initio Ligand Field Theory (pilot matlab implementation)
   Alexander A. Auer      : GIAO ZORA, VPT2
   Ute Becker             : Parallelization
   Giovanni Bistoni       : ED, misc. LED, open-shell LED, HFLED
   Martin Brehm           : Molecular dynamics
   Dmytro Bykov           : SCF Hessian
   Vijay G. Chilkuri      : MRCI spin determinant printing, contributions to CSF-ICE
   Dipayan Datta          : RHF DLPNO-CCSD density
   Achintya Kumar Dutta   : EOM-CC, STEOM-CC
   Dmitry Ganyushin       : Spin-Orbit,Spin-Spin,Magnetic field MRCI
   Miquel Garcia          : C-PCM Hessian, Gaussian charge scheme
   Yang Guo               : DLPNO-NEVPT2, CIM, IAO-localization
   Andreas Hansen         : Spin unrestricted coupled pair/coupled cluster methods
   Benjamin Helmich-Paris : CASSCF linear response (MC-RPA)
   Lee Huntington         : MR-EOM, pCC
   Robert Izsak           : Overlap fitted RIJCOSX, COSX-SCS-MP3, EOM
   Christian Kollmar      : KDIIS, OOCD, Brueckner-CCSD(T), CCSD density
   Simone Kossmann        : Meta GGA functionals, TD-DFT gradient, OOMP2, MP2 Hessian
   Martin Krupicka        : AUTO-CI
   Lucas Lang             : DCDCAS
   Dagmar Lenk            : GEPOL surface, SMD
   Dimitrios Liakos       : Extrapolation schemes; Compound Job, initial MDCI parallelization
   Dimitrios Manganas     : Further ROCIS development; embedding schemes
   Dimitrios Pantazis     : SARC Basis sets
   Taras Petrenko         : DFT Hessian,TD-DFT gradient, ASA, ECA, R-Raman, ABS, FL, XAS/XES, NRVS
   Peter Pinski           : DLPNO-MP2, DLPNO-MP2 Gradient
   Christoph Reimann      : Effective Core Potentials
   Marius Retegan         : Local ZFS, SOC
   Christoph Riplinger    : Optimizer, TS searches, QM/MM, DLPNO-CCSD(T), (RO)-DLPNO pert. Triples
   Tobias Risthaus        : Range-separated hybrids, TD-DFT gradient, RPA, STAB
   Michael Roemelt        : Original ROCIS implementation
   Masaaki Saitow         : Open-shell DLPNO-CCSD energy and density
   Barbara Sandhoefer     : DKH picture change effects
   Avijit Sen             : IP-ROCIS
   Kantharuban Sivalingam : CASSCF convergence, NEVPT2, FIC-MRCI
   Bernardo de Souza      : ESD, SOC TD-DFT
   Georgi Stoychev        : AutoAux, RI-MP2 NMR
   Willem Van den Heuvel  : Paramagnetic NMR
   Boris Wezisla          : Elementary symmetry handling
   Frank Wennmohs         : Technical directorship


 We gratefully acknowledge several colleagues who have allowed us to
 interface, adapt or use parts of their codes:
   Stefan Grimme, W. Hujo, H. Kruse,             : VdW corrections, initial TS optimization,
                  C. Bannwarth                     DFT functionals, gCP, sTDA/sTD-DF
   Ed Valeev, F. Pavosevic, A. Kumar             : LibInt (2-el integral package), F12 methods
   Garnet Chan, S. Sharma, J. Yang, R. Olivares  : DMRG
   Ulf Ekstrom                                   : XCFun DFT Library
   Mihaly Kallay                                 : mrcc  (arbitrary order and MRCC methods)
   Andreas Klamt, Michael Diedenhofen            : otool_cosmo (COSMO solvation model)
   Jiri Pittner, Ondrej Demel                    : Mk-CCSD
   Frank Weinhold                                : gennbo (NPA and NBO analysis)
   Christopher J. Cramer and Donald G. Truhlar   : smd solvation model
   Lars Goerigk                                  : TD-DFT with DH, B97 family of functionals
   V. Asgeirsson, H. Jonsson                     : NEB implementation
   FAccTs GmbH                                   : IRC, NEB, NEB-TS, Multilevel, MM, QM/MM, CI optimization
   S Lehtola, MJT Oliveira, MAL Marques          : LibXC Library


 Your calculation uses the libint2 library for the computation of 2-el integrals
 For citations please refer to: http://libint.valeyev.net

 Your ORCA version has been built with support for libXC version: 4.2.3
 For citations please refer to: https://tddft.org/programs/libxc/

 This ORCA versions uses:
   CBLAS   interface :  Fast vector & matrix operations
   LAPACKE interface :  Fast linear algebra routines
   SCALAPACK package :  Parallel linear algebra routines


XCFun DFT library Copyright 2009-2010 Ulf Ekstrom and contributors.
See http://admol.org/xcfun for more information. This is free soft-
ware; see the source code for copying conditions. There is ABSOLUTELY
NO WARRANTY; not even for MERCHANTABILITY or FITNESS FOR A PARTICULAR
PURPOSE. For details see the documentation. Scientific users of this 
library should cite U. Ekstrom, L. Visscher, R. Bast, A. J. Thorvald-
sen and K. Ruud; J.Chem.Theor.Comp. 2010, DOI: 10.1021/ct100117s
XCFun Version 0.99 
----- Orbital basis set information -----
Your calculation utilizes the basis: def2-SVP
   F. Weigend and R. Ahlrichs, Phys. Chem. Chem. Phys. 7, 3297 (2005).

----- AuxJ basis set information -----
Your calculation utilizes the auxiliary basis: def2/J
   F. Weigend, Phys. Chem. Chem. Phys. 8, 1057 (2006).

================================================================================
                                        WARNINGS
                       Please study these warnings very carefully!
================================================================================

INFO   : Checking CIS options ...

WARNING: CIS/ROCIS methods need fully converged wavefunctions
  ===> : Setting SCFConvForced true
         You can overwrite this default with %scf ConvForced false 


INFO   : the flag for use of LIBINT has been found!

================================================================================
                                       INPUT FILE
================================================================================
NAME = IDIC.inp
|  1> # ORCA input file
|  2> # IDIC.out: Geometry 18
|  3> ! CAM-B3LYP def2-SVP def2/J RIJCOSX Grid4 TightSCF
|  4> %maxcore 5000
|  5> %tddft
|  6>     Mode sTDDFT
|  7>     Ethresh 5.0
|  8>     maxcore 5000
|  9> end
| 10> * xyz 0 1
| 11>    C        2.88191         1.08454        -0.59991
| 12>    C        2.82037        -0.33452        -0.73666
| 13>    C        1.58461        -0.96482        -0.75979
| 14>    C        0.43270        -0.16393        -0.69310
| 15>    C        0.49260         1.25982        -0.62596
| 16>    C        1.72839         1.88762        -0.55896
| 17>    C       -0.95897        -0.52598        -0.59248
| 18>    C       -1.76645         0.61186        -0.50140
| 19>    C       -0.91650         1.87205        -0.56645
| 20>    C        4.27625         1.42571        -0.46215
| 21>    C        5.07977         0.28107        -0.53139
| 22>    C        4.22450        -0.95861        -0.74531
| 23>    S       -1.83943        -1.98113        -0.42668
| 24>    C       -3.35239        -1.06830        -0.21208
| 25>    C       -3.11838         0.31614        -0.30161
| 26>    S        5.17547         2.85547        -0.18956
| 27>    C        6.69201         1.92493        -0.17157
| 28>    C        6.44226         0.55933        -0.38921
| 29>    C       -1.12412         2.75594         0.68761
| 30>    C       -1.26252         2.64808        -1.87311
| 31>    C       -0.54483         3.97696        -2.10097
| 32>    C       -0.98824         2.02354         2.02149
| 33>    C        4.57353        -1.58398        -2.12967
| 34>    C        4.35770        -1.96544         0.42906
| 35>    C        3.86962        -2.89059        -2.48912
| 36>    C        5.74614        -2.57111         0.63588
| 37>    C        7.86784         2.67212         0.09247
| 38>    C       -4.49036        -1.86273         0.08392
| 39>    C       -5.81356        -1.56233         0.33093
| 40>    C        9.19973         2.32301         0.19877
| 41>    C        9.80986         0.97762        -0.01182
| 42>    C       11.27586         1.16572         0.11652
| 43>    C       11.56406         2.51317         0.40747
| 44>    C       10.28659         3.25958         0.51772
| 45>    C       -6.47688        -0.22970         0.23396
| 46>    C       -7.92580        -0.47762         0.44094
| 47>    C       -8.15023        -1.84824         0.67663
| 48>    C       -6.84425        -2.55025         0.67937
| 49>    C       12.26784         0.20281        -0.01995
| 50>    C       13.59885         0.60562         0.12575
| 51>    C       13.90312         1.94644         0.39869
| 52>    C       12.90010         2.91163         0.54432
| 53>    C       -8.95831         0.45137         0.40953
| 54>    C      -10.26474        -0.00943         0.60122
| 55>    C      -10.50589        -1.37321         0.81736
| 56>    C       -9.46188        -2.30429         0.86220
| 57>    O        9.26441        -0.08904        -0.24697
| 58>    O       -5.97747         0.86257         0.01765
| 59>    C       -6.66776        -3.88054         1.01897
| 60>    C       10.18437         4.58481         0.90544
| 61>    C        8.94856         5.28437         1.08274
| 62>    C       11.31625         5.40396         1.21293
| 63>    C       -5.39588        -4.52981         1.11275
| 64>    C       -7.74803        -4.75323         1.36323
| 65>    N        7.96937         5.89277         1.23590
| 66>    N       12.19627         6.11499         1.47883
| 67>    N       -8.58788        -5.50338         1.65077
| 68>    N       -4.38661        -5.09971         1.20653
| 69>    H        1.49589        -2.05208        -0.79544
| 70>    H        1.81565         2.96911        -0.43756
| 71>    H       -3.93759         1.02367        -0.18835
| 72>    H        7.26807        -0.14615        -0.42518
| 73>    H       -2.12524         3.21484         0.61425
| 74>    H       -0.40681         3.59177         0.65049
| 75>    H       -2.35154         2.82479        -1.86345
| 76>    H       -1.06746         1.97244        -2.72209
| 77>    H       -0.74087         4.69857        -1.29320
| 78>    H       -0.90077         4.43681        -3.03624
| 79>    H        0.54490         3.85141        -2.19162
| 80>    H       -1.75217         1.23980         2.13577
| 81>    H       -1.10509         2.72647         2.86044
| 82>    H       -0.00289         1.54051         2.11895
| 83>    H        5.66406        -1.74222        -2.15933
| 84>    H        4.35756        -0.82316        -2.89747
| 85>    H        3.62617        -2.77384         0.26819
| 86>    H        4.03905        -1.44838         1.34936
| 87>    H        4.09244        -3.69209        -1.76831
| 88>    H        4.21022        -3.24041        -3.47612
| 89>    H        2.77653        -2.77439        -2.54306
| 90>    H        5.71969        -3.32475         1.43830
| 91>    H        6.48468        -1.81125         0.92699
| 92>    H        6.12098        -3.07291        -0.26949
| 93>    H        7.65360         3.72813         0.25624
| 94>    H       -4.24181        -2.92295         0.14218
| 95>    H       11.99112        -0.83000        -0.24189
| 96>    H       14.40655        -0.12211         0.02120
| 97>    H       14.94681         2.25196         0.50462
| 98>    H       13.17608         3.93997         0.76460
| 99>    H       -8.73147         1.50463         0.23064
|100>    H      -11.10260         0.69076         0.57930
|101>    H      -11.53039        -1.72452         0.96065
|102>    H       -9.68810        -3.35294         1.04108
|103> *
|104> 
|105>                          ****END OF INPUT****
================================================================================

                       ****************************
                       * Single Point Calculation *
                       ****************************

---------------------------------
CARTESIAN COORDINATES (ANGSTROEM)
---------------------------------
  C      2.881910    1.084540   -0.599910
  C      2.820370   -0.334520   -0.736660
  C      1.584610   -0.964820   -0.759790
  C      0.432700   -0.163930   -0.693100
  C      0.492600    1.259820   -0.625960
  C      1.728390    1.887620   -0.558960
  C     -0.958970   -0.525980   -0.592480
  C     -1.766450    0.611860   -0.501400
  C     -0.916500    1.872050   -0.566450
  C      4.276250    1.425710   -0.462150
  C      5.079770    0.281070   -0.531390
  C      4.224500   -0.958610   -0.745310
  S     -1.839430   -1.981130   -0.426680
  C     -3.352390   -1.068300   -0.212080
  C     -3.118380    0.316140   -0.301610
  S      5.175470    2.855470   -0.189560
  C      6.692010    1.924930   -0.171570
  C      6.442260    0.559330   -0.389210
  C     -1.124120    2.755940    0.687610
  C     -1.262520    2.648080   -1.873110
  C     -0.544830    3.976960   -2.100970
  C     -0.988240    2.023540    2.021490
  C      4.573530   -1.583980   -2.129670
  C      4.357700   -1.965440    0.429060
  C      3.869620   -2.890590   -2.489120
  C      5.746140   -2.571110    0.635880
  C      7.867840    2.672120    0.092470
  C     -4.490360   -1.862730    0.083920
  C     -5.813560   -1.562330    0.330930
  C      9.199730    2.323010    0.198770
  C      9.809860    0.977620   -0.011820
  C     11.275860    1.165720    0.116520
  C     11.564060    2.513170    0.407470
  C     10.286590    3.259580    0.517720
  C     -6.476880   -0.229700    0.233960
  C     -7.925800   -0.477620    0.440940
  C     -8.150230   -1.848240    0.676630
  C     -6.844250   -2.550250    0.679370
  C     12.267840    0.202810   -0.019950
  C     13.598850    0.605620    0.125750
  C     13.903120    1.946440    0.398690
  C     12.900100    2.911630    0.544320
  C     -8.958310    0.451370    0.409530
  C    -10.264740   -0.009430    0.601220
  C    -10.505890   -1.373210    0.817360
  C     -9.461880   -2.304290    0.862200
  O      9.264410   -0.089040   -0.246970
  O     -5.977470    0.862570    0.017650
  C     -6.667760   -3.880540    1.018970
  C     10.184370    4.584810    0.905440
  C      8.948560    5.284370    1.082740
  C     11.316250    5.403960    1.212930
  C     -5.395880   -4.529810    1.112750
  C     -7.748030   -4.753230    1.363230
  N      7.969370    5.892770    1.235900
  N     12.196270    6.114990    1.478830
  N     -8.587880   -5.503380    1.650770
  N     -4.386610   -5.099710    1.206530
  H      1.495890   -2.052080   -0.795440
  H      1.815650    2.969110   -0.437560
  H     -3.937590    1.023670   -0.188350
  H      7.268070   -0.146150   -0.425180
  H     -2.125240    3.214840    0.614250
  H     -0.406810    3.591770    0.650490
  H     -2.351540    2.824790   -1.863450
  H     -1.067460    1.972440   -2.722090
  H     -0.740870    4.698570   -1.293200
  H     -0.900770    4.436810   -3.036240
  H      0.544900    3.851410   -2.191620
  H     -1.752170    1.239800    2.135770
  H     -1.105090    2.726470    2.860440
  H     -0.002890    1.540510    2.118950
  H      5.664060   -1.742220   -2.159330
  H      4.357560   -0.823160   -2.897470
  H      3.626170   -2.773840    0.268190
  H      4.039050   -1.448380    1.349360
  H      4.092440   -3.692090   -1.768310
  H      4.210220   -3.240410   -3.476120
  H      2.776530   -2.774390   -2.543060
  H      5.719690   -3.324750    1.438300
  H      6.484680   -1.811250    0.926990
  H      6.120980   -3.072910   -0.269490
  H      7.653600    3.728130    0.256240
  H     -4.241810   -2.922950    0.142180
  H     11.991120   -0.830000   -0.241890
  H     14.406550   -0.122110    0.021200
  H     14.946810    2.251960    0.504620
  H     13.176080    3.939970    0.764600
  H     -8.731470    1.504630    0.230640
  H    -11.102600    0.690760    0.579300
  H    -11.530390   -1.724520    0.960650
  H     -9.688100   -3.352940    1.041080

----------------------------
CARTESIAN COORDINATES (A.U.)
----------------------------
  NO LB      ZA    FRAG     MASS         X           Y           Z
   0 C     6.0000    0    12.011    5.446021    2.049484   -1.133666
   1 C     6.0000    0    12.011    5.329727   -0.632151   -1.392086
   2 C     6.0000    0    12.011    2.994479   -1.823246   -1.435795
   3 C     6.0000    0    12.011    0.817684   -0.309783   -1.309769
   4 C     6.0000    0    12.011    0.930879    2.380715   -1.182893
   5 C     6.0000    0    12.011    3.266184    3.567085   -1.056281
   6 C     6.0000    0    12.011   -1.812191   -0.993958   -1.119625
   7 C     6.0000    0    12.011   -3.338107    1.156248   -0.947509
   8 C     6.0000    0    12.011   -1.731934    3.537662   -1.070435
   9 C     6.0000    0    12.011    8.080941    2.694201   -0.873337
  10 C     6.0000    0    12.011    9.599374    0.531145   -1.004182
  11 C     6.0000    0    12.011    7.983148   -1.811510   -1.408432
  12 S    16.0000    0    32.060   -3.476019   -3.743793   -0.806308
  13 C     6.0000    0    12.011   -6.335099   -2.018794   -0.400773
  14 C     6.0000    0    12.011   -5.892884    0.597418   -0.569960
  15 S    16.0000    0    32.060    9.780221    5.396056   -0.358216
  16 C     6.0000    0    12.011   12.646066    3.637591   -0.324220
  17 C     6.0000    0    12.011   12.174107    1.056981   -0.735500
  18 C     6.0000    0    12.011   -2.124279    5.207972    1.299395
  19 C     6.0000    0    12.011   -2.385817    5.004146   -3.539665
  20 C     6.0000    0    12.011   -1.029579    7.515365   -3.970258
  21 C     6.0000    0    12.011   -1.867503    3.823936    3.820062
  22 C     6.0000    0    12.011    8.642719   -2.993288   -4.024493
  23 C     6.0000    0    12.011    8.234860   -3.714143    0.810806
  24 C     6.0000    0    12.011    7.312522   -5.462423   -4.703755
  25 C     6.0000    0    12.011   10.858631   -4.858694    1.201639
  26 C     6.0000    0    12.011   14.868063    5.049575    0.174743
  27 C     6.0000    0    12.011   -8.485551   -3.520050    0.158586
  28 C     6.0000    0    12.011  -10.986036   -2.952376    0.625367
  29 C     6.0000    0    12.011   17.384970    4.389853    0.375621
  30 C     6.0000    0    12.011   18.537949    1.847434   -0.022337
  31 C     6.0000    0    12.011   21.308287    2.202892    0.220191
  32 C     6.0000    0    12.011   21.852906    4.749203    0.770007
  33 C     6.0000    0    12.011   19.438838    6.159714    0.978349
  34 C     6.0000    0    12.011  -12.239529   -0.434070    0.442120
  35 C     6.0000    0    12.011  -14.977591   -0.902571    0.833256
  36 C     6.0000    0    12.011  -15.401703   -3.492667    1.278645
  37 C     6.0000    0    12.011  -12.933758   -4.819274    1.283823
  38 C     6.0000    0    12.011   23.182858    0.383255   -0.037700
  39 C     6.0000    0    12.011   25.698102    1.144456    0.237633
  40 C     6.0000    0    12.011   26.273089    3.678239    0.753415
  41 C     6.0000    0    12.011   24.377656    5.502183    1.028616
  42 C     6.0000    0    12.011  -16.928753    0.852966    0.773900
  43 C     6.0000    0    12.011  -19.397547   -0.017820    1.136141
  44 C     6.0000    0    12.011  -19.853255   -2.594991    1.544587
  45 C     6.0000    0    12.011  -17.880362   -4.354477    1.629322
  46 O     8.0000    0    15.999   17.507198   -0.168261   -0.466706
  47 O     8.0000    0    15.999  -11.295781    1.630021    0.033354
  48 C     6.0000    0    12.011  -12.600240   -7.333158    1.925574
  49 C     6.0000    0    12.011   19.245670    8.664035    1.711034
  50 C     6.0000    0    12.011   16.910328    9.986012    2.046082
  51 C     6.0000    0    12.011   21.384613   10.212004    2.292106
  52 C     6.0000    0    12.011  -10.196735   -8.560100    2.102793
  53 C     6.0000    0    12.011  -14.641655   -8.982303    2.576131
  54 N     7.0000    0    14.007   15.059927   11.135721    2.335513
  55 N     7.0000    0    14.007   23.047610   11.555656    2.794584
  56 N     7.0000    0    14.007  -16.228741  -10.399881    3.119503
  57 N     7.0000    0    14.007   -8.289492   -9.637055    2.280011
  58 H     1.0000    0     1.008    2.826822   -3.877869   -1.503164
  59 H     1.0000    0     1.008    3.431081    5.610805   -0.826869
  60 H     1.0000    0     1.008   -7.440967    1.934456   -0.355930
  61 H     1.0000    0     1.008   13.734662   -0.276183   -0.803474
  62 H     1.0000    0     1.008   -4.016122    6.075167    1.160764
  63 H     1.0000    0     1.008   -0.768759    6.787462    1.229248
  64 H     1.0000    0     1.008   -4.443767    5.338079   -3.521410
  65 H     1.0000    0     1.008   -2.017207    3.727371   -5.144005
  66 H     1.0000    0     1.008   -1.400041    8.879011   -2.443794
  67 H     1.0000    0     1.008   -1.702209    8.384356   -5.737662
  68 H     1.0000    0     1.008    1.029712    7.278110   -4.141562
  69 H     1.0000    0     1.008   -3.311121    2.342882    4.036020
  70 H     1.0000    0     1.008   -2.088317    5.152282    5.405448
  71 H     1.0000    0     1.008   -0.005461    2.911142    4.004235
  72 H     1.0000    0     1.008   10.703522   -3.292319   -4.080542
  73 H     1.0000    0     1.008    8.234595   -1.555547   -5.475425
  74 H     1.0000    0     1.008    6.852468   -5.241798    0.506806
  75 H     1.0000    0     1.008    7.632698   -2.737042    2.549921
  76 H     1.0000    0     1.008    7.733591   -6.977039   -3.341622
  77 H     1.0000    0     1.008    7.956163   -6.123487   -6.568915
  78 H     1.0000    0     1.008    5.246881   -5.242837   -4.805687
  79 H     1.0000    0     1.008   10.808648   -6.282867    2.717993
  80 H     1.0000    0     1.008   12.254269   -3.422766    1.751757
  81 H     1.0000    0     1.008   11.566976   -5.806958   -0.509262
  82 H     1.0000    0     1.008   14.463208    7.045145    0.484223
  83 H     1.0000    0     1.008   -8.015859   -5.523575    0.268681
  84 H     1.0000    0     1.008   22.659933   -1.568473   -0.457106
  85 H     1.0000    0     1.008   27.224434   -0.230754    0.040062
  86 H     1.0000    0     1.008   28.245377    4.255588    0.953594
  87 H     1.0000    0     1.008   24.899183    7.445464    1.444885
  88 H     1.0000    0     1.008  -16.500087    2.843339    0.435846
  89 H     1.0000    0     1.008  -20.980873    1.305347    1.094718
  90 H     1.0000    0     1.008  -21.789279   -3.258871    1.815365
  91 H     1.0000    0     1.008  -18.307856   -6.336138    1.967356

--------------------------------
INTERNAL COORDINATES (ANGSTROEM)
--------------------------------
 C      0   0   0     0.000000000000     0.00000000     0.00000000
 C      1   0   0     1.426961463285     0.00000000     0.00000000
 C      2   1   0     1.387413371890   119.45851872     0.00000000
 C      3   2   1     1.404552952473   118.07607235     2.18152387
 C      4   3   2     1.426590288801   122.47106600     1.07059827
 C      5   4   3     1.387731517297   119.41655656   356.83219559
 C      4   3   2     1.441509616964   130.68276999   185.47735736
 C      7   4   3     1.398212924558   110.95893513   177.67836017
 C      8   7   4     1.521422144278   110.40415578     1.15350716
 C      1   2   3     1.442067551157   106.62628838   173.89108606
 C     10   1   2     1.400228301957   110.89972322     1.03498097
 C     11  10   1     1.521201841210   110.51781755     0.60751890
 S      7   4   3     1.708847849898   135.89513087     4.02351535
 C     13   7   4     1.779988688307    90.74174612   173.12559860
 C      8   7   4     1.398242141905   113.30203877   184.48163092
 S     10   1   2     1.710881519597   136.14734641   183.41710091
 C     16  10   1     1.779359970130    90.71818652   177.90662660
 C     11  10   1     1.397863648608   113.05237980   180.60390353
 C      9   8   7     1.548235796027   111.30471239   237.58142247
 C      9   8   7     1.558625277897   108.91863560   114.36232082
 C     20   9   8     1.527390313607   116.99643944   177.92461696
 C     19   9   8     1.527779103405   114.93447790    50.45435355
 C     12  11  10     1.558641134899   109.02457447   115.85776568
 C     12  11  10     1.552608703376   111.95412251   241.76872697
 C     23  12  11     1.527063614490   116.68903900   176.57047964
 C     24  12  11     1.528848028713   115.92126775   296.34651399
 C     17  16  10     1.417951411932   115.66248800   182.47720474
 C     14  13   7     1.419052763572   114.81379486   184.57973735
 C     28  14  13     1.379170888650   133.21975483   179.21578991
 C     27  17  16     1.380980975322   132.91314752   179.40160251
 C     30  27  17     1.492206760841   127.69121773     3.24121082
 C     31  30  27     1.483579713261   106.11169913   175.56418303
 C     32  31  30     1.408308433902   109.96210903     0.96460605
 C     30  27  17     1.469747300389   124.66751460   181.63699552
 C     29  28  14     1.491743718003   127.55714540     6.01954475
 C     35  29  28     1.484477757732   106.00681349   173.39103603
 C     36  35  29     1.408729138408   109.95704545     1.15036351
 C     29  28  14     1.469597984518   124.67507640   182.73489860
 C     32  31  30     1.389188269962   127.53381483   181.07951397
 C     39  32  31     1.398238894538   118.02246113   179.16695849
 C     40  39  32     1.401739900588   120.16438507   359.87785679
 C     41  40  39     1.399588851556   121.62464555     0.56376054
 C     36  35  29     1.389275317675   127.63072699   181.65689402
 C     43  36  35     1.398513868719   118.08875753   178.48185628
 C     44  43  36     1.401701006099   120.16071634     0.00000000
 C     45  44  43     1.399599039761   121.59147194     0.68011425
 O     31  30  27     1.220890978179   129.21435912   355.71739570
 O     35  29  28     1.220349997788   128.98593839   354.07397631
 C     38  29  28     1.384250108976   127.93601918    10.63870190
 C     34  30  27     1.384561403369   128.03186010     7.65333423
 C     50  34  30     1.431099521242   124.49446539     0.85904949
 C     50  34  30     1.430632432528   123.35462356   179.01209482
 C     49  38  29     1.431092224736   124.42964048     1.22792152
 C     49  38  29     1.430764151284   123.29395961   178.96643212
 N     51  50  34     1.162936628411   177.63492136   183.72325936
 N     52  50  34     1.162196915888   176.92257350   184.23332125
 N     54  49  38     1.162218695685   177.21844573   180.61698046
 N     53  49  38     1.162844199065   177.44579809   174.69619528
 H      3   2   1     1.091456123030   121.70173606   184.16711799
 H      6   5   4     1.091775108573   121.64627947   184.25769771
 H     15   8   7     1.088361866568   127.23957630   179.26349660
 H     18  11  10     1.086718927506   127.45135710   181.30823500
 H     19   9   8     1.103726485140   107.76798735   287.74232676
 H     19   9   8     1.102054136329   108.56748281   173.54772687
 H     20   9   8     1.103306077251   106.94977777    55.41384555
 H     20   9   8     1.102408659980   107.52906777   301.66406300
 H     21  20   9     1.100747494478   112.16047065   300.63419353
 H     21  20   9     1.101310709564   109.76162547   181.86766772
 H     21  20   9     1.100677835654   112.22541457    62.62683107
 H     22  19   9     1.100407811177   111.73790651   297.23949655
 H     22  19   9     1.100727763755   110.47898666   177.50786408
 H     22  19   9     1.101694628742   111.52873762    57.49420134
 H     23  12  11     1.102349896403   107.63933100    53.63256008
 H     23  12  11     1.102273538329   107.32909951   300.01743534
 H     24  12  11     1.102055287996   107.95824242   173.28493307
 H     24  12  11     1.102651783701   107.60294101    59.39409978
 H     25  23  12     1.100735235422   112.06008561   299.90453194
 H     25  23  12     1.101159113117   109.89064674   181.03296719
 H     25  23  12     1.100571538656   112.27300778    61.73903452
 H     26  24  12     1.101158802580   110.35885814   184.27774273
 H     26  24  12     1.098896529843   111.85460919    64.97622985
 H     26  24  12     1.100910124624   112.24289257   303.76862358
 H     27  17  16     1.089897477105   112.05787091     0.49301047
 H     28  14  13     1.090521791850   111.87891330     0.59726324
 H     39  32  31     1.092029220351   119.64187449   359.61208039
 H     40  39  32     1.092200048251   120.13476353   180.25899712
 H     41  40  39     1.092635552872   119.58307454   180.37465116
 H     42  41  40     1.087277055032   119.43376298   179.45542837
 H     43  36  35     1.092160540076   119.61774712   358.95462032
 H     44  43  36     1.092133646629   120.17662804   180.24057292
 H     45  44  43     1.092497592766   119.63176574   180.33376995
 H     46  45  44     1.087584647418   119.44222027   179.45002555

---------------------------
INTERNAL COORDINATES (A.U.)
---------------------------
 C      0   0   0     0.000000000000     0.00000000     0.00000000
 C      1   0   0     2.696566369268     0.00000000     0.00000000
 C      2   1   0     2.621831307413   119.45851872     0.00000000
 C      3   2   1     2.654220420764   118.07607235     2.18152387
 C      4   3   2     2.695864951145   122.47106600     1.07059827
 C      5   4   3     2.622432515103   119.41655656   356.83219559
 C      4   3   2     2.724058395476   130.68276999   185.47735736
 C      7   4   3     2.642239504323   110.95893513   177.67836017
 C      8   7   4     2.875071186769   110.40415578     1.15350716
 C      1   2   3     2.725112738301   106.62628838   173.89108606
 C     10   1   2     2.646048015663   110.89972322     1.03498097
 C     11  10   1     2.874654874303   110.51781755     0.60751890
 S      7   4   3     3.229254440847   135.89513087     4.02351535
 C     13   7   4     3.363691142377    90.74174612   173.12559860
 C      8   7   4     2.642294717109   113.30203877   184.48163092
 S     10   1   2     3.233097519626   136.14734641   183.41710091
 C     16  10   1     3.362503037207    90.71818652   177.90662660
 C     11  10   1     2.641579468433   113.05237980   180.60390353
 C      9   8   7     2.925741645225   111.30471239   237.58142247
 C      9   8   7     2.945374920633   108.91863560   114.36232082
 C     20   9   8     2.886349392321   116.99643944   177.92461696
 C     19   9   8     2.887084098563   114.93447790    50.45435355
 C     12  11  10     2.945404886024   109.02457447   115.85776568
 C     12  11  10     2.934005242524   111.95412251   241.76872697
 C     23  12  11     2.885732020462   116.68903900   176.57047964
 C     24  12  11     2.889104074653   115.92126775   296.34651399
 C     17  16  10     2.679539839758   115.66248800   182.47720474
 C     14  13   7     2.681621092734   114.81379486   184.57973735
 C     28  14  13     2.606255271426   133.21975483   179.21578991
 C     27  17  16     2.609675839513   132.91314752   179.40160251
 C     30  27  17     2.819862113175   127.69121773     3.24121082
 C     31  30  27     2.803559355905   106.11169913   175.56418303
 C     32  31  30     2.661317252167   109.96210903     0.96460605
 C     30  27  17     2.777419883805   124.66751460   181.63699552
 C     29  28  14     2.818987089022   127.55714540     6.01954475
 C     35  29  28     2.805256414010   106.00681349   173.39103603
 C     36  35  29     2.662112268466   109.95704545     1.15036351
 C     29  28  14     2.777137717702   124.67507640   182.73489860
 C     32  31  30     2.625185378684   127.53381483   181.07951397
 C     39  32  31     2.642288580474   118.02246113   179.16695849
 C     40  39  32     2.648904523101   120.16438507   359.87785679
 C     41  40  39     2.644839629530   121.62464555     0.56376054
 C     36  35  29     2.625349875022   127.63072699   181.65689402
 C     43  36  35     2.642808206370   118.08875753   178.48185628
 C     44  43  36     2.648831023170   120.16071634     0.00000000
 C     45  44  43     2.644858882448   121.59147194     0.68011425
 O     31  30  27     2.307149588134   129.21435912   355.71739570
 O     35  29  28     2.306127283350   128.98593839   354.07397631
 C     38  29  28     2.615853606815   127.93601918    10.63870190
 C     34  30  27     2.616441867966   128.03186010     7.65333423
 C     50  34  30     2.704386165534   124.49446539     0.85904949
 C     50  34  30     2.703503495783   123.35462356   179.01209482
 C     49  38  29     2.704372377135   124.42964048     1.22792152
 C     49  38  29     2.703752408159   123.29395961   178.96643212
 N     51  50  34     2.197631738803   177.63492136   183.72325936
 N     52  50  34     2.196233884717   176.92257350   184.23332125
 N     54  49  38     2.196275042568   177.21844573   180.61698046
 N     53  49  38     2.197457072653   177.44579809   174.69619528
 H      3   2   1     2.062553159718   121.70173606   184.16711799
 H      6   5   4     2.063155955035   121.64627947   184.25769771
 H     15   8   7     2.056705862417   127.23957630   179.26349660
 H     18  11  10     2.053601157535   127.45135710   181.30823500
 H     19   9   8     2.085740783671   107.76798735   287.74232676
 H     19   9   8     2.082580502417   108.56748281   173.54772687
 H     20   9   8     2.084946327896   106.94977777    55.41384555
 H     20   9   8     2.083250455026   107.52906777   301.66406300
 H     21  20   9     2.080111307164   112.16047065   300.63419353
 H     21  20   9     2.081175629430   109.76162547   181.86766772
 H     21  20   9     2.079979671063   112.22541457    62.62683107
 H     22  19   9     2.079469398753   111.73790651   297.23949655
 H     22  19   9     2.080074021500   110.47898666   177.50786408
 H     22  19   9     2.081901131535   111.52873762    57.49420134
 H     23  12  11     2.083139407958   107.63933100    53.63256008
 H     23  12  11     2.082995112110   107.32909951   300.01743534
 H     24  12  11     2.082582678752   107.95824242   173.28493307
 H     24  12  11     2.083709892276   107.60294101    59.39409978
 H     25  23  12     2.080088140905   112.06008561   299.90453194
 H     25  23  12     2.080889153662   109.89064674   181.03296719
 H     25  23  12     2.079778798848   112.27300778    61.73903452
 H     26  24  12     2.080888566833   110.35885814   184.27774273
 H     26  24  12     2.076613490919   111.85460919    64.97622985
 H     26  24  12     2.080418633601   112.24289257   303.76862358
 H     27  17  16     2.059607745780   112.05787091     0.49301047
 H     28  14  13     2.060787529670   111.87891330     0.59726324
 H     39  32  31     2.063636156703   119.64187449   359.61208039
 H     40  39  32     2.063958974650   120.13476353   180.25899712
 H     41  40  39     2.064781959114   119.58307454   180.37465116
 H     42  41  40     2.054655865708   119.43376298   179.45542837
 H     43  36  35     2.063884315020   119.61774712   358.95462032
 H     44  43  36     2.063833493770   120.17662804   180.24057292
 H     45  44  43     2.064521252296   119.63176574   180.33376995
 H     46  45  44     2.055237131078   119.44222027   179.45002555

---------------------
BASIS SET INFORMATION
---------------------
There are 5 groups of distinct atoms

 Group   1 Type C   : 7s4p1d contracted to 3s2p1d pattern {511/31/1}
 Group   2 Type S   : 10s7p1d contracted to 4s3p1d pattern {5311/511/1}
 Group   3 Type O   : 7s4p1d contracted to 3s2p1d pattern {511/31/1}
 Group   4 Type N   : 7s4p1d contracted to 3s2p1d pattern {511/31/1}
 Group   5 Type H   : 4s1p contracted to 2s1p pattern {31/1}

Atom   0C    basis set group =>   1
Atom   1C    basis set group =>   1
Atom   2C    basis set group =>   1
Atom   3C    basis set group =>   1
Atom   4C    basis set group =>   1
Atom   5C    basis set group =>   1
Atom   6C    basis set group =>   1
Atom   7C    basis set group =>   1
Atom   8C    basis set group =>   1
Atom   9C    basis set group =>   1
Atom  10C    basis set group =>   1
Atom  11C    basis set group =>   1
Atom  12S    basis set group =>   2
Atom  13C    basis set group =>   1
Atom  14C    basis set group =>   1
Atom  15S    basis set group =>   2
Atom  16C    basis set group =>   1
Atom  17C    basis set group =>   1
Atom  18C    basis set group =>   1
Atom  19C    basis set group =>   1
Atom  20C    basis set group =>   1
Atom  21C    basis set group =>   1
Atom  22C    basis set group =>   1
Atom  23C    basis set group =>   1
Atom  24C    basis set group =>   1
Atom  25C    basis set group =>   1
Atom  26C    basis set group =>   1
Atom  27C    basis set group =>   1
Atom  28C    basis set group =>   1
Atom  29C    basis set group =>   1
Atom  30C    basis set group =>   1
Atom  31C    basis set group =>   1
Atom  32C    basis set group =>   1
Atom  33C    basis set group =>   1
Atom  34C    basis set group =>   1
Atom  35C    basis set group =>   1
Atom  36C    basis set group =>   1
Atom  37C    basis set group =>   1
Atom  38C    basis set group =>   1
Atom  39C    basis set group =>   1
Atom  40C    basis set group =>   1
Atom  41C    basis set group =>   1
Atom  42C    basis set group =>   1
Atom  43C    basis set group =>   1
Atom  44C    basis set group =>   1
Atom  45C    basis set group =>   1
Atom  46O    basis set group =>   3
Atom  47O    basis set group =>   3
Atom  48C    basis set group =>   1
Atom  49C    basis set group =>   1
Atom  50C    basis set group =>   1
Atom  51C    basis set group =>   1
Atom  52C    basis set group =>   1
Atom  53C    basis set group =>   1
Atom  54N    basis set group =>   4
Atom  55N    basis set group =>   4
Atom  56N    basis set group =>   4
Atom  57N    basis set group =>   4
Atom  58H    basis set group =>   5
Atom  59H    basis set group =>   5
Atom  60H    basis set group =>   5
Atom  61H    basis set group =>   5
Atom  62H    basis set group =>   5
Atom  63H    basis set group =>   5
Atom  64H    basis set group =>   5
Atom  65H    basis set group =>   5
Atom  66H    basis set group =>   5
Atom  67H    basis set group =>   5
Atom  68H    basis set group =>   5
Atom  69H    basis set group =>   5
Atom  70H    basis set group =>   5
Atom  71H    basis set group =>   5
Atom  72H    basis set group =>   5
Atom  73H    basis set group =>   5
Atom  74H    basis set group =>   5
Atom  75H    basis set group =>   5
Atom  76H    basis set group =>   5
Atom  77H    basis set group =>   5
Atom  78H    basis set group =>   5
Atom  79H    basis set group =>   5
Atom  80H    basis set group =>   5
Atom  81H    basis set group =>   5
Atom  82H    basis set group =>   5
Atom  83H    basis set group =>   5
Atom  84H    basis set group =>   5
Atom  85H    basis set group =>   5
Atom  86H    basis set group =>   5
Atom  87H    basis set group =>   5
Atom  88H    basis set group =>   5
Atom  89H    basis set group =>   5
Atom  90H    basis set group =>   5
Atom  91H    basis set group =>   5
---------------------------------
AUXILIARY/J BASIS SET INFORMATION
---------------------------------
There are 5 groups of distinct atoms

 Group   1 Type C   : 12s5p4d2f1g contracted to 6s4p3d1f1g pattern {711111/2111/211/2/1}
 Group   2 Type S   : 14s5p5d2f1g contracted to 8s4p3d1f1g pattern {71111111/2111/311/2/1}
 Group   3 Type O   : 12s5p4d2f1g contracted to 6s4p3d1f1g pattern {711111/2111/211/2/1}
 Group   4 Type N   : 12s5p4d2f1g contracted to 6s4p3d1f1g pattern {711111/2111/211/2/1}
 Group   5 Type H   : 5s2p1d contracted to 3s1p1d pattern {311/2/1}

Atom   0C    basis set group =>   1
Atom   1C    basis set group =>   1
Atom   2C    basis set group =>   1
Atom   3C    basis set group =>   1
Atom   4C    basis set group =>   1
Atom   5C    basis set group =>   1
Atom   6C    basis set group =>   1
Atom   7C    basis set group =>   1
Atom   8C    basis set group =>   1
Atom   9C    basis set group =>   1
Atom  10C    basis set group =>   1
Atom  11C    basis set group =>   1
Atom  12S    basis set group =>   2
Atom  13C    basis set group =>   1
Atom  14C    basis set group =>   1
Atom  15S    basis set group =>   2
Atom  16C    basis set group =>   1
Atom  17C    basis set group =>   1
Atom  18C    basis set group =>   1
Atom  19C    basis set group =>   1
Atom  20C    basis set group =>   1
Atom  21C    basis set group =>   1
Atom  22C    basis set group =>   1
Atom  23C    basis set group =>   1
Atom  24C    basis set group =>   1
Atom  25C    basis set group =>   1
Atom  26C    basis set group =>   1
Atom  27C    basis set group =>   1
Atom  28C    basis set group =>   1
Atom  29C    basis set group =>   1
Atom  30C    basis set group =>   1
Atom  31C    basis set group =>   1
Atom  32C    basis set group =>   1
Atom  33C    basis set group =>   1
Atom  34C    basis set group =>   1
Atom  35C    basis set group =>   1
Atom  36C    basis set group =>   1
Atom  37C    basis set group =>   1
Atom  38C    basis set group =>   1
Atom  39C    basis set group =>   1
Atom  40C    basis set group =>   1
Atom  41C    basis set group =>   1
Atom  42C    basis set group =>   1
Atom  43C    basis set group =>   1
Atom  44C    basis set group =>   1
Atom  45C    basis set group =>   1
Atom  46O    basis set group =>   3
Atom  47O    basis set group =>   3
Atom  48C    basis set group =>   1
Atom  49C    basis set group =>   1
Atom  50C    basis set group =>   1
Atom  51C    basis set group =>   1
Atom  52C    basis set group =>   1
Atom  53C    basis set group =>   1
Atom  54N    basis set group =>   4
Atom  55N    basis set group =>   4
Atom  56N    basis set group =>   4
Atom  57N    basis set group =>   4
Atom  58H    basis set group =>   5
Atom  59H    basis set group =>   5
Atom  60H    basis set group =>   5
Atom  61H    basis set group =>   5
Atom  62H    basis set group =>   5
Atom  63H    basis set group =>   5
Atom  64H    basis set group =>   5
Atom  65H    basis set group =>   5
Atom  66H    basis set group =>   5
Atom  67H    basis set group =>   5
Atom  68H    basis set group =>   5
Atom  69H    basis set group =>   5
Atom  70H    basis set group =>   5
Atom  71H    basis set group =>   5
Atom  72H    basis set group =>   5
Atom  73H    basis set group =>   5
Atom  74H    basis set group =>   5
Atom  75H    basis set group =>   5
Atom  76H    basis set group =>   5
Atom  77H    basis set group =>   5
Atom  78H    basis set group =>   5
Atom  79H    basis set group =>   5
Atom  80H    basis set group =>   5
Atom  81H    basis set group =>   5
Atom  82H    basis set group =>   5
Atom  83H    basis set group =>   5
Atom  84H    basis set group =>   5
Atom  85H    basis set group =>   5
Atom  86H    basis set group =>   5
Atom  87H    basis set group =>   5
Atom  88H    basis set group =>   5
Atom  89H    basis set group =>   5
Atom  90H    basis set group =>   5
Atom  91H    basis set group =>   5
------------------------------------------------------------------------------
                           ORCA GTO INTEGRAL CALCULATION
                           -- RI-GTO INTEGRALS CHOSEN --
------------------------------------------------------------------------------

                         BASIS SET STATISTICS AND STARTUP INFO

Gaussian basis set:
 # of primitive gaussian shells          ...  878
 # of primitive gaussian functions       ... 1654
 # of contracted shells                  ...  454
 # of contracted basis functions         ...  990
 Highest angular momentum                ...    2
 Maximum contraction depth               ...    5
Auxiliary gaussian basis set:
 # of primitive gaussian shells          ... 1670
 # of primitive gaussian functions       ... 4618
 # of contracted shells                  ... 1044
 # of contracted aux-basis functions     ... 3220
 Highest angular momentum                ...    4
 Maximum contraction depth               ...    7
Ratio of auxiliary to basis functions    ...  3.25
Integral package used                  ... LIBINT
 One Electron integrals                  ... done
 Ordering auxiliary basis shells         ... done
 Integral threshhold             Thresh  ...  2.500e-11
 Primitive cut-off               TCut    ...  2.500e-12
 Pre-screening matrix                    ... done
 Shell pair data                         ... 
 Ordering of the shell pairs             ... done (   0.008 sec) 40705 of 103285 pairs
 Determination of significant pairs      ... done (   0.000 sec)
 Creation of shell pair data             ... done (   0.006 sec)
 Storage of shell pair data              ... done (   0.008 sec)
 Shell pair data done in (   0.021 sec)
 Computing two index integrals           ... done
 Cholesky decomposition of the V-matrix  ... done


Timings:
 Total evaluation time                   ...   1.543 sec (  0.026 min)
 One electron matrix time                ...   0.440 sec (  0.007 min) = 28.5%
 Schwartz matrix evaluation time         ...   0.485 sec (  0.008 min) = 31.5%
 Two index repulsion integral time       ...   0.237 sec (  0.004 min) = 15.4%
 Cholesky decomposition of V             ...   0.341 sec (  0.006 min) = 22.1%
 Three index repulsion integral time     ...   0.000 sec (  0.000 min) =  0.0%

-------------------------------------------------------------------------------
                                 ORCA SCF
-------------------------------------------------------------------------------

------------
SCF SETTINGS
------------
Hamiltonian:
 Density Functional     Method          .... DFT(GTOs)
 Exchange Functional    Exchange        .... WB88
 Correlation Functional Correlation     .... LYP
 LDA part of GGA corr.  LDAOpt          .... VWN-5
 Gradients option       PostSCFGGA      .... off
 Hybrid DFT is turned on
   Fraction HF Exchange ScalHFX         ....  0.190000
   Scaling of DF-GGA-X  ScalDFX         ....  0.350000
   Scaling of DF-GGA-C  ScalDFC         ....  0.810000
   Scaling of DF-LDA-C  ScalLDAC        ....  1.000000
   Perturbative correction              ....  0.000000
   Density functional embedding theory  .... OFF
 Long-range corrected/Screened/Range-Separated Hybrid DFT is turned on
   Amount of maximum screened exact exchange              ....  0.460000
   Range separation parameter mu (erf(mu*r12)/r12)        ....  0.330000
 RI-approximation to the Coulomb term is turned on
   Number of auxiliary basis functions  .... 3220
   RIJ-COSX (HFX calculated with COS-X)).... on


General Settings:
 Integral files         IntName         .... IDIC
 Hartree-Fock type      HFTyp           .... RHF
 Total Charge           Charge          ....    0
 Multiplicity           Mult            ....    1
 Number of Electrons    NEL             ....  410
 Basis Dimension        Dim             ....  990
 Nuclear Repulsion      ENuc            ....   7275.2121858476 Eh

Convergence Acceleration:
 DIIS                   CNVDIIS         .... on
   Start iteration      DIISMaxIt       ....    12
   Startup error        DIISStart       ....  0.200000
   # of expansion vecs  DIISMaxEq       ....     5
   Bias factor          DIISBfac        ....   1.050
   Max. coefficient     DIISMaxC        ....  10.000
 Newton-Raphson         CNVNR           .... off
 SOSCF                  CNVSOSCF        .... on
   Start iteration      SOSCFMaxIt      ....   150
   Startup grad/error   SOSCFStart      ....  0.003300
 Level Shifting         CNVShift        .... on
   Level shift para.    LevelShift      ....    0.2500
   Turn off err/grad.   ShiftErr        ....    0.0010
 Zerner damping         CNVZerner       .... off
 Static damping         CNVDamp         .... on
   Fraction old density DampFac         ....    0.7000
   Max. Damping (<1)    DampMax         ....    0.9800
   Min. Damping (>=0)   DampMin         ....    0.0000
   Turn off err/grad.   DampErr         ....    0.1000
 Fernandez-Rico         CNVRico         .... off

SCF Procedure:
 Maximum # iterations   MaxIter         ....   125
 SCF integral mode      SCFMode         .... Direct
   Integral package                     .... LIBINT
 Reset frequency        DirectResetFreq ....    20
 Integral Threshold     Thresh          ....  2.500e-11 Eh
 Primitive CutOff       TCut            ....  2.500e-12 Eh

Convergence Tolerance:
 Convergence Check Mode ConvCheckMode   .... Total+1el-Energy
 Convergence forced     ConvForced      .... 1
 Energy Change          TolE            ....  1.000e-08 Eh
 1-El. energy change                    ....  1.000e-05 Eh
 Orbital Gradient       TolG            ....  1.000e-05
 Orbital Rotation angle TolX            ....  1.000e-05
 DIIS Error             TolErr          ....  5.000e-07


Diagonalization of the overlap matrix:
Smallest eigenvalue                        ... 2.220e-04
Time for diagonalization                   ...    0.248 sec
Threshold for overlap eigenvalues          ... 1.000e-08
Number of eigenvalues below threshold      ... 0
Time for construction of square roots      ...    0.091 sec
Total time needed                          ...    0.343 sec

-------------------
DFT GRID GENERATION
-------------------

General Integration Accuracy     IntAcc      ...  4.670
Radial Grid Type                 RadialGrid  ... Gauss-Chebyshev
Angular Grid (max. acc.)         AngularGrid ... Lebedev-302
Angular grid pruning method      GridPruning ... 3 (G Style)
Weight generation scheme         WeightScheme... Becke
Basis function cutoff            BFCut       ...    1.0000e-11
Integration weight cutoff        WCut        ...    1.0000e-14
Grids for H and He will be reduced by one unit

# of grid points (after initial pruning)     ... 476960 (   1.0 sec)
# of grid points (after weights+screening)   ... 405825 (  11.5 sec)
nearest neighbour list constructed           ...    0.0 sec
Grid point re-assignment to atoms done       ...    0.1 sec
Grid point division into batches done        ...    1.4 sec
Reduced shell lists constructed in    6.8 sec

Total number of grid points                  ...   405825
Total number of batches                      ...     6389
Average number of points per batch           ...       63
Average number of grid points per atom       ...     4411
Average number of shells per batch           ...    97.58 (21.49%)
Average number of basis functions per batch  ...   197.62 (19.96%)
Average number of large shells per batch     ...    59.24 (60.71%)
Average number of large basis fcns per batch ...   121.26 (61.36%)
Maximum spatial batch extension              ...  20.66, 21.66, 23.89 au
Average spatial batch extension              ...   2.03,  2.12,  2.33 au

Time for grid setup =   19.343 sec

------------------------------
INITIAL GUESS: MODEL POTENTIAL
------------------------------
Loading Hartree-Fock densities                     ... done
Calculating cut-offs                               ... done
Setting up the integral package                    ... done
Initializing the effective Hamiltonian             ... done
Starting the Coulomb interaction                   ... done (   6.3 sec)
Reading the grid                                   ... done
Mapping shells                                     ... done
Starting the XC term evaluation                    ... done (   7.3 sec)
  promolecular density results
     # of electrons  =    409.981228311
     EX              =   -357.821103236
     EC              =    -13.951032781
     EX+EC           =   -371.772136017
Transforming the Hamiltonian                       ... done (   0.1 sec)
Diagonalizing the Hamiltonian                      ... done (   0.2 sec)
Back transforming the eigenvectors                 ... done (   0.0 sec)
Now organizing SCF variables                       ... done
                      ------------------
                      INITIAL GUESS DONE (  33.4 sec)
                      ------------------
--------------------
COSX GRID GENERATION
--------------------

General Integration Accuracy     IntAcc      ...  3.340
Radial Grid Type                 RadialGrid  ... Gauss-Chebyshev
Angular Grid (max. acc.)         AngularGrid ... Lebedev-50
Angular grid pruning method      GridPruning ... 3 (G Style)
Weight generation scheme         WeightScheme... Becke
Basis function cutoff            BFCut       ...    1.0000e-11
Integration weight cutoff        WCut        ...    1.0000e-14
Grids for H and He will be reduced by one unit

# of grid points (after initial pruning)     ...  44716 (   0.0 sec)
# of grid points (after weights+screening)   ...  39770 (   1.1 sec)
nearest neighbour list constructed           ...    0.0 sec
Grid point re-assignment to atoms done       ...    0.0 sec
Grid point division into batches done        ...    0.0 sec
Reduced shell lists constructed in    0.7 sec

Total number of grid points                  ...    39770
Total number of batches                      ...      666
Average number of points per batch           ...       59
Average number of grid points per atom       ...      432
Average number of shells per batch           ...   118.36 (26.07%)
Average number of basis functions per batch  ...   242.20 (24.46%)
Average number of large shells per batch     ...    72.25 (61.05%)
Average number of large basis fcns per batch ...   150.20 (62.01%)
Maximum spatial batch extension              ...  20.93, 19.73, 32.06 au
Average spatial batch extension              ...   3.83,  4.17,  5.25 au

Overlap Fitting                  UseSFitting ... on
Constructing numerical overlap ... done (      0.5 sec)
Inverting numerical overlap    ... done (      0.0 sec)
Obtaining analytic overlap     ... done (      0.0 sec)
Final contraction and storage  ... done (      0.0 sec)


General Integration Accuracy     IntAcc      ...  3.670
Radial Grid Type                 RadialGrid  ... Gauss-Chebyshev
Angular Grid (max. acc.)         AngularGrid ... Lebedev-50
Angular grid pruning method      GridPruning ... 3 (G Style)
Weight generation scheme         WeightScheme... Becke
Basis function cutoff            BFCut       ...    1.0000e-11
Integration weight cutoff        WCut        ...    1.0000e-14
Grids for H and He will be reduced by one unit

# of grid points (after initial pruning)     ...  56148 (   0.1 sec)
# of grid points (after weights+screening)   ...  49689 (   1.3 sec)
nearest neighbour list constructed           ...    0.0 sec
Grid point re-assignment to atoms done       ...    0.0 sec
Grid point division into batches done        ...    0.0 sec
Reduced shell lists constructed in    0.8 sec

Total number of grid points                  ...    49689
Total number of batches                      ...      823
Average number of points per batch           ...       60
Average number of grid points per atom       ...      540
Average number of shells per batch           ...   115.46 (25.43%)
Average number of basis functions per batch  ...   236.08 (23.85%)
Average number of large shells per batch     ...    70.41 (60.98%)
Average number of large basis fcns per batch ...   146.08 (61.88%)
Maximum spatial batch extension              ...  22.88, 18.01, 31.11 au
Average spatial batch extension              ...   3.61,  3.88,  4.89 au

Overlap Fitting                  UseSFitting ... on
Constructing numerical overlap ... done (      0.6 sec)
Inverting numerical overlap    ... done (      0.0 sec)
Obtaining analytic overlap     ... done (      0.0 sec)
Final contraction and storage  ... done (      0.0 sec)


General Integration Accuracy     IntAcc      ...  4.010
Radial Grid Type                 RadialGrid  ... Gauss-Chebyshev
Angular Grid (max. acc.)         AngularGrid ... Lebedev-110
Angular grid pruning method      GridPruning ... 3 (G Style)
Weight generation scheme         WeightScheme... Becke
Basis function cutoff            BFCut       ...    1.0000e-11
Integration weight cutoff        WCut        ...    1.0000e-14
Grids for H and He will be reduced by one unit

# of grid points (after initial pruning)     ... 108092 (   0.1 sec)
# of grid points (after weights+screening)   ...  94777 (   2.6 sec)
nearest neighbour list constructed           ...    0.0 sec
Grid point re-assignment to atoms done       ...    0.0 sec
Grid point division into batches done        ...    0.1 sec
Reduced shell lists constructed in    1.6 sec

Total number of grid points                  ...    94777
Total number of batches                      ...     1533
Average number of points per batch           ...       61
Average number of grid points per atom       ...     1030
Average number of shells per batch           ...   109.89 (24.21%)
Average number of basis functions per batch  ...   224.36 (22.66%)
Average number of large shells per batch     ...    67.36 (61.30%)
Average number of large basis fcns per batch ...   139.47 (62.17%)
Maximum spatial batch extension              ...  24.49, 19.79, 25.37 au
Average spatial batch extension              ...   3.13,  3.35,  4.06 au

Overlap Fitting                  UseSFitting ... on
Constructing numerical overlap ... done (      1.0 sec)
Inverting numerical overlap    ... done (      0.0 sec)
Obtaining analytic overlap     ... done (      0.0 sec)
Final contraction and storage  ... done (      0.0 sec)

Time for X-Grid setup             =   10.670 sec
--------------
SCF ITERATIONS
--------------
ITER       Energy         Delta-E        Max-DP      RMS-DP      [F,P]     Damp
               ***  Starting incremental Fock matrix formation  ***
  0  -3087.2653329801   0.000000000000 0.07812932  0.00106203  0.2232641 0.7000
  1  -3087.7728505080  -0.507517527865 0.04812273  0.00073495  0.0954224 0.7000
                               ***Turning on DIIS***
  2  -3087.9821928287  -0.209342320709 0.10485629  0.00130493  0.0406523 0.0000
  3  -3088.3373223961  -0.355129567381 0.05257307  0.00054797  0.0468313 0.0000
  4  -3088.3980221529  -0.060699756828 0.01575382  0.00015888  0.0235461 0.0000
  5  -3088.4037947396  -0.005772586726 0.00590247  0.00005934  0.0056525 0.0000
                      *** Initiating the SOSCF procedure ***
                           *** Shutting down DIIS ***
                      *** Re-Reading the Fockian *** 
                      *** Removing any level shift *** 
ITER      Energy       Delta-E        Grad      Rot      Max-DP    RMS-DP
  6  -3088.40448694  -0.0006922021  0.002847  0.002847  0.002290  0.000032
               *** Restarting incremental Fock matrix formation ***
  7  -3088.40464944  -0.0001624935  0.001851  0.010761  0.003109  0.000031
  8  -3088.40480272  -0.0001532851  0.000660  0.010874  0.002646  0.000037
  9  -3088.40481314  -0.0000104226  0.000894  0.003857  0.001157  0.000014
 10  -3088.40484714  -0.0000339965  0.000244  0.001087  0.000469  0.000007
 11  -3088.40484609   0.0000010518  0.000208  0.000830  0.000306  0.000004
 12  -3088.40484950  -0.0000034153  0.000024  0.000114  0.000134  0.000002
 13  -3088.40484943   0.0000000711  0.000036  0.000082  0.000090  0.000001
 14  -3088.40484957  -0.0000001431  0.000005  0.000029  0.000029  0.000000
 15  -3088.40484958  -0.0000000064  0.000005  0.000015  0.000015  0.000000
                  ***Gradient check signals convergence***
              ***Rediagonalizing the Fockian in SOSCF/NRSCF***

               *****************************************************
               *                     SUCCESS                       *
               *           SCF CONVERGED AFTER  16 CYCLES          *
               *****************************************************

Setting up the final grid:

General Integration Accuracy     IntAcc      ...  5.010
Radial Grid Type                 RadialGrid  ... Gauss-Chebyshev
Angular Grid (max. acc.)         AngularGrid ... Lebedev-434
Angular grid pruning method      GridPruning ... 3 (G Style)
Weight generation scheme         WeightScheme... Becke
Basis function cutoff            BFCut       ...    1.0000e-11
Integration weight cutoff        WCut        ...    1.0000e-14
Grids for H and He will be reduced by one unit

# of grid points (after initial pruning)     ... 849952 (   1.2 sec)
# of grid points (after weights+screening)   ... 721019 (  20.6 sec)
nearest neighbour list constructed           ...    0.0 sec
Grid point re-assignment to atoms done       ...    0.1 sec
Grid point division into batches done        ...    4.6 sec
Reduced shell lists constructed in   13.7 sec

Total number of grid points                  ...   721019
Total number of batches                      ...    11313
Average number of points per batch           ...       63
Average number of grid points per atom       ...     7837
Average number of shells per batch           ...    94.11 (20.73%)
Average number of basis functions per batch  ...   189.92 (19.18%)
Average number of large shells per batch     ...    57.04 (60.62%)
Average number of large basis fcns per batch ...   116.35 (61.26%)
Maximum spatial batch extension              ...  19.58, 20.39, 23.86 au
Average spatial batch extension              ...   1.68,  1.73,  1.86 au

Final grid set up in   35.5 sec
Final integration                            ... done (  18.1 sec)
Change in XC energy                          ...    -0.000040947
Integrated number of electrons               ...   410.000059125
Previous integrated no of electrons          ...   409.999163999
Old exchange energy                            =   -101.118733579 Eh
New exchange energy                            =   -101.116469014 Eh
Exchange energy change after final integration =      0.002264565 Eh
Total energy after final integration           =  -3088.402625982 Eh
Final COS-X integration done in                =   290.994 sec

----------------
TOTAL SCF ENERGY
----------------

Total Energy       :        -3088.40262598 Eh          -84039.70795 eV

Components:
Nuclear Repulsion  :         7275.21218585 Eh          197968.58811 eV
Electronic Energy  :       -10363.61481183 Eh         -282008.29605 eV
One Electron Energy:       -18688.60972528 Eh         -508542.92445 eV
Two Electron Energy:         8324.99491345 Eh          226534.62839 eV

Virial components:
Potential Energy   :        -6150.29848939 Eh         -167358.13022 eV
Kinetic Energy     :         3061.89586341 Eh           83318.42227 eV
Virial Ratio       :            2.00865698


DFT components:
N(Alpha)           :      205.000029562684 electrons
N(Beta)            :      205.000029562684 electrons
N(Total)           :      410.000059125369 electrons
E(XC)              :     -277.237121436283 Eh       
DFET-embed. en.    :        0.000000000000 Eh       

---------------
SCF CONVERGENCE
---------------

  Last Energy change         ...   -1.8563e-08  Tolerance :   1.0000e-08
  Last MAX-Density change    ...    4.4409e-15  Tolerance :   1.0000e-07
  Last RMS-Density change    ...    3.1620e-17  Tolerance :   5.0000e-09
  Last Orbital Gradient      ...    6.3606e-07  Tolerance :   1.0000e-05
  Last Orbital Rotation      ...    3.9453e-06  Tolerance :   1.0000e-05

             **** THE GBW FILE WAS UPDATED (IDIC.gbw) ****
             **** DENSITY FILE WAS UPDATED (IDIC.scfp) ****
             **** ENERGY FILE WAS UPDATED (IDIC.en.tmp) ****
             **** THE GBW FILE WAS UPDATED (IDIC.gbw) ****
             **** DENSITY FILE WAS UPDATED (IDIC.scfp) ****
----------------
ORBITAL ENERGIES
----------------

  NO   OCC          E(Eh)            E(eV) 
   0   2.0000     -88.973948     -2421.1042 
   1   2.0000     -88.973930     -2421.1037 
   2   2.0000     -19.219614      -522.9923 
   3   2.0000     -19.219249      -522.9823 
   4   2.0000     -14.420695      -392.4071 
   5   2.0000     -14.420443      -392.4002 
   6   2.0000     -14.416661      -392.2973 
   7   2.0000     -14.416480      -392.2924 
   8   2.0000     -10.371068      -282.2111 
   9   2.0000     -10.370707      -282.2013 
  10   2.0000     -10.346718      -281.5485 
  11   2.0000     -10.346560      -281.5442 
  12   2.0000     -10.345569      -281.5172 
  13   2.0000     -10.345452      -281.5141 
  14   2.0000     -10.325184      -280.9626 
  15   2.0000     -10.325009      -280.9578 
  16   2.0000     -10.324583      -280.9462 
  17   2.0000     -10.324274      -280.9378 
  18   2.0000     -10.320893      -280.8458 
  19   2.0000     -10.320753      -280.8420 
  20   2.0000     -10.320546      -280.8363 
  21   2.0000     -10.319414      -280.8055 
  22   2.0000     -10.319087      -280.7966 
  23   2.0000     -10.318123      -280.7704 
  24   2.0000     -10.308046      -280.4962 
  25   2.0000     -10.307976      -280.4943 
  26   2.0000     -10.302906      -280.3563 
  27   2.0000     -10.302395      -280.3424 
  28   2.0000     -10.302142      -280.3355 
  29   2.0000     -10.301708      -280.3237 
  30   2.0000     -10.300924      -280.3024 
  31   2.0000     -10.300689      -280.2960 
  32   2.0000     -10.297397      -280.2064 
  33   2.0000     -10.297284      -280.2033 
  34   2.0000     -10.296643      -280.1859 
  35   2.0000     -10.296582      -280.1842 
  36   2.0000     -10.296481      -280.1815 
  37   2.0000     -10.296399      -280.1793 
  38   2.0000     -10.296245      -280.1751 
  39   2.0000     -10.296196      -280.1737 
  40   2.0000     -10.295753      -280.1617 
  41   2.0000     -10.295637      -280.1585 
  42   2.0000     -10.295009      -280.1414 
  43   2.0000     -10.294478      -280.1270 
  44   2.0000     -10.294096      -280.1166 
  45   2.0000     -10.292257      -280.0666 
  46   2.0000     -10.291826      -280.0548 
  47   2.0000     -10.291597      -280.0486 
  48   2.0000     -10.287381      -279.9339 
  49   2.0000     -10.287228      -279.9297 
  50   2.0000     -10.277912      -279.6762 
  51   2.0000     -10.277669      -279.6696 
  52   2.0000     -10.276772      -279.6452 
  53   2.0000     -10.276658      -279.6421 
  54   2.0000     -10.266409      -279.3632 
  55   2.0000     -10.265886      -279.3489 
  56   2.0000     -10.262515      -279.2572 
  57   2.0000     -10.260183      -279.1938 
  58   2.0000      -8.068766      -219.5623 
  59   2.0000      -8.068728      -219.5612 
  60   2.0000      -6.037899      -164.2996 
  61   2.0000      -6.037858      -164.2985 
  62   2.0000      -6.033967      -164.1926 
  63   2.0000      -6.033964      -164.1925 
  64   2.0000      -6.031079      -164.1140 
  65   2.0000      -6.031014      -164.1122 
  66   2.0000      -1.129703       -30.7408 
  67   2.0000      -1.129216       -30.7275 
  68   2.0000      -1.015303       -27.6278 
  69   2.0000      -1.010883       -27.5075 
  70   2.0000      -1.010287       -27.4913 
  71   2.0000      -1.006009       -27.3749 
  72   2.0000      -0.990233       -26.9456 
  73   2.0000      -0.990076       -26.9413 
  74   2.0000      -0.987059       -26.8592 
  75   2.0000      -0.986892       -26.8547 
  76   2.0000      -0.968250       -26.3474 
  77   2.0000      -0.948679       -25.8149 
  78   2.0000      -0.940542       -25.5934 
  79   2.0000      -0.937495       -25.5105 
  80   2.0000      -0.911075       -24.7916 
  81   2.0000      -0.899802       -24.4849 
  82   2.0000      -0.896046       -24.3826 
  83   2.0000      -0.889844       -24.2139 
  84   2.0000      -0.881763       -23.9940 
  85   2.0000      -0.866656       -23.5829 
  86   2.0000      -0.853501       -23.2249 
  87   2.0000      -0.853330       -23.2203 
  88   2.0000      -0.846261       -23.0279 
  89   2.0000      -0.844067       -22.9682 
  90   2.0000      -0.841313       -22.8933 
  91   2.0000      -0.838326       -22.8120 
  92   2.0000      -0.836117       -22.7519 
  93   2.0000      -0.832121       -22.6432 
  94   2.0000      -0.805368       -21.9152 
  95   2.0000      -0.793199       -21.5840 
  96   2.0000      -0.771990       -21.0069 
  97   2.0000      -0.763733       -20.7822 
  98   2.0000      -0.760333       -20.6897 
  99   2.0000      -0.759525       -20.6677 
 100   2.0000      -0.748768       -20.3750 
 101   2.0000      -0.725586       -19.7442 
 102   2.0000      -0.711521       -19.3615 
 103   2.0000      -0.704123       -19.1602 
 104   2.0000      -0.701245       -19.0818 
 105   2.0000      -0.698300       -19.0017 
 106   2.0000      -0.690676       -18.7943 
 107   2.0000      -0.689515       -18.7627 
 108   2.0000      -0.683794       -18.6070 
 109   2.0000      -0.678239       -18.4558 
 110   2.0000      -0.672811       -18.3081 
 111   2.0000      -0.660485       -17.9727 
 112   2.0000      -0.649308       -17.6686 
 113   2.0000      -0.646433       -17.5903 
 114   2.0000      -0.644441       -17.5361 
 115   2.0000      -0.632509       -17.2115 
 116   2.0000      -0.623934       -16.9781 
 117   2.0000      -0.611175       -16.6309 
 118   2.0000      -0.608565       -16.5599 
 119   2.0000      -0.607781       -16.5386 
 120   2.0000      -0.606265       -16.4973 
 121   2.0000      -0.595379       -16.2011 
 122   2.0000      -0.574960       -15.6455 
 123   2.0000      -0.573379       -15.6024 
 124   2.0000      -0.572091       -15.5674 
 125   2.0000      -0.563837       -15.3428 
 126   2.0000      -0.557331       -15.1657 
 127   2.0000      -0.549982       -14.9658 
 128   2.0000      -0.546794       -14.8790 
 129   2.0000      -0.544777       -14.8241 
 130   2.0000      -0.543206       -14.7814 
 131   2.0000      -0.539045       -14.6682 
 132   2.0000      -0.536107       -14.5882 
 133   2.0000      -0.533731       -14.5236 
 134   2.0000      -0.531571       -14.4648 
 135   2.0000      -0.530809       -14.4441 
 136   2.0000      -0.530714       -14.4415 
 137   2.0000      -0.527923       -14.3655 
 138   2.0000      -0.526354       -14.3228 
 139   2.0000      -0.524596       -14.2750 
 140   2.0000      -0.523744       -14.2518 
 141   2.0000      -0.516941       -14.0667 
 142   2.0000      -0.514059       -13.9883 
 143   2.0000      -0.510321       -13.8865 
 144   2.0000      -0.501649       -13.6506 
 145   2.0000      -0.497555       -13.5392 
 146   2.0000      -0.496294       -13.5048 
 147   2.0000      -0.494010       -13.4427 
 148   2.0000      -0.490376       -13.3438 
 149   2.0000      -0.489899       -13.3308 
 150   2.0000      -0.487782       -13.2732 
 151   2.0000      -0.485386       -13.2080 
 152   2.0000      -0.484012       -13.1706 
 153   2.0000      -0.478850       -13.0302 
 154   2.0000      -0.474210       -12.9039 
 155   2.0000      -0.467065       -12.7095 
 156   2.0000      -0.464449       -12.6383 
 157   2.0000      -0.462007       -12.5719 
 158   2.0000      -0.457862       -12.4590 
 159   2.0000      -0.455562       -12.3965 
 160   2.0000      -0.454812       -12.3761 
 161   2.0000      -0.454243       -12.3606 
 162   2.0000      -0.451886       -12.2964 
 163   2.0000      -0.449834       -12.2406 
 164   2.0000      -0.449562       -12.2332 
 165   2.0000      -0.449358       -12.2277 
 166   2.0000      -0.447747       -12.1838 
 167   2.0000      -0.446988       -12.1632 
 168   2.0000      -0.444014       -12.0822 
 169   2.0000      -0.443257       -12.0616 
 170   2.0000      -0.442673       -12.0457 
 171   2.0000      -0.440343       -11.9823 
 172   2.0000      -0.439503       -11.9595 
 173   2.0000      -0.435312       -11.8454 
 174   2.0000      -0.432863       -11.7788 
 175   2.0000      -0.426397       -11.6029 
 176   2.0000      -0.423752       -11.5309 
 177   2.0000      -0.423386       -11.5209 
 178   2.0000      -0.421474       -11.4689 
 179   2.0000      -0.418599       -11.3907 
 180   2.0000      -0.416260       -11.3270 
 181   2.0000      -0.415737       -11.3128 
 182   2.0000      -0.412196       -11.2164 
 183   2.0000      -0.407994       -11.1021 
 184   2.0000      -0.405555       -11.0357 
 185   2.0000      -0.404440       -11.0054 
 186   2.0000      -0.404187       -10.9985 
 187   2.0000      -0.401689       -10.9305 
 188   2.0000      -0.396907       -10.8004 
 189   2.0000      -0.395274       -10.7559 
 190   2.0000      -0.389734       -10.6052 
 191   2.0000      -0.388002       -10.5581 
 192   2.0000      -0.369998       -10.0682 
 193   2.0000      -0.343766        -9.3543 
 194   2.0000      -0.340387        -9.2624 
 195   2.0000      -0.339608        -9.2412 
 196   2.0000      -0.339055        -9.2262 
 197   2.0000      -0.338413        -9.2087 
 198   2.0000      -0.333974        -9.0879 
 199   2.0000      -0.331114        -9.0101 
 200   2.0000      -0.325713        -8.8631 
 201   2.0000      -0.318093        -8.6558 
 202   2.0000      -0.312561        -8.5052 
 203   2.0000      -0.287560        -7.8249 
 204   2.0000      -0.254855        -6.9350 
 205   0.0000      -0.099850        -2.7171 
 206   0.0000      -0.082753        -2.2518 
 207   0.0000      -0.063783        -1.7356 
 208   0.0000      -0.058398        -1.5891 
 209   0.0000      -0.021464        -0.5841 
 210   0.0000       0.001493         0.0406 
 211   0.0000       0.008645         0.2352 
 212   0.0000       0.020877         0.5681 
 213   0.0000       0.036384         0.9901 
 214   0.0000       0.036841         1.0025 
 215   0.0000       0.038177         1.0388 
 216   0.0000       0.050736         1.3806 
 217   0.0000       0.052689         1.4337 
 218   0.0000       0.053880         1.4662 
 219   0.0000       0.053990         1.4691 
 220   0.0000       0.070906         1.9295 
 221   0.0000       0.082785         2.2527 
 222   0.0000       0.083913         2.2834 
 223   0.0000       0.088970         2.4210 
 224   0.0000       0.090717         2.4685 
 225   0.0000       0.092611         2.5201 
 226   0.0000       0.101078         2.7505 
 227   0.0000       0.101615         2.7651 
 228   0.0000       0.101870         2.7720 
 229   0.0000       0.104183         2.8350 
 230   0.0000       0.105897         2.8816 
 231   0.0000       0.111651         3.0382 
 232   0.0000       0.116742         3.1767 
 233   0.0000       0.118668         3.2291 
 234   0.0000       0.125611         3.4180 
 235   0.0000       0.127285         3.4636 
 236   0.0000       0.134310         3.6548 
 237   0.0000       0.137842         3.7509 
 238   0.0000       0.142040         3.8651 
 239   0.0000       0.142110         3.8670 
 240   0.0000       0.145468         3.9584 
 241   0.0000       0.149898         4.0789 
 242   0.0000       0.150507         4.0955 
 243   0.0000       0.151708         4.1282 
 244   0.0000       0.152991         4.1631 
 245   0.0000       0.154958         4.2166 
 246   0.0000       0.158392         4.3101 
 247   0.0000       0.160257         4.3608 
 248   0.0000       0.166379         4.5274 
 249   0.0000       0.168726         4.5913 
 250   0.0000       0.169815         4.6209 
 251   0.0000       0.170209         4.6316 
 252   0.0000       0.171655         4.6710 
 253   0.0000       0.175473         4.7749 
 254   0.0000       0.177077         4.8185 
 255   0.0000       0.185167         5.0387 
 256   0.0000       0.186876         5.0852 
 257   0.0000       0.189229         5.1492 
 258   0.0000       0.194632         5.2962 
 259   0.0000       0.196436         5.3453 
 260   0.0000       0.199937         5.4406 
 261   0.0000       0.202827         5.5192 
 262   0.0000       0.204912         5.5759 
 263   0.0000       0.205756         5.5989 
 264   0.0000       0.211797         5.7633 
 265   0.0000       0.215812         5.8725 
 266   0.0000       0.218612         5.9487 
 267   0.0000       0.219627         5.9764 
 268   0.0000       0.221424         6.0252 
 269   0.0000       0.223789         6.0896 
 270   0.0000       0.227437         6.1889 
 271   0.0000       0.228501         6.2178 
 272   0.0000       0.230083         6.2609 
 273   0.0000       0.237955         6.4751 
 274   0.0000       0.241216         6.5638 
 275   0.0000       0.243374         6.6225 
 276   0.0000       0.247911         6.7460 
 277   0.0000       0.250121         6.8061 
 278   0.0000       0.252510         6.8712 
 279   0.0000       0.257001         6.9933 
 280   0.0000       0.258195         7.0258 
 281   0.0000       0.262153         7.1335 
 282   0.0000       0.264178         7.1887 
 283   0.0000       0.267759         7.2861 
 284   0.0000       0.273435         7.4406 
 285   0.0000       0.276940         7.5359 
 286   0.0000       0.284229         7.7343 
 287   0.0000       0.290094         7.8938 
 288   0.0000       0.292278         7.9533 
 289   0.0000       0.295807         8.0493 
 290   0.0000       0.296086         8.0569 
 291   0.0000       0.297909         8.1065 
 292   0.0000       0.301785         8.2120 
 293   0.0000       0.305582         8.3153 
 294   0.0000       0.307493         8.3673 
 295   0.0000       0.312192         8.4952 
 296   0.0000       0.315342         8.5809 
 297   0.0000       0.317203         8.6315 
 298   0.0000       0.320743         8.7279 
 299   0.0000       0.324237         8.8229 
 300   0.0000       0.326006         8.8711 
 301   0.0000       0.327072         8.9001 
 302   0.0000       0.336886         9.1671 
 303   0.0000       0.340719         9.2714 
 304   0.0000       0.342068         9.3081 
 305   0.0000       0.343172         9.3382 
 306   0.0000       0.347128         9.4458 
 307   0.0000       0.347368         9.4524 
 308   0.0000       0.351377         9.5614 
 309   0.0000       0.358397         9.7525 
 310   0.0000       0.361429         9.8350 
 311   0.0000       0.363758         9.8984 
 312   0.0000       0.364743         9.9252 
 313   0.0000       0.368175        10.0186 
 314   0.0000       0.373124        10.1532 
 315   0.0000       0.375246        10.2110 
 316   0.0000       0.378335        10.2950 
 317   0.0000       0.380903        10.3649 
 318   0.0000       0.385101        10.4791 
 319   0.0000       0.386377        10.5139 
 320   0.0000       0.388988        10.5849 
 321   0.0000       0.394645        10.7388 
 322   0.0000       0.396893        10.8000 
 323   0.0000       0.399029        10.8581 
 324   0.0000       0.412236        11.2175 
 325   0.0000       0.415064        11.2945 
 326   0.0000       0.420891        11.4530 
 327   0.0000       0.427485        11.6325 
 328   0.0000       0.435654        11.8547 
 329   0.0000       0.437845        11.9144 
 330   0.0000       0.439367        11.9558 
 331   0.0000       0.445734        12.1290 
 332   0.0000       0.450209        12.2508 
 333   0.0000       0.456089        12.4108 
 334   0.0000       0.458152        12.4669 
 335   0.0000       0.460115        12.5204 
 336   0.0000       0.462252        12.5785 
 337   0.0000       0.463202        12.6044 
 338   0.0000       0.463753        12.6193 
 339   0.0000       0.465232        12.6596 
 340   0.0000       0.467903        12.7323 
 341   0.0000       0.474142        12.9021 
 342   0.0000       0.476763        12.9734 
 343   0.0000       0.486257        13.2317 
 344   0.0000       0.491308        13.3692 
 345   0.0000       0.491798        13.3825 
 346   0.0000       0.497008        13.5243 
 347   0.0000       0.498414        13.5625 
 348   0.0000       0.501623        13.6498 
 349   0.0000       0.502337        13.6693 
 350   0.0000       0.503477        13.7003 
 351   0.0000       0.504904        13.7391 
 352   0.0000       0.505950        13.7676 
 353   0.0000       0.506937        13.7945 
 354   0.0000       0.511375        13.9152 
 355   0.0000       0.514032        13.9875 
 356   0.0000       0.515854        14.0371 
[...]
B( 31-C , 32-C ) :   1.3383 B( 31-C , 38-C ) :   1.3928 B( 32-C , 33-C ) :   0.9864 
B( 32-C , 41-C ) :   1.3747 B( 33-C , 49-C ) :   1.6215 B( 34-C , 35-C ) :   0.9597 
B( 34-C , 47-O ) :   2.1526 B( 35-C , 36-C ) :   1.3385 B( 35-C , 42-C ) :   1.3926 
B( 36-C , 37-C ) :   0.9877 B( 36-C , 45-C ) :   1.3745 B( 37-C , 48-C ) :   1.6248 
B( 38-C , 39-C ) :   1.3476 B( 38-C , 84-H ) :   0.9981 B( 39-C , 40-C ) :   1.3787 
B( 39-C , 85-H ) :   0.9862 B( 40-C , 41-C ) :   1.3834 B( 40-C , 86-H ) :   0.9814 
B( 41-C , 87-H ) :   0.9783 B( 42-C , 43-C ) :   1.3481 B( 42-C , 88-H ) :   0.9981 
B( 43-C , 44-C ) :   1.3786 B( 43-C , 89-H ) :   0.9864 B( 44-C , 45-C ) :   1.3830 
B( 44-C , 90-H ) :   0.9816 B( 45-C , 91-H ) :   0.9785 B( 46-O , 61-H ) :   0.1010 
B( 48-C , 52-C ) :   1.1275 B( 48-C , 53-C ) :   1.1292 B( 49-C , 50-C ) :   1.1280 
B( 49-C , 51-C ) :   1.1304 B( 50-C , 54-N ) :   2.9495 B( 51-C , 55-N ) :   2.9669 
B( 52-C , 57-N ) :   2.9595 B( 53-C , 56-N ) :   2.9686 

-------
TIMINGS
-------

Total SCF time: 0 days 0 hours 44 min 50 sec 

Total time                  ....    2690.685 sec
Sum of individual times     ....    2688.464 sec  ( 99.9%)

Fock matrix formation       ....    2602.205 sec  ( 96.7%)
  Split-RI-J                ....     229.530 sec  (  8.8% of F)
  Chain of spheres X        ....    2208.426 sec  ( 84.9% of F)
  COS-X 1 center corr.      ....       0.000 sec  (  0.0% of F)
  XC integration            ....     163.308 sec  (  6.3% of F)
    Basis function eval.    ....      49.137 sec  ( 30.1% of XC)
    Density eval.           ....      37.979 sec  ( 23.3% of XC)
    XC-Functional eval.     ....      39.901 sec  ( 24.4% of XC)
    XC-Potential eval.      ....      32.002 sec  ( 19.6% of XC)
Diagonalization             ....       2.234 sec  (  0.1%)
Density matrix formation    ....       1.236 sec  (  0.0%)
Population analysis         ....       0.202 sec  (  0.0%)
Initial guess               ....      14.024 sec  (  0.5%)
Orbital Transformation      ....       0.000 sec  (  0.0%)
Orbital Orthonormalization  ....       0.000 sec  (  0.0%)
DIIS solution               ....       0.795 sec  (  0.0%)
SOSCF solution              ....       2.208 sec  (  0.1%)
Grid generation             ....      65.560 sec  (  2.4%)

---------------------------------------------------------------------------------

                       ORCA sTD-DFT CALCULATION

                       please cite in your paper           
 orginal sTDA method:  S. Grimme, J. Chem. Phys. 138, 244104 (2013)           
 range-separated sTDA: T. Risthaus, A. Hansen, S. Grimme, Phys. Chem. Chem. Phys.
                       16, 14408-14419 (2014) 
 sTD-DFT approach:     C. Bannwarth, S. Grimme, Comp. Theor. Chem. 
                       1040-1041, 45-53 (2014)

---------------------------------------------------------------------------------


spectral range up to (eV)      ...    5.000000
occ. MO cut-off (eV)           ...   -15.757051
virt. MO cut-off (eV)          ...    6.105031
perturbation threshold         ...   1.000e-04 
MOs in sTD-DFT                 ...         148 
occ. MOs in sTD-DFT            ...          83 
virt. in sTD-DFT               ...          65 
calculate triplets           ...   no  

Calculating the dipole lengths integrals ... 
Transforming integrals ... 
Calculating the dipole velocity integrals ... 
Transforming integrals ... 
Calculating magnetic dipole integrals ... 
Transforming integrals ... 

SCF atom population (using active MOs):

   2.145   2.211   2.409   2.138   2.211   2.410   2.173   2.150   2.164   2.174
   2.153   2.177   3.698   2.232   2.189   3.706   2.238   2.205   2.661   2.715
   2.977   3.001   2.708   2.709   2.969   2.969   2.145   2.143   2.182   2.192
   1.844   2.159   2.178   1.879   1.842   2.158   2.177   1.875   2.343   2.313
   2.380   2.325   2.344   2.311   2.381   2.324   4.344   4.355   1.515   1.518
   2.157   2.165   2.159   2.165   3.882   3.885   3.884   3.882   0.606   0.604
   0.491   0.499   0.641   0.645   0.651   0.663   0.665   0.666   0.662   0.668
   0.679   0.668   0.645   0.662   0.650   0.663   0.665   0.665   0.659   0.665
   0.655   0.663   0.541   0.544   0.583   0.546   0.601   0.577   0.584   0.545
   0.602   0.577

Number of electrons in sTDA:  166.000

ax(DF)   :  0.3800
s^k      :  2.0000
beta  (J):  1.8600
alpha (K):  0.9000

hardness table read
setting up gammas ...
computing q(ij,n)
memory needed for q data:             5.8 MB 
memory available for q data:       2486.7 MB 

CSF included by energy:           19 
CSF considered in PT2:          5376 

ordered frontier orbitals
           eV         # centers 
  72      -9.262      10.5
  73      -9.241      14.3
  74      -9.226       5.1
  75      -9.209      11.7
  76      -9.088      15.3
  77      -9.010       6.8
  78      -8.863      12.7
  79      -8.656      21.1
  80      -8.505      21.2
  81      -7.825      19.5
  82      -6.935      18.4

  83      -2.717      26.0
  84      -2.252      21.8
  85      -1.736      24.6
  86      -1.589      21.3
  87      -0.584      28.7
  88       0.041      20.6
  89       0.235       7.3
  90       0.568      22.3
  91       0.990       6.1
  92       1.002       6.1
  93       1.039      28.3

           eV        nm       excitation i->a                     eV 
   0      2.55     486.1    82 ->  83      gap,J,K:    4.218     2.095     0.214
   1      3.18     389.7    82 ->  84      gap,J,K:    4.683     1.918     0.208
   2      3.64     340.7    81 ->  83      gap,J,K:    5.108     2.033     0.282
   3      3.64     340.2    82 ->  85      gap,J,K:    5.199     1.779     0.112
   4      3.76     329.7    82 ->  86      gap,J,K:    5.346     1.852     0.133
   5      4.09     303.3    81 ->  84      gap,J,K:    5.573     1.947     0.231
   6      4.36     284.2    80 ->  83      gap,J,K:    5.788     1.788     0.181
   7      4.42     280.5    78 ->  83      gap,J,K:    6.146     2.076     0.175
   8      4.49     275.8    79 ->  83      gap,J,K:    5.939     1.748     0.152
   9      4.56     272.1    81 ->  85      gap,J,K:    6.089     1.848     0.158
  10      4.57     271.6    74 ->  83      gap,J,K:    6.509     1.948     0.002
  11      4.65     266.6    77 ->  83      gap,J,K:    6.293     2.093     0.226
  12      4.67     265.4    81 ->  86      gap,J,K:    6.236     1.891     0.163
  13      4.69     264.4    76 ->  83      gap,J,K:    6.371     2.047     0.183
  14      4.71     263.4    75 ->  83      gap,J,K:    6.492     1.901     0.058
  15      4.77     259.9    82 ->  87      gap,J,K:    6.351     2.093     0.256
  16      4.83     256.6    73 ->  83      gap,J,K:    6.524     1.808     0.058
  17      4.92     252.2    80 ->  84      gap,J,K:    6.253     1.849     0.256
  18      4.93     251.4    78 ->  84      gap,J,K:    6.611     1.804     0.062

average / max PT2 energy lowering (eV):       0.047       0.089

CSF included by PT:                   143 
total number of CSF included:         162 
 
sTD-DFT procedure...
setting up A+B and A-B matrices...  done
estimated time (min):    0.000
calculating (A-B)^0.5 ... done
calculating (A+B)*(A-B)^0.5 ... done
calculating (A-B)^0.5 *(A+B)*(A-B)^0.5 ... done
diagonalizing ...using LAPACKE_ssyevr ...done

   24 roots found, lowest/highest eigenvalue :     2.308     4.861

excitation energies, transition moments and amplitudes

molecular weight:  786.968
state   eV        nm        fL         fV        Rl        RV
   0   2.308     537.3   2.577274   2.914551  -136.420209  -158.073929     0.92 (  82->  83)    0.06 (  81->  84)    0.00 (  79->  84)
   1   2.876     431.0   0.063663   0.069000  281.364271  293.043807     0.81 (  82->  84)    0.14 (  81->  83)    0.03 (  81->  85)
   2   3.277     378.4   0.169652   0.162562  -50.206105  -48.631255     0.75 (  82->  85)    0.14 (  81->  86)    0.05 (  81->  84)
   3   3.384     366.4   0.007089   0.006900  -54.946334  -54.250667     0.66 (  82->  86)    0.16 (  81->  85)    0.10 (  81->  83)
   4   3.483     356.0   0.010520   0.010652  100.569765  101.196503     0.69 (  81->  83)    0.13 (  82->  84)    0.11 (  82->  86)
   5   3.737     331.8   0.016982   0.016488   2.577382   3.604179     0.27 (  75->  83)    0.18 (  73->  83)    0.17 (  74->  84)
   6   3.822     324.4   0.002073   0.001797  -1.733137  -1.134616     0.56 (  74->  83)    0.12 (  75->  84)    0.09 (  73->  84)
   7   3.861     321.1   0.154343   0.148249  -221.858552  -223.724935     0.47 (  80->  83)    0.21 (  81->  84)    0.08 (  79->  84)
   8   3.979     311.6   0.000440   0.000395  26.239923  23.104078     0.57 (  79->  83)    0.15 (  80->  84)    0.07 (  80->  86)
   9   4.029     307.8   0.228420   0.195730  33.813097  27.342271     0.47 (  78->  83)    0.14 (  81->  84)    0.06 (  79->  84)
  10   4.071     304.5   0.029264   0.029442  -85.685317  -85.576691     0.15 (  78->  83)    0.15 (  74->  86)    0.14 (  81->  84)
  11   4.086     303.4   0.031784   0.034840  42.771443  44.802136     0.25 (  81->  84)    0.11 (  74->  86)    0.09 (  75->  85)
  12   4.104     302.1   0.000424   0.000361   7.492974   6.780069     0.45 (  74->  85)    0.19 (  75->  86)    0.12 (  73->  86)
  13   4.252     291.6   0.000754   0.000730   7.043424   6.919231     0.74 (  77->  83)    0.10 (  78->  84)    0.09 (  76->  84)
  14   4.297     288.5   0.091737   0.071994  -53.348387  -46.874312     0.54 (  76->  83)    0.14 (  77->  84)    0.07 (  78->  83)
  15   4.387     282.6   0.005356   0.004759  221.111146  209.311067     0.29 (  72->  83)    0.11 (  73->  84)    0.11 (  80->  84)
  16   4.395     282.1   0.168763   0.156626  10.085894   7.557786     0.21 (  72->  84)    0.21 (  73->  83)    0.10 (  75->  83)
  17   4.453     278.4   0.042062   0.034571  -30.574457  -28.020553     0.54 (  82->  87)    0.20 (  81->  86)    0.09 (  82->  85)
  18   4.536     273.3   0.008647   0.007543  243.769128  228.121597     0.52 (  81->  85)    0.13 (  82->  86)    0.12 (  72->  83)
  19   4.648     266.7   1.073053   0.896037  -825.042442  -745.144574     0.24 (  81->  86)    0.24 (  80->  85)    0.10 (  79->  84)
  20   4.764     260.3   0.029839   0.024920  958.751925  876.182122     0.34 (  79->  85)    0.17 (  80->  86)    0.14 (  72->  83)
  21   4.792     258.7   0.287090   0.237761  -326.736122  -297.571065     0.24 (  82->  87)    0.11 (  81->  86)    0.09 (  79->  84)
  22   4.799     258.3   0.003467   0.002845  -3.968987  -3.580067     0.68 (  78->  84)    0.06 (  76->  84)    0.05 (  77->  83)
  23   4.861     255.0   0.097807   0.086007  -110.013861  -107.039325     0.40 (  71->  83)    0.13 (  79->  86)    0.10 (  81->  86)

-----------------------------------------------------------------------------
         ABSORPTION SPECTRUM VIA TRANSITION ELECTRIC DIPOLE MOMENTS
-----------------------------------------------------------------------------
State   Energy  Wavelength   fosc         T2         TX        TY        TZ  
        (cm-1)    (nm)                  (au**2)     (au)      (au)      (au) 
-----------------------------------------------------------------------------
   0   18612.9    537.3   2.577273585  45.58500   6.41169   2.11409  -0.07618
   1   23200.0    431.0   0.063663220   0.90339   0.07072  -0.05689   0.94613
   2   26428.7    378.4   0.169652296   2.11329  -1.21520   0.79778   0.01183
   3   27293.4    366.4   0.007088938   0.08551   0.01589   0.01600  -0.29154
   4   28088.8    356.0   0.010520460   0.12330   0.02111  -0.02072   0.34990
   5   30142.8    331.8   0.016982109   0.18547  -0.33194   0.27272   0.03018
   6   30829.5    324.4   0.002073020   0.02214  -0.10759   0.10276   0.00124
   7   31143.4    321.1   0.154343104   1.63154   0.77448  -1.01563   0.01454
   8   32090.4    311.6   0.000439902   0.00451  -0.05037  -0.02702  -0.03530
   9   32493.4    307.8   0.228419964   2.31427  -1.36382   0.66794   0.09019
  10   32838.3    304.5   0.029263954   0.29338  -0.12541  -0.52682   0.01047
  11   32958.6    303.4   0.031783728   0.31748  -0.48958  -0.27837   0.01725
  12   33104.0    302.1   0.000423823   0.00421  -0.01556   0.02226  -0.05897
  13   34296.2    291.6   0.000753771   0.00724   0.00756   0.00959  -0.08418
  14   34659.7    288.5   0.091736610   0.87135   0.26880  -0.89304  -0.03981
  15   35384.5    282.6   0.005356428   0.04984   0.01380   0.07578   0.20953
  16   35449.7    282.1   0.168762821   1.56726  -1.22197   0.27096   0.02492
  17   35919.1    278.4   0.042062091   0.38551  -0.37647  -0.49237  -0.03681
  18   36587.9    273.3   0.008647486   0.07781   0.02001   0.03274   0.27629
  19   37491.0    266.7   1.073053404   9.42258   1.73299  -2.53185  -0.09508
  20   38422.3    260.3   0.029838538   0.25566   0.08044   0.02884   0.49836
  21   38651.6    258.7   0.287090076   2.44527   0.15821  -1.55378  -0.07756
  22   38710.0    258.3   0.003466926   0.02948  -0.00527  -0.16987   0.02451
  23   39208.1    255.0   0.097807200   0.82124   0.67014   0.60822  -0.04719

-----------------------------------------------------------------------------
         ABSORPTION SPECTRUM VIA TRANSITION VELOCITY DIPOLE MOMENTS
-----------------------------------------------------------------------------
State   Energy  Wavelength   fosc         P2         PX        PY        PZ  
        (cm-1)    (nm)                  (au**2)     (au)      (au)      (au) 
-----------------------------------------------------------------------------
   0   18612.9    537.3   2.914551287   0.37076   0.57706   0.19420  -0.00666
   1   23200.0    431.0   0.069000221   0.01094   0.00785  -0.00662   0.10409
   2   26428.7    378.4   0.162561755   0.02936  -0.14438   0.09228   0.00125
   3   27293.4    366.4   0.006899771   0.00129   0.00173   0.00180  -0.03579
   4   28088.8    356.0   0.010652335   0.00204   0.00264  -0.00260   0.04507
   5   30142.8    331.8   0.016488013   0.00340  -0.04243   0.03975   0.00403
   6   30829.5    324.4   0.001796992   0.00038  -0.01349   0.01400  -0.00087
   7   31143.4    321.1   0.148248921   0.03155   0.10116  -0.14601   0.00157
   8   32090.4    311.6   0.000395215   0.00009  -0.00717  -0.00382  -0.00454
   9   32493.4    307.8   0.195730284   0.04347  -0.19172   0.08106   0.01183
  10   32838.3    304.5   0.029441890   0.00661  -0.02477  -0.07740   0.00186
  11   32958.6    303.4   0.034840318   0.00785  -0.07686  -0.04398   0.00254
  12   33104.0    302.1   0.000360513   0.00008  -0.00227   0.00369  -0.00792
  13   34296.2    291.6   0.000730247   0.00017   0.00142   0.00152  -0.01292
  14   34659.7    288.5   0.071993626   0.01705   0.03302  -0.12624  -0.00525
  15   35384.5    282.6   0.004759389   0.00115   0.00202   0.01120   0.03196
  16   35449.7    282.1   0.156625897   0.03795  -0.18911   0.04656   0.00416
  17   35919.1    278.4   0.034571335   0.00849  -0.05449  -0.07404  -0.00595
  18   36587.9    273.3   0.007543380   0.00189   0.00299   0.00466   0.04308
  19   37491.0    266.7   0.896036731   0.22959   0.27650  -0.39106  -0.01467
  20   38422.3    260.3   0.024919839   0.00654   0.01295   0.00450   0.07972
  21   38651.6    258.7   0.237760991   0.06281   0.02221  -0.24930  -0.01277
  22   38710.0    258.3   0.002845347   0.00075  -0.00140  -0.02714   0.00377
  23   39208.1    255.0   0.086007313   0.02305   0.10872   0.10569  -0.00765

-------------------------------------------------------------------
                             CD SPECTRUM
-------------------------------------------------------------------
State   Energy Wavelength       R         MX        MY        MZ   
        (cm-1)   (nm)       (1e40*cgs)   (au)      (au)      (au)  
-------------------------------------------------------------------
   0   18612.9    537.3    -136.42021  -0.31316   1.22133  -0.06032
   1   23200.0    431.0    281.36427  -0.06246   0.23487  -1.24280
   2   26428.7    378.4    -50.20611  -0.03991   0.21275  -0.44310
   3   27293.4    366.4    -54.94633  -0.00065  -0.03921  -0.80172
   4   28088.8    356.0    100.56976  -0.03639   0.12090  -1.20999
   5   30142.8    331.8      2.57738  -0.09525  -0.13780  -0.16464
   6   30829.5    324.4     -1.73314   0.01231   0.08047   0.32808
   7   31143.4    321.1    -221.85855   0.03139  -0.89420   0.59807
   8   32090.4    311.6     26.23992   0.06812  -0.13962   3.16324
   9   32493.4    307.8     33.81310  -0.02636  -0.19898  -0.51545
  10   32838.3    304.5    -85.68532  -0.13992  -0.65507   0.08112
  11   32958.6    303.4     42.77144   0.30212   0.12808   0.12270
  12   33104.0    302.1      7.49297  -0.03421  -0.10589   0.50811
  13   34296.2    291.6      7.04342   0.00319  -0.05714   0.34873
  14   34659.7    288.5    -53.34839   0.14941  -0.22649   0.40460
  15   35384.5    282.6    221.11115  -0.10203   0.25345  -4.56173
  16   35449.7    282.1     10.08589   0.10172   0.33973  -0.42318
  17   35919.1    278.4    -30.57446   0.01794  -0.29303   0.21241
  18   36587.9    273.3    243.76913  -0.08528   0.24645  -3.76598
  19   37491.0    266.7    -825.04244  -0.07310  -1.48247   1.33206
  20   38422.3    260.3    958.75192  -0.20187   0.45431  -8.15508
  21   38651.6    258.7    -326.73612  -0.04689  -0.93207   0.70539
  22   38710.0    258.3     -3.96899  -0.00304  -0.08624   0.08859
  23   39208.1    255.0    -110.01386  -0.01158   0.77094  -0.11813

sTD-DFT done

Total run time:        2.627 sec

           *** ORCA-CIS/TD-DFT FINISHED WITHOUT ERROR ***

-------------------------   --------------------
FINAL SINGLE POINT ENERGY     -3088.402625981641
-------------------------   --------------------


                            ***************************************
                            *     ORCA property calculations      *
                            ***************************************

                                    ---------------------
                                    Active property flags
                                    ---------------------
   (+) Dipole Moment


------------------------------------------------------------------------------
                       ORCA ELECTRIC PROPERTIES CALCULATION
------------------------------------------------------------------------------

Dipole Moment Calculation                       ... on
Quadrupole Moment Calculation                   ... off
Polarizability Calculation                      ... off
GBWName                                         ... IDIC.gbw
Electron density file                           ... IDIC.scfp
The origin for moment calculation is the CENTER OF MASS  = ( 3.240455,  0.703511  0.135272)

-------------
DIPOLE MOMENT
-------------
                                X             Y             Z
Electronic contribution:     -2.34815       2.14931       9.70011
Nuclear contribution   :      2.25677      -2.16733     -11.09936
                        -----------------------------------------
Total Dipole Moment    :     -0.09138      -0.01802      -1.39925
                        -----------------------------------------
Magnitude (a.u.)       :      1.40234
Magnitude (Debye)      :      3.56448



--------------------
Rotational spectrum 
--------------------
 
Rotational constants in cm-1:     0.003992     0.000404     0.000378 
Rotational constants in MHz :   119.676587    12.121101    11.343179 

 Dipole components along the rotational axes: 
x,y,z [a.u.] :    -0.076396     0.044505    -1.399554 
x,y,z [Debye]:    -0.194184     0.113122    -3.557384 

 

Timings for individual modules:

Sum of individual times         ...     2697.425 sec (=  44.957 min)
GTO integral calculation        ...        3.322 sec (=   0.055 min)   0.1 %
SCF iterations                  ...     2691.211 sec (=  44.854 min)  99.8 %
CIS module                      ...        2.892 sec (=   0.048 min)   0.1 %
                             ****ORCA TERMINATED NORMALLY****
TOTAL RUN TIME: 0 days 0 hours 44 minutes 58 seconds 27 msec
