
                                 *****************
                                 * O   R   C   A *
                                 *****************

           --- An Ab Initio, DFT and Semiempirical electronic structure package ---

                  #######################################################
                  #                        -***-                        #
                  #          Department of theory and spectroscopy      #
                  #               Directorship: Frank Neese             #
                  #        Max Planck Institute fuer Kohlenforschung    #
                  #                Kaiser Wilhelm Platz 1               #
                  #                 D-45470 Muelheim/Ruhr               #
                  #                      Germany                        #
                  #                                                     #
                  #                  All rights reserved                #
                  #                        -***-                        #
                  #######################################################


                         Program Version 4.2.0 -  RELEASE  -


 With contributions from (in alphabetic order):
   Daniel Aravena         : Magnetic Suceptibility
   Michael Atanasov       : Ab Initio Ligand Field Theory (pilot matlab implementation)
   Alexander A. Auer      : GIAO ZORA, VPT2
   Ute Becker             : Parallelization
   Giovanni Bistoni       : ED, misc. LED, open-shell LED, HFLED
   Martin Brehm           : Molecular dynamics
   Dmytro Bykov           : SCF Hessian
   Vijay G. Chilkuri      : MRCI spin determinant printing, contributions to CSF-ICE
   Dipayan Datta          : RHF DLPNO-CCSD density
   Achintya Kumar Dutta   : EOM-CC, STEOM-CC
   Dmitry Ganyushin       : Spin-Orbit,Spin-Spin,Magnetic field MRCI
   Miquel Garcia          : C-PCM Hessian, Gaussian charge scheme
   Yang Guo               : DLPNO-NEVPT2, CIM, IAO-localization
   Andreas Hansen         : Spin unrestricted coupled pair/coupled cluster methods
   Benjamin Helmich-Paris : CASSCF linear response (MC-RPA)
   Lee Huntington         : MR-EOM, pCC
   Robert Izsak           : Overlap fitted RIJCOSX, COSX-SCS-MP3, EOM
   Christian Kollmar      : KDIIS, OOCD, Brueckner-CCSD(T), CCSD density
   Simone Kossmann        : Meta GGA functionals, TD-DFT gradient, OOMP2, MP2 Hessian
   Martin Krupicka        : AUTO-CI
   Lucas Lang             : DCDCAS
   Dagmar Lenk            : GEPOL surface, SMD
   Dimitrios Liakos       : Extrapolation schemes; Compound Job, initial MDCI parallelization
   Dimitrios Manganas     : Further ROCIS development; embedding schemes
   Dimitrios Pantazis     : SARC Basis sets
   Taras Petrenko         : DFT Hessian,TD-DFT gradient, ASA, ECA, R-Raman, ABS, FL, XAS/XES, NRVS
   Peter Pinski           : DLPNO-MP2, DLPNO-MP2 Gradient
   Christoph Reimann      : Effective Core Potentials
   Marius Retegan         : Local ZFS, SOC
   Christoph Riplinger    : Optimizer, TS searches, QM/MM, DLPNO-CCSD(T), (RO)-DLPNO pert. Triples
   Tobias Risthaus        : Range-separated hybrids, TD-DFT gradient, RPA, STAB
   Michael Roemelt        : Original ROCIS implementation
   Masaaki Saitow         : Open-shell DLPNO-CCSD energy and density
   Barbara Sandhoefer     : DKH picture change effects
   Avijit Sen             : IP-ROCIS
   Kantharuban Sivalingam : CASSCF convergence, NEVPT2, FIC-MRCI
   Bernardo de Souza      : ESD, SOC TD-DFT
   Georgi Stoychev        : AutoAux, RI-MP2 NMR
   Willem Van den Heuvel  : Paramagnetic NMR
   Boris Wezisla          : Elementary symmetry handling
   Frank Wennmohs         : Technical directorship


 We gratefully acknowledge several colleagues who have allowed us to
 interface, adapt or use parts of their codes:
   Stefan Grimme, W. Hujo, H. Kruse,             : VdW corrections, initial TS optimization,
                  C. Bannwarth                     DFT functionals, gCP, sTDA/sTD-DF
   Ed Valeev, F. Pavosevic, A. Kumar             : LibInt (2-el integral package), F12 methods
   Garnet Chan, S. Sharma, J. Yang, R. Olivares  : DMRG
   Ulf Ekstrom                                   : XCFun DFT Library
   Mihaly Kallay                                 : mrcc  (arbitrary order and MRCC methods)
   Andreas Klamt, Michael Diedenhofen            : otool_cosmo (COSMO solvation model)
   Jiri Pittner, Ondrej Demel                    : Mk-CCSD
   Frank Weinhold                                : gennbo (NPA and NBO analysis)
   Christopher J. Cramer and Donald G. Truhlar   : smd solvation model
   Lars Goerigk                                  : TD-DFT with DH, B97 family of functionals
   V. Asgeirsson, H. Jonsson                     : NEB implementation
   FAccTs GmbH                                   : IRC, NEB, NEB-TS, Multilevel, MM, QM/MM, CI optimization
   S Lehtola, MJT Oliveira, MAL Marques          : LibXC Library


 Your calculation uses the libint2 library for the computation of 2-el integrals
 For citations please refer to: http://libint.valeyev.net

 Your ORCA version has been built with support for libXC version: 4.2.3
 For citations please refer to: https://tddft.org/programs/libxc/

 This ORCA versions uses:
   CBLAS   interface :  Fast vector & matrix operations
   LAPACKE interface :  Fast linear algebra routines
   SCALAPACK package :  Parallel linear algebra routines


XCFun DFT library Copyright 2009-2010 Ulf Ekstrom and contributors.
See http://admol.org/xcfun for more information. This is free soft-
ware; see the source code for copying conditions. There is ABSOLUTELY
NO WARRANTY; not even for MERCHANTABILITY or FITNESS FOR A PARTICULAR
PURPOSE. For details see the documentation. Scientific users of this 
library should cite U. Ekstrom, L. Visscher, R. Bast, A. J. Thorvald-
sen and K. Ruud; J.Chem.Theor.Comp. 2010, DOI: 10.1021/ct100117s
XCFun Version 0.99 
----- Orbital basis set information -----
Your calculation utilizes the basis: def2-SVP
   F. Weigend and R. Ahlrichs, Phys. Chem. Chem. Phys. 7, 3297 (2005).

----- AuxJ basis set information -----
Your calculation utilizes the auxiliary basis: def2/J
   F. Weigend, Phys. Chem. Chem. Phys. 8, 1057 (2006).

================================================================================
                                        WARNINGS
                       Please study these warnings very carefully!
================================================================================

INFO   : Checking CIS options ...

WARNING: CIS/ROCIS methods need fully converged wavefunctions
  ===> : Setting SCFConvForced true
         You can overwrite this default with %scf ConvForced false 


INFO   : the flag for use of LIBINT has been found!

================================================================================
                                       INPUT FILE
================================================================================
NAME = IDST-4F.inp
|  1> # ORCA input file
|  2> # IDST-4F.out
|  3> ! CAM-B3LYP def2-SVP def2/J RIJCOSX Grid4 TightSCF
|  4> %maxcore 5000
|  5> %tddft
|  6>     Mode sTDDFT
|  7>     Ethresh 5.0
|  8>     maxcore 5000
|  9> end
| 10> * xyz 0 1
| 11>    C       -1.53426        -1.06870         0.24803
| 12>    C       -2.17270        -0.04059        -0.43094
| 13>    C       -1.78757         1.20961         0.03395
| 14>    C       -2.13897         2.64044        -0.27657
| 15>    C       -1.22453         3.37610         0.68495
| 16>    C       -0.50983         2.46455         1.50247
| 17>    C       -0.87260         1.15236         1.07521
| 18>    S       -0.44544        -0.45764         1.48334
| 19>    C        0.37443         2.88383         2.49455
| 20>    C        0.56779         4.23767         2.64425
| 21>    C        1.44180         4.97604         3.64140
| 22>    C        1.10379         6.40704         3.31586
| 23>    C        0.21156         6.45881         2.25055
| 24>    C       -0.13571         5.14712         1.81606
| 25>    C       -1.02365         4.72831         0.82623
| 26>    S       -0.22589         8.05657         1.82904
| 27>    C        0.80539         8.68615         3.10857
| 28>    C        1.46653         7.66015         3.77801
| 29>    C       -1.85320         3.00109        -1.74203
| 30>    C       -0.42173         2.67667        -2.15385
| 31>    C       -3.63295         2.82792         0.08043
| 32>    C       -4.16566         4.25144        -0.00729
| 33>    C        1.06627         4.62824         5.09161
| 34>    C       -0.38911         4.95025         5.41343
| 35>    C        2.95251         4.78120         3.37399
| 36>    C        3.46721         3.35131         3.46601
| 37>    C        0.97279        10.06493         3.33845
| 38>    C        0.16428        11.10189         2.96802
| 39>    C       -1.21913        11.14258         2.55435
| 40>    C       -1.42853        12.42062         1.87442
| 41>    C       -0.29591        13.22881         2.07873
| 42>    C        0.72108        12.47038         2.84715
| 43>    C       -2.50800        12.90205         1.15280
| 44>    C       -2.42698        14.19156         0.64823
| 45>    C       -1.30505        14.99250         0.86388
| 46>    C       -0.22195        14.51649         1.58599
| 47>    O        1.79219        12.86431         3.24600
| 48>    C       -2.21452        10.29849         2.97481
| 49>    C       -3.56793        10.43475         2.60876
| 50>    C       -1.99762         9.25281         3.89632
| 51>    F       -3.45030        14.67421        -0.06576
| 52>    F       -1.27353        16.23404         0.36413
| 53>    N       -4.67749        10.49118         2.32068
| 54>    N       -1.86471         8.42820         4.68399
| 55>    C       -0.82129        -6.25553         0.33974
| 56>    C        0.38343        -6.69805         0.80403
| 57>    C        1.67713        -6.05997         0.89252
| 58>    C        2.46114        -6.81084         1.87240
| 59>    C        1.77615        -8.00036         2.17933
| 60>    C        0.48064        -8.02587         1.45886
| 61>    C        3.69018        -6.54362         2.45176
| 62>    C        4.20929        -7.48167         3.33189
| 63>    C        3.53080        -8.66577         3.62294
| 64>    C        2.30043        -8.93880         3.04614
| 65>    O       -0.34266        -8.91089         1.44571
| 66>    C        2.18191        -5.13298         0.01854
| 67>    C        3.48390        -4.60125         0.10081
| 68>    C        1.47655        -4.69260        -1.12137
| 69>    F        5.38785        -7.24028         3.91651
| 70>    F        4.07358        -9.54654         4.47231
| 71>    N        4.52731        -4.12483         0.14057
| 72>    N        0.95394        -4.36329        -2.08869
| 73>    C       -1.64503        -2.46448         0.05170
| 74>    S       -0.47979        -3.52626         0.77842
| 75>    C       -1.24724        -4.93439         0.09371
| 76>    C       -2.36854        -4.56687        -0.62935
| 77>    C       -2.59285        -3.19093        -0.67688
| 78>    S       -3.93277        -2.42393        -1.50507
| 79>    C       -5.04163        -3.83431        -1.86795
| 80>    C       -6.37944        -3.29461        -2.35006
| 81>    C       -7.34201        -4.43255        -2.66669
| 82>    H       -2.85351        -0.21181        -1.24243
| 83>    H        0.86805         2.15504         3.11761
| 84>    H       -1.52150         5.45690         0.20594
| 85>    H        2.14130         7.85495         4.59200
| 86>    H       -2.03189         4.06696        -1.88631
| 87>    H       -2.54878         2.45012        -2.37797
| 88>    H        0.28901         3.21308        -1.52865
| 89>    H       -0.25666         2.96651        -3.18862
| 90>    H       -0.22396         1.61125        -2.06202
| 91>    H       -3.78294         2.46018         1.09879
| 92>    H       -4.20897         2.18637        -0.59021
| 93>    H       -3.68546         4.89407         0.72518
| 94>    H       -5.23305         4.24610         0.20140
| 95>    H       -4.02019         4.67092        -0.99891
| 96>    H        1.72042         5.18792         5.76316
| 97>    H        1.24140         3.56450         5.25663
| 98>    H       -0.59565         6.01066         5.29066
| 99>    H       -0.60936         4.67765         6.44259
|100>    H       -1.05881         4.39382         4.76099
|101>    H        3.49191         5.40212         4.09272
|102>    H        3.17037         5.16755         2.37479
|103>    H        3.24088         2.90844         4.43177
|104>    H        4.54777         3.35238         3.34216
|105>    H        3.04120         2.73219         2.68191
|106>    H        1.90955        10.35376         3.80599
|107>    H       -3.39271        12.31697         0.96062
|108>    H        0.64489        15.13565         1.75320
|109>    H       -1.58135        -7.02239         0.22386
|110>    H        4.24629        -5.64117         2.25606
|111>    H        1.77689        -9.85431         3.27082
|112>    H       -2.97119        -5.29917        -1.13404
|113>    H       -5.16341        -4.40682        -0.94817
|114>    H       -4.57258        -4.44852        -2.63725
|115>    H       -6.22129        -2.68450        -3.24155
|116>    H       -6.80658        -2.65213        -1.57739
|117>    H       -6.93816        -5.06969        -3.45006
|118>    H       -8.29470        -4.03462        -3.00498
|119>    H       -7.51871        -5.04241        -1.78360
|120> *
|121> 
|122>                          ****END OF INPUT****
================================================================================

                       ****************************
                       * Single Point Calculation *
                       ****************************

---------------------------------
CARTESIAN COORDINATES (ANGSTROEM)
---------------------------------
  C     -1.534260   -1.068700    0.248030
  C     -2.172700   -0.040590   -0.430940
  C     -1.787570    1.209610    0.033950
  C     -2.138970    2.640440   -0.276570
  C     -1.224530    3.376100    0.684950
  C     -0.509830    2.464550    1.502470
  C     -0.872600    1.152360    1.075210
  S     -0.445440   -0.457640    1.483340
  C      0.374430    2.883830    2.494550
  C      0.567790    4.237670    2.644250
  C      1.441800    4.976040    3.641400
  C      1.103790    6.407040    3.315860
  C      0.211560    6.458810    2.250550
  C     -0.135710    5.147120    1.816060
  C     -1.023650    4.728310    0.826230
  S     -0.225890    8.056570    1.829040
  C      0.805390    8.686150    3.108570
  C      1.466530    7.660150    3.778010
  C     -1.853200    3.001090   -1.742030
  C     -0.421730    2.676670   -2.153850
  C     -3.632950    2.827920    0.080430
  C     -4.165660    4.251440   -0.007290
  C      1.066270    4.628240    5.091610
  C     -0.389110    4.950250    5.413430
  C      2.952510    4.781200    3.373990
  C      3.467210    3.351310    3.466010
  C      0.972790   10.064930    3.338450
  C      0.164280   11.101890    2.968020
  C     -1.219130   11.142580    2.554350
  C     -1.428530   12.420620    1.874420
  C     -0.295910   13.228810    2.078730
  C      0.721080   12.470380    2.847150
  C     -2.508000   12.902050    1.152800
  C     -2.426980   14.191560    0.648230
  C     -1.305050   14.992500    0.863880
  C     -0.221950   14.516490    1.585990
  O      1.792190   12.864310    3.246000
  C     -2.214520   10.298490    2.974810
  C     -3.567930   10.434750    2.608760
  C     -1.997620    9.252810    3.896320
  F     -3.450300   14.674210   -0.065760
  F     -1.273530   16.234040    0.364130
  N     -4.677490   10.491180    2.320680
  N     -1.864710    8.428200    4.683990
  C     -0.821290   -6.255530    0.339740
  C      0.383430   -6.698050    0.804030
  C      1.677130   -6.059970    0.892520
  C      2.461140   -6.810840    1.872400
  C      1.776150   -8.000360    2.179330
  C      0.480640   -8.025870    1.458860
  C      3.690180   -6.543620    2.451760
  C      4.209290   -7.481670    3.331890
  C      3.530800   -8.665770    3.622940
  C      2.300430   -8.938800    3.046140
  O     -0.342660   -8.910890    1.445710
  C      2.181910   -5.132980    0.018540
  C      3.483900   -4.601250    0.100810
  C      1.476550   -4.692600   -1.121370
  F      5.387850   -7.240280    3.916510
  F      4.073580   -9.546540    4.472310
  N      4.527310   -4.124830    0.140570
  N      0.953940   -4.363290   -2.088690
  C     -1.645030   -2.464480    0.051700
  S     -0.479790   -3.526260    0.778420
  C     -1.247240   -4.934390    0.093710
  C     -2.368540   -4.566870   -0.629350
  C     -2.592850   -3.190930   -0.676880
  S     -3.932770   -2.423930   -1.505070
  C     -5.041630   -3.834310   -1.867950
  C     -6.379440   -3.294610   -2.350060
  C     -7.342010   -4.432550   -2.666690
  H     -2.853510   -0.211810   -1.242430
  H      0.868050    2.155040    3.117610
  H     -1.521500    5.456900    0.205940
  H      2.141300    7.854950    4.592000
  H     -2.031890    4.066960   -1.886310
  H     -2.548780    2.450120   -2.377970
  H      0.289010    3.213080   -1.528650
  H     -0.256660    2.966510   -3.188620
  H     -0.223960    1.611250   -2.062020
  H     -3.782940    2.460180    1.098790
  H     -4.208970    2.186370   -0.590210
  H     -3.685460    4.894070    0.725180
  H     -5.233050    4.246100    0.201400
  H     -4.020190    4.670920   -0.998910
  H      1.720420    5.187920    5.763160
  H      1.241400    3.564500    5.256630
  H     -0.595650    6.010660    5.290660
  H     -0.609360    4.677650    6.442590
  H     -1.058810    4.393820    4.760990
  H      3.491910    5.402120    4.092720
  H      3.170370    5.167550    2.374790
  H      3.240880    2.908440    4.431770
  H      4.547770    3.352380    3.342160
  H      3.041200    2.732190    2.681910
  H      1.909550   10.353760    3.805990
  H     -3.392710   12.316970    0.960620
  H      0.644890   15.135650    1.753200
  H     -1.581350   -7.022390    0.223860
  H      4.246290   -5.641170    2.256060
  H      1.776890   -9.854310    3.270820
  H     -2.971190   -5.299170   -1.134040
  H     -5.163410   -4.406820   -0.948170
  H     -4.572580   -4.448520   -2.637250
  H     -6.221290   -2.684500   -3.241550
  H     -6.806580   -2.652130   -1.577390
  H     -6.938160   -5.069690   -3.450060
  H     -8.294700   -4.034620   -3.004980
  H     -7.518710   -5.042410   -1.783600

----------------------------
CARTESIAN COORDINATES (A.U.)
----------------------------
  NO LB      ZA    FRAG     MASS         X           Y           Z
   0 C     6.0000    0    12.011   -2.899331   -2.019550    0.468709
   1 C     6.0000    0    12.011   -4.105808   -0.076704   -0.814359
   2 C     6.0000    0    12.011   -3.378018    2.285832    0.064156
   3 C     6.0000    0    12.011   -4.042068    4.989708   -0.522642
   4 C     6.0000    0    12.011   -2.314026    6.379904    1.294368
   5 C     6.0000    0    12.011   -0.963439    4.657325    2.839257
   6 C     6.0000    0    12.011   -1.648975    2.177645    2.031852
   7 S    16.0000    0    32.060   -0.841760   -0.864814    2.803106
   8 C     6.0000    0    12.011    0.707570    5.449649    4.714016
   9 C     6.0000    0    12.011    1.072968    8.008036    4.996908
  10 C     6.0000    0    12.011    2.724607    9.403353    6.881249
  11 C     6.0000    0    12.011    2.085861   12.107551    6.266067
  12 C     6.0000    0    12.011    0.399790   12.205382    4.252923
  13 C     6.0000    0    12.011   -0.256455    9.726647    3.431856
  14 C     6.0000    0    12.011   -1.934418    8.935211    1.561348
  15 S    16.0000    0    32.060   -0.426870   15.224711    3.456385
  16 C     6.0000    0    12.011    1.521967   16.414445    5.874346
  17 C     6.0000    0    12.011    2.771340   14.475586    7.139404
  18 C     6.0000    0    12.011   -3.502040    5.671238   -3.291960
  19 C     6.0000    0    12.011   -0.796954    5.058173   -4.070187
  20 C     6.0000    0    12.011   -6.865281    5.343994    0.151991
  21 C     6.0000    0    12.011   -7.871957    8.034057   -0.013776
  22 C     6.0000    0    12.011    2.014958    8.746106    9.621748
  23 C     6.0000    0    12.011   -0.735311    9.354617   10.229900
  24 C     6.0000    0    12.011    5.579435    9.035159    6.375917
  25 C     6.0000    0    12.011    6.552077    6.333058    6.549810
  26 C     6.0000    0    12.011    1.838307   19.019961    6.308756
  27 C     6.0000    0    12.011    0.310444   20.979532    5.608745
  28 C     6.0000    0    12.011   -2.303822   21.056425    4.827022
  29 C     6.0000    0    12.011   -2.699530   23.471570    3.542140
  30 C     6.0000    0    12.011   -0.559189   24.998828    3.928230
  31 C     6.0000    0    12.011    1.362644   23.565603    5.380334
  32 C     6.0000    0    12.011   -4.739433   24.381341    2.178476
  33 C     6.0000    0    12.011   -4.586328   26.818162    1.224977
  34 C     6.0000    0    12.011   -2.466187   28.331719    1.632497
  35 C     6.0000    0    12.011   -0.419425   27.432191    2.997087
  36 O     8.0000    0    15.999    3.386748   24.310023    6.134051
  37 C     6.0000    0    12.011   -4.184836   19.461326    5.621576
  38 C     6.0000    0    12.011   -6.742411   19.718820    4.929842
  39 C     6.0000    0    12.011   -3.774955   17.485277    7.362978
  40 F     9.0000    0    18.998   -6.520122   27.730238   -0.124268
  41 F     9.0000    0    18.998   -2.406623   30.677890    0.688106
  42 N     7.0000    0    14.007   -8.839175   19.825457    4.385450
  43 N     7.0000    0    14.007   -3.523791   15.926990    8.851458
  44 C     6.0000    0    12.011   -1.552013  -11.821239    0.642016
  45 C     6.0000    0    12.011    0.724578  -12.657480    1.519397
  46 C     6.0000    0    12.011    3.169316  -11.451684    1.686618
  47 C     6.0000    0    12.011    4.650881  -12.870622    3.538323
  48 C     6.0000    0    12.011    3.356437  -15.118489    4.118337
  49 C     6.0000    0    12.011    0.908278  -15.166696    2.756846
  50 C     6.0000    0    12.011    6.973430  -12.365650    4.633155
  51 C     6.0000    0    12.011    7.954405  -14.138307    6.296360
  52 C     6.0000    0    12.011    6.672245  -16.375932    6.846364
  53 C     6.0000    0    12.011    4.347183  -16.891884    5.756370
  54 O     8.0000    0    15.999   -0.647534  -16.839142    2.731996
  55 C     6.0000    0    12.011    4.123212   -9.699926    0.035036
  56 C     6.0000    0    12.011    6.583617   -8.695102    0.190503
  57 C     6.0000    0    12.011    2.790275   -8.867729   -2.119082
  58 F     9.0000    0    18.998   10.181561  -13.682146    7.401131
  59 F     9.0000    0    18.998    7.697951  -18.040346    8.451441
  60 N     7.0000    0    14.007    8.555376   -7.794799    0.265639
  61 N     7.0000    0    14.007    1.802685   -8.245423   -3.947052
  62 C     6.0000    0    12.011   -3.108656   -4.657192    0.097699
  63 S    16.0000    0    32.060   -0.906672   -6.663666    1.471001
  64 C     6.0000    0    12.011   -2.356942   -9.324646    0.177086
  65 C     6.0000    0    12.011   -4.475892   -8.630134   -1.189299
  66 C     6.0000    0    12.011   -4.899776   -6.029984   -1.279118
  67 S    16.0000    0    32.060   -7.431858   -4.580564   -2.844170
  68 C     6.0000    0    12.011   -9.527300   -7.245796   -3.529914
  69 C     6.0000    0    12.011  -12.055394   -6.225911   -4.440970
  70 C     6.0000    0    12.011  -13.874388   -8.376306   -5.039314
  71 H     1.0000    0     1.008   -5.392352   -0.400263   -2.347852
  72 H     1.0000    0     1.008    1.640377    4.072435    5.891429
  73 H     1.0000    0     1.008   -2.875218   10.312047    0.389170
  74 H     1.0000    0     1.008    4.046471   14.843704    8.677622
  75 H     1.0000    0     1.008   -3.839716    7.685441   -3.564609
  76 H     1.0000    0     1.008   -4.816496    4.630056   -4.493712
  77 H     1.0000    0     1.008    0.546150    6.071841   -2.888730
  78 H     1.0000    0     1.008   -0.485017    5.605891   -6.025619
  79 H     1.0000    0     1.008   -0.423223    3.044821   -3.896653
  80 H     1.0000    0     1.008   -7.148721    4.649066    2.076412
  81 H     1.0000    0     1.008   -7.953801    4.131641   -1.115335
  82 H     1.0000    0     1.008   -6.964510    9.248452    1.370392
  83 H     1.0000    0     1.008   -9.889031    8.023966    0.380591
  84 H     1.0000    0     1.008   -7.597058    8.826760   -1.887666
  85 H     1.0000    0     1.008    3.251123    9.803748   10.890794
  86 H     1.0000    0     1.008    2.345906    6.735929    9.933591
  87 H     1.0000    0     1.008   -1.125615   11.358501    9.997898
  88 H     1.0000    0     1.008   -1.151524    8.839477   12.174731
  89 H     1.0000    0     1.008   -2.000861    8.303116    8.996967
  90 H     1.0000    0     1.008    6.598754   10.208527    7.734120
  91 H     1.0000    0     1.008    5.991131    9.765254    4.487703
  92 H     1.0000    0     1.008    6.124376    5.496155    8.374832
  93 H     1.0000    0     1.008    8.594040    6.335080    6.315767
  94 H     1.0000    0     1.008    5.747035    5.163091    5.068075
  95 H     1.0000    0     1.008    3.608527   19.565771    7.192279
  96 H     1.0000    0     1.008   -6.411293   23.275700    1.815309
  97 H     1.0000    0     1.008    1.218665   28.602233    3.313068
  98 H     1.0000    0     1.008   -2.988318  -13.270394    0.423034
  99 H     1.0000    0     1.008    8.024325  -10.660266    4.263336
 100 H     1.0000    0     1.008    3.357835  -18.621947    6.180954
 101 H     1.0000    0     1.008   -5.614735  -10.013980   -2.143025
 102 H     1.0000    0     1.008   -9.757431   -8.327683   -1.791782
 103 H     1.0000    0     1.008   -8.640924   -8.406485   -4.983680
 104 H     1.0000    0     1.008  -11.756534   -5.072970   -6.125642
 105 H     1.0000    0     1.008  -12.862572   -5.011799   -2.980835
 106 H     1.0000    0     1.008  -13.111222   -9.580326   -6.519669
 107 H     1.0000    0     1.008  -15.674711   -7.624327   -5.678589
 108 H     1.0000    0     1.008  -14.208303   -9.528774   -3.370516

--------------------------------
INTERNAL COORDINATES (ANGSTROEM)
--------------------------------
 C      0   0   0     0.000000000000     0.00000000     0.00000000
 C      1   0   0     1.387665689783     0.00000000     0.00000000
 C      2   1   0     1.388325563043   112.06810947     0.00000000
 C      3   2   1     1.505715484180   136.21374066   181.38341911
 C      4   3   2     1.517206927087   100.91823348   181.14862344
 C      5   4   3     1.417765298948   110.94740428   356.45556307
 C      3   2   1     1.387324782090   113.39837133   359.20761103
 S      7   3   2     1.714973983039   112.43459522     1.07140615
 C      6   5   4     1.393532989348   122.47548271   181.62672307
 C      9   6   5     1.375747406031   117.56376031   358.39740309
 C     10   9   6     1.517692939794   129.13818395   178.91872277
 C     11  10   9     1.505984080826   101.01159445   184.04565909
 C     12  11  10     1.390553811221   110.18133354   357.78095762
 C     10   9   6     1.417007490665   119.88192641     0.83628353
 C      5   4   3     1.374330635946   129.07356278   175.83556967
 S     13  12  11     1.709347887412   112.82509086   179.67711115
 C     16  13  12     1.759859777283    90.29426165   359.91659858
 C     12  11  10     1.383996966109   136.83091055   179.38643597
 C      4   3   2     1.536003231442   112.11439917   300.79492506
 C     19   4   3     1.524450855128   112.48670716   306.53969581
 C      4   3   2     1.547441110608   107.02965319    63.72436503
 C     21   4   3     1.522459829651   115.96368155   173.33170259
 C     11  10   9     1.537887078104   111.64851579   302.47827511
 C     23  11  10     1.524922783914   112.60044205   301.62942076
 C     11  10   9     1.546517196089   112.80823836    69.51791655
 C     25  11  10     1.522487826717   115.98339860   298.26161934
 C     17  16  13     1.407800363262   122.60015079   178.12139113
 C     27  17  16     1.366086690734   128.95960484    21.09417057
 C     28  27  17     1.444507449998   131.74732602    18.01160781
 C     29  28  27     1.462716447744   107.14758268   198.08689072
 C     30  29  28     1.406322052945   108.62047456   349.67591729
 C     28  27  17     1.482363206842   120.03746646   202.75626183
 C     30  29  28     1.384834195924   131.11451356   171.32446282
 C     33  30  29     1.387080086152   117.85352893   178.21928329
 C     34  33  30     1.395255077396   121.62859243   359.42622274
 C     31  30  29     1.380718136189   121.82009722   182.00347667
 O     32  28  27     1.208941189430   127.35180894   346.87335119
 C     29  28  27     1.371158558227   126.16317109    31.47940520
 C     38  29  28     1.408644035305   123.93486520   175.62643066
 C     38  29  28     1.410557674291   123.02899201     0.07740414
 F     34  33  30     1.337877634539   119.00170450   179.22279763
 F     35  34  33     1.338717723981   119.57814874   180.37140777
 N     39  38  29     1.147735956089   177.20668653   156.15110830
 N     40  38  29     1.148072623618   176.83476786   121.62115475
 C      1   2   3     5.236405484099   143.61892991   186.76567175
 C     45   1   2     1.364822125004   116.57093223   148.56832713
 C     46  45   1     1.445211491962   131.89989774   337.07140536
 C     47  46  45     1.462409741283   107.11181375   160.63850622
 C     48  47  46     1.406547246060   108.62373693    10.70039226
 C     49  48  47     1.482590280927   109.51526353   356.93325828
 C     48  47  46     1.384775743433   131.07667230   188.80376179
 C     51  48  47     1.387098342404   117.84750616   182.10444129
 C     52  51  48     1.395403738206   121.61698200     0.58207867
 C     49  48  47     1.380905039494   121.78979729   177.70145915
 O     50  49  48     1.208824310187   127.80800390   177.04748714
 C     47  46  45     1.370384744844   126.11032233   327.07277255
 C     56  47  46     1.408787814364   123.95194355   184.16366607
 C     56  47  46     1.410979121780   122.83512902   359.06155498
 F     52  51  48     1.337554989561   119.01521426   180.74783639
 F     53  52  51     1.338579589789   119.57334525   179.58702361
 N     57  56  47     1.147720045177   177.30616665   203.72500532
 N     58  56  47     1.147725694842   176.44880286   244.14543325
 C      1   2   3     1.413866072229   128.86047366   181.11313314
 S     63   1   2     1.735881039818   119.54571418   166.05737180
 C     45   1   2     1.409742906703    13.47467744   349.28084478
 C     65  45  46     1.383907657324   125.79391858   165.76169749
 C     66  65  45     1.394913961720   114.20789850   177.52799905
 S     67  66  65     1.752019772291   124.81401396   180.37668267
 C     68  67  66     1.830416383886   102.69130774    12.71737977
 C     69  68  67     1.521000242669   108.80003789   169.16122996
 C     70  69  68     1.523713557530   110.88611323   180.00315824
 H      2   1   3     1.073002593007   122.93808659   177.87279634
 H      9   6   5     1.078424467499   119.89601265   177.67460506
 H     15   5   4     1.078636961494   122.54900359   358.70812256
 H     18  12  11     1.075100605990   125.54771794   358.23756949
 H     19   4   3     1.090332835147   108.98305024   185.49425703
 H     19   4   3     1.091704704075   108.58596483    67.87341972
 H     20  19   4     1.088008306816   110.68642005   301.06593622
 H     20  19   4     1.087200203918   110.05678891   181.21255991
 H     20  19   4     1.087504252038   110.88191088    61.41193141
 H     21   4   3     1.093063034459   107.85779166    51.25220372
 H     21   4   3     1.092311060321   107.23671539   295.64405893
 H     22  21   4     1.086313793432   111.07584484   295.18353682
 H     22  21   4     1.087612726939   109.13218187   176.34537113
 H     22  21   4     1.086478354916   111.51462681    57.15853238
 H     23  11  10     1.091848582634   108.52806737   180.24436034
 H     23  11  10     1.090616754364   108.90819127    62.78180890
 H     24  23  11     1.087290491359   111.30979438   299.25438604
 H     24  23  11     1.087194153820   109.88753761   179.36528532
 H     24  23  11     1.088021318036   110.66517207    59.75236390
 H     25  11  10     1.092275981289   107.27757338   176.07007264
 H     25  11  10     1.093219987971   107.94987065    60.39069800
 H     26  25  11     1.086301746017   111.48075445   303.88130016
 H     26  25  11     1.087634994380   109.15104554   184.68780943
 H     26  25  11     1.086097097179   111.04702895    65.80421152
 H     27  17  16     1.086064325029   115.67823474   206.39241670
 H     33  30  29     1.077944127912   122.95428490   357.49028962
 H     36  31  30     1.078299529491   121.54921156   179.41342604
 H     45   1   2     1.085906827311   127.03754882   315.19931485
 H     51  48  47     1.077948433182   122.92047012     2.81253115
 H     54  49  48     1.078301346610   121.56354318   180.65516420
 H     66  65  45     1.074319463009   121.26113146   355.10823202
 H     69  68  67     1.090226268671   107.76044343    48.93816382
 H     69  68  67     1.090451427896   108.25766416   289.60741169
 H     70  69  68     1.091787550167   109.25038974    58.81986330
 H     70  69  68     1.091901121393   109.18140374   301.15559748
 H     71  70  69     1.087525061320   110.64814000   299.60450140
 H     71  70  69     1.086465206576   110.18875786   179.71902946
 H     71  70  69     1.087658061019   110.65014686    59.84746378

---------------------------
INTERNAL COORDINATES (A.U.)
---------------------------
 C      0   0   0     0.000000000000     0.00000000     0.00000000
 C      1   0   0     2.622308119128     0.00000000     0.00000000
 C      2   1   0     2.623555098874   112.06810947     0.00000000
 C      3   2   1     2.845389900705   136.21374066   181.38341911
 C      4   3   2     2.867105580682   100.91823348   181.14862344
 C      5   4   3     2.679188137188   110.94740428   356.45556307
 C      3   2   1     2.621663896951   113.39837133   359.20761103
 S      7   3   2     3.240831154743   112.43459522     1.07140615
 C      6   5   4     2.633395708452   122.47548271   181.62672307
 C      9   6   5     2.599785826850   117.56376031   358.39740309
 C     10   9   6     2.868024011596   129.13818395   178.91872277
 C     11  10   9     2.845897474805   101.01159445   184.04565909
 C     12  11  10     2.627765877687   110.18133354   357.78095762
 C     10   9   6     2.677756087071   119.88192641     0.83628353
 C      5   4   3     2.597108519396   129.07356278   175.83556967
 S     13  12  11     3.230199374806   112.82509086   179.67711115
 C     16  13  12     3.325653013169    90.29426165   359.91659858
 C     12  11  10     2.615375236125   136.83091055   179.38643597
 C      4   3   2     2.902625448243   112.11439917   300.79492506
 C     19   4   3     2.880794620814   112.48670716   306.53969581
 C      4   3   2     2.924239907420   107.02965319    63.72436503
 C     21   4   3     2.877032127936   115.96368155   173.33170259
 C     11  10   9     2.906185402513   111.64851579   302.47827511
 C     23  11  10     2.881686436974   112.60044205   301.62942076
 C     11  10   9     2.922493962009   112.80823836    69.51791655
 C     25  11  10     2.877085034723   115.98339860   298.26161934
 C     17  16  13     2.660357137800   122.60015079   178.12139113
 C     27  17  16     2.581529720682   128.95960484    21.09417057
 C     28  27  17     2.729723478905   131.74732602    18.01160781
 C     29  28  27     2.764133497818   107.14758268   198.08689072
 C     30  29  28     2.657563536160   108.62047456   349.67591729
 C     28  27  17     2.801260491933   120.03746646   202.75626183
 C     30  29  28     2.616957371185   131.11451356   171.32446282
 C     33  30  29     2.621201488644   117.85352893   178.21928329
 C     34  33  30     2.636649983242   121.62859243   359.42622274
 C     31  30  29     2.609179145535   121.82009722   182.00347667
 O     32  28  27     2.284567760039   127.35180894   346.87335119
 C     29  28  27     2.591114161232   126.16317109    31.47940520
 C     38  29  28     2.661951446908   123.93486520   175.62643066
 C     38  29  28     2.665567700510   123.02899201     0.07740414
 F     34  33  30     2.528222329977   119.00170450   179.22279763
 F     35  34  33     2.529809868950   119.57814874   180.37140777
 N     39  38  29     2.168906631063   177.20668653   156.15110830
 N     40  38  29     2.169542840490   176.83476786   121.62115475
 C      1   2   3     9.895372291110   143.61892991   186.76567175
 C     45   1   2     2.579140037774   116.57093223   148.56832713
 C     46  45   1     2.731053925405   131.89989774   337.07140536
 C     47  46  45     2.763553906604   107.11181375   160.63850622
 C     48  47  46     2.657989089475   108.62373693    10.70039226
 C     49  48  47     2.801689599766   109.51526353   356.93325828
 C     48  47  46     2.616846911985   131.07667230   188.80376179
 C     51  48  47     2.621235987960   117.84750616   182.10444129
 C     52  51  48     2.636930911460   121.61698200     0.58207867
 C     49  48  47     2.609532341595   121.78979729   177.70145915
 O     50  49  48     2.284346890280   127.80800390   177.04748714
 C     47  46  45     2.589651865858   126.11032233   327.07277255
 C     56  47  46     2.662223149953   123.95194355   184.16366607
 C     56  47  46     2.666364120846   122.83512902   359.06155498
 F     52  51  48     2.527612619331   119.01521426   180.74783639
 F     53  52  51     2.529548833158   119.57334525   179.58702361
 N     57  56  47     2.168876563795   177.30616665   203.72500532
 N     58  56  47     2.168887240115   176.44880286   244.14543325
 C      1   2   3     2.671819666556   128.86047366   181.11313314
 S     63   1   2     3.280339766323   119.54571418   166.05737180
 C     45   1   2     2.664028012907    13.47467744   349.28084478
 C     65  45  46     2.615206466979   125.79391858   165.76169749
 C     66  65  45     2.636005368033   114.20789850   177.52799905
 S     67  66  65     3.310837550846   124.81401396   180.37668267
 C     68  67  66     3.458985676588   102.69130774    12.71737977
 C     69  68  67     2.874273908273   108.80003789   169.16122996
 C     70  69  68     2.879401330274   110.88611323   180.00315824
 H      2   1   3     2.027681041771   122.93808659   177.87279634
 H      9   6   5     2.037926899693   119.89601265   177.67460506
 H     15   5   4     2.038328455148   122.54900359   358.70812256
 H     18  12  11     2.031645711734   125.54771794   358.23756949
 H     19   4   3     2.060430453250   108.98305024   185.49425703
 H     19   4   3     2.063022909816   108.58596483    67.87341972
 H     20  19   4     2.056037731313   110.68642005   301.06593622
 H     20  19   4     2.054510638149   110.05678891   181.21255991
 H     20  19   4     2.055085205826   110.88191088    61.41193141
 H     21   4   3     2.065589782240   107.85779166    51.25220372
 H     21   4   3     2.064168757060   107.23671539   295.64405893
 H     22  21   4     2.052835565087   111.07584484   295.18353682
 H     22  21   4     2.055290193682   109.13218187   176.34537113
 H     22  21   4     2.053146541224   111.51462681    57.15853238
 H     23  11  10     2.063294800888   108.52806737   180.24436034
 H     23  11  10     2.060966982814   108.90819127    62.78180890
 H     24  23  11     2.054681256685   111.30979438   299.25438604
 H     24  23  11     2.054499205120   109.88753761   179.36528532
 H     24  23  11     2.056062318955   110.66517207    59.75236390
 H     25  11  10     2.064102467296   107.27757338   176.07007264
 H     25  11  10     2.065886381394   107.94987065    60.39069800
 H     26  25  11     2.052812798773   111.48075445   303.88130016
 H     26  25  11     2.055332273047   109.15104554   184.68780943
 H     26  25  11     2.052426068515   111.04702895    65.80421152
 H     27  17  16     2.052364138126   115.67823474   206.39241670
 H     33  30  29     2.037019189422   122.95428490   357.49028962
 H     36  31  30     2.037690801074   121.54921156   179.41342604
 H     45   1   2     2.052066510573   127.03754882   315.19931485
 H     51  48  47     2.037027325204   122.92047012     2.81253115
 H     54  49  48     2.037694234931   121.56354318   180.65516420
 H     66  65  45     2.030169565428   121.26113146   355.10823202
 H     69  68  67     2.060229071795   107.76044343    48.93816382
 H     69  68  67     2.060654561066   108.25766416   289.60741169
 H     70  69  68     2.063179466241   109.25038974    58.81986330
 H     70  69  68     2.063394084755   109.18140374   301.15559748
 H     71  70  69     2.055124529672   110.64814000   299.60450140
 H     71  70  69     2.053121694463   110.18875786   179.71902946
 H     71  70  69     2.055375862678   110.65014686    59.84746378

---------------------
BASIS SET INFORMATION
---------------------
There are 6 groups of distinct atoms

 Group   1 Type C   : 7s4p1d contracted to 3s2p1d pattern {511/31/1}
 Group   2 Type S   : 10s7p1d contracted to 4s3p1d pattern {5311/511/1}
 Group   3 Type O   : 7s4p1d contracted to 3s2p1d pattern {511/31/1}
 Group   4 Type F   : 7s4p1d contracted to 3s2p1d pattern {511/31/1}
 Group   5 Type N   : 7s4p1d contracted to 3s2p1d pattern {511/31/1}
 Group   6 Type H   : 4s1p contracted to 2s1p pattern {31/1}

Atom   0C    basis set group =>   1
Atom   1C    basis set group =>   1
Atom   2C    basis set group =>   1
Atom   3C    basis set group =>   1
Atom   4C    basis set group =>   1
Atom   5C    basis set group =>   1
Atom   6C    basis set group =>   1
Atom   7S    basis set group =>   2
Atom   8C    basis set group =>   1
Atom   9C    basis set group =>   1
Atom  10C    basis set group =>   1
Atom  11C    basis set group =>   1
Atom  12C    basis set group =>   1
Atom  13C    basis set group =>   1
Atom  14C    basis set group =>   1
Atom  15S    basis set group =>   2
Atom  16C    basis set group =>   1
Atom  17C    basis set group =>   1
Atom  18C    basis set group =>   1
Atom  19C    basis set group =>   1
Atom  20C    basis set group =>   1
Atom  21C    basis set group =>   1
Atom  22C    basis set group =>   1
Atom  23C    basis set group =>   1
Atom  24C    basis set group =>   1
Atom  25C    basis set group =>   1
Atom  26C    basis set group =>   1
Atom  27C    basis set group =>   1
Atom  28C    basis set group =>   1
Atom  29C    basis set group =>   1
Atom  30C    basis set group =>   1
Atom  31C    basis set group =>   1
Atom  32C    basis set group =>   1
Atom  33C    basis set group =>   1
Atom  34C    basis set group =>   1
Atom  35C    basis set group =>   1
Atom  36O    basis set group =>   3
Atom  37C    basis set group =>   1
Atom  38C    basis set group =>   1
Atom  39C    basis set group =>   1
Atom  40F    basis set group =>   4
Atom  41F    basis set group =>   4
Atom  42N    basis set group =>   5
Atom  43N    basis set group =>   5
Atom  44C    basis set group =>   1
Atom  45C    basis set group =>   1
Atom  46C    basis set group =>   1
Atom  47C    basis set group =>   1
Atom  48C    basis set group =>   1
Atom  49C    basis set group =>   1
Atom  50C    basis set group =>   1
Atom  51C    basis set group =>   1
Atom  52C    basis set group =>   1
Atom  53C    basis set group =>   1
Atom  54O    basis set group =>   3
Atom  55C    basis set group =>   1
Atom  56C    basis set group =>   1
Atom  57C    basis set group =>   1
Atom  58F    basis set group =>   4
Atom  59F    basis set group =>   4
Atom  60N    basis set group =>   5
Atom  61N    basis set group =>   5
Atom  62C    basis set group =>   1
Atom  63S    basis set group =>   2
Atom  64C    basis set group =>   1
Atom  65C    basis set group =>   1
Atom  66C    basis set group =>   1
Atom  67S    basis set group =>   2
Atom  68C    basis set group =>   1
Atom  69C    basis set group =>   1
Atom  70C    basis set group =>   1
Atom  71H    basis set group =>   6
Atom  72H    basis set group =>   6
Atom  73H    basis set group =>   6
Atom  74H    basis set group =>   6
Atom  75H    basis set group =>   6
Atom  76H    basis set group =>   6
Atom  77H    basis set group =>   6
Atom  78H    basis set group =>   6
Atom  79H    basis set group =>   6
Atom  80H    basis set group =>   6
Atom  81H    basis set group =>   6
Atom  82H    basis set group =>   6
Atom  83H    basis set group =>   6
Atom  84H    basis set group =>   6
Atom  85H    basis set group =>   6
Atom  86H    basis set group =>   6
Atom  87H    basis set group =>   6
Atom  88H    basis set group =>   6
Atom  89H    basis set group =>   6
Atom  90H    basis set group =>   6
Atom  91H    basis set group =>   6
Atom  92H    basis set group =>   6
Atom  93H    basis set group =>   6
Atom  94H    basis set group =>   6
Atom  95H    basis set group =>   6
Atom  96H    basis set group =>   6
Atom  97H    basis set group =>   6
Atom  98H    basis set group =>   6
Atom  99H    basis set group =>   6
Atom 100H    basis set group =>   6
Atom 101H    basis set group =>   6
Atom 102H    basis set group =>   6
Atom 103H    basis set group =>   6
Atom 104H    basis set group =>   6
Atom 105H    basis set group =>   6
Atom 106H    basis set group =>   6
Atom 107H    basis set group =>   6
Atom 108H    basis set group =>   6
---------------------------------
AUXILIARY/J BASIS SET INFORMATION
---------------------------------
There are 6 groups of distinct atoms

 Group   1 Type C   : 12s5p4d2f1g contracted to 6s4p3d1f1g pattern {711111/2111/211/2/1}
 Group   2 Type S   : 14s5p5d2f1g contracted to 8s4p3d1f1g pattern {71111111/2111/311/2/1}
 Group   3 Type O   : 12s5p4d2f1g contracted to 6s4p3d1f1g pattern {711111/2111/211/2/1}
 Group   4 Type F   : 12s5p4d2f1g contracted to 6s4p3d1f1g pattern {711111/2111/211/2/1}
 Group   5 Type N   : 12s5p4d2f1g contracted to 6s4p3d1f1g pattern {711111/2111/211/2/1}
 Group   6 Type H   : 5s2p1d contracted to 3s1p1d pattern {311/2/1}

Atom   0C    basis set group =>   1
Atom   1C    basis set group =>   1
Atom   2C    basis set group =>   1
Atom   3C    basis set group =>   1
Atom   4C    basis set group =>   1
Atom   5C    basis set group =>   1
Atom   6C    basis set group =>   1
Atom   7S    basis set group =>   2
Atom   8C    basis set group =>   1
Atom   9C    basis set group =>   1
Atom  10C    basis set group =>   1
Atom  11C    basis set group =>   1
Atom  12C    basis set group =>   1
Atom  13C    basis set group =>   1
Atom  14C    basis set group =>   1
Atom  15S    basis set group =>   2
Atom  16C    basis set group =>   1
Atom  17C    basis set group =>   1
Atom  18C    basis set group =>   1
Atom  19C    basis set group =>   1
Atom  20C    basis set group =>   1
Atom  21C    basis set group =>   1
Atom  22C    basis set group =>   1
Atom  23C    basis set group =>   1
Atom  24C    basis set group =>   1
Atom  25C    basis set group =>   1
Atom  26C    basis set group =>   1
Atom  27C    basis set group =>   1
Atom  28C    basis set group =>   1
Atom  29C    basis set group =>   1
Atom  30C    basis set group =>   1
Atom  31C    basis set group =>   1
Atom  32C    basis set group =>   1
Atom  33C    basis set group =>   1
Atom  34C    basis set group =>   1
Atom  35C    basis set group =>   1
Atom  36O    basis set group =>   3
Atom  37C    basis set group =>   1
Atom  38C    basis set group =>   1
Atom  39C    basis set group =>   1
Atom  40F    basis set group =>   4
Atom  41F    basis set group =>   4
Atom  42N    basis set group =>   5
Atom  43N    basis set group =>   5
Atom  44C    basis set group =>   1
Atom  45C    basis set group =>   1
Atom  46C    basis set group =>   1
Atom  47C    basis set group =>   1
Atom  48C    basis set group =>   1
Atom  49C    basis set group =>   1
Atom  50C    basis set group =>   1
Atom  51C    basis set group =>   1
Atom  52C    basis set group =>   1
Atom  53C    basis set group =>   1
Atom  54O    basis set group =>   3
Atom  55C    basis set group =>   1
Atom  56C    basis set group =>   1
Atom  57C    basis set group =>   1
Atom  58F    basis set group =>   4
Atom  59F    basis set group =>   4
Atom  60N    basis set group =>   5
Atom  61N    basis set group =>   5
Atom  62C    basis set group =>   1
Atom  63S    basis set group =>   2
Atom  64C    basis set group =>   1
Atom  65C    basis set group =>   1
Atom  66C    basis set group =>   1
Atom  67S    basis set group =>   2
Atom  68C    basis set group =>   1
Atom  69C    basis set group =>   1
Atom  70C    basis set group =>   1
Atom  71H    basis set group =>   6
Atom  72H    basis set group =>   6
Atom  73H    basis set group =>   6
Atom  74H    basis set group =>   6
Atom  75H    basis set group =>   6
Atom  76H    basis set group =>   6
Atom  77H    basis set group =>   6
Atom  78H    basis set group =>   6
Atom  79H    basis set group =>   6
Atom  80H    basis set group =>   6
Atom  81H    basis set group =>   6
Atom  82H    basis set group =>   6
Atom  83H    basis set group =>   6
Atom  84H    basis set group =>   6
Atom  85H    basis set group =>   6
Atom  86H    basis set group =>   6
Atom  87H    basis set group =>   6
Atom  88H    basis set group =>   6
Atom  89H    basis set group =>   6
Atom  90H    basis set group =>   6
Atom  91H    basis set group =>   6
Atom  92H    basis set group =>   6
Atom  93H    basis set group =>   6
Atom  94H    basis set group =>   6
Atom  95H    basis set group =>   6
Atom  96H    basis set group =>   6
Atom  97H    basis set group =>   6
Atom  98H    basis set group =>   6
Atom  99H    basis set group =>   6
Atom 100H    basis set group =>   6
Atom 101H    basis set group =>   6
Atom 102H    basis set group =>   6
Atom 103H    basis set group =>   6
Atom 104H    basis set group =>   6
Atom 105H    basis set group =>   6
Atom 106H    basis set group =>   6
Atom 107H    basis set group =>   6
Atom 108H    basis set group =>   6
------------------------------------------------------------------------------
                           ORCA GTO INTEGRAL CALCULATION
                           -- RI-GTO INTEGRALS CHOSEN --
------------------------------------------------------------------------------

                         BASIS SET STATISTICS AND STARTUP INFO

Gaussian basis set:
 # of primitive gaussian shells          ... 1066
 # of primitive gaussian functions       ... 2018
 # of contracted shells                  ...  548
 # of contracted basis functions         ... 1200
 Highest angular momentum                ...    2
 Maximum contraction depth               ...    5
Auxiliary gaussian basis set:
 # of primitive gaussian shells          ... 2020
 # of primitive gaussian functions       ... 5606
 # of contracted shells                  ... 1263
 # of contracted aux-basis functions     ... 3905
 Highest angular momentum                ...    4
 Maximum contraction depth               ...    7
Ratio of auxiliary to basis functions    ...  3.25
Integral package used                  ... LIBINT
 One Electron integrals                  ... done
 Ordering auxiliary basis shells         ... done
 Integral threshhold             Thresh  ...  2.500e-11
 Primitive cut-off               TCut    ...  2.500e-12
 Pre-screening matrix                    ... done
 Shell pair data                         ... 
 Ordering of the shell pairs             ... done (   0.013 sec) 51910 of 150426 pairs
 Determination of significant pairs      ... done (   0.000 sec)
 Creation of shell pair data             ... done (   0.009 sec)
 Storage of shell pair data              ... done (   0.011 sec)
 Shell pair data done in (   0.033 sec)
 Computing two index integrals           ... done
 Cholesky decomposition of the V-matrix  ... done


Timings:
 Total evaluation time                   ...   2.617 sec (  0.044 min)
 One electron matrix time                ...   0.696 sec (  0.012 min) = 26.6%
 Schwartz matrix evaluation time         ...   0.741 sec (  0.012 min) = 28.3%
 Two index repulsion integral time       ...   0.483 sec (  0.008 min) = 18.5%
 Cholesky decomposition of V             ...   0.645 sec (  0.011 min) = 24.6%
 Three index repulsion integral time     ...   0.000 sec (  0.000 min) =  0.0%

-------------------------------------------------------------------------------
                                 ORCA SCF
-------------------------------------------------------------------------------

------------
SCF SETTINGS
------------
Hamiltonian:
 Density Functional     Method          .... DFT(GTOs)
 Exchange Functional    Exchange        .... WB88
 Correlation Functional Correlation     .... LYP
 LDA part of GGA corr.  LDAOpt          .... VWN-5
 Gradients option       PostSCFGGA      .... off
 Hybrid DFT is turned on
   Fraction HF Exchange ScalHFX         ....  0.190000
   Scaling of DF-GGA-X  ScalDFX         ....  0.350000
   Scaling of DF-GGA-C  ScalDFC         ....  0.810000
   Scaling of DF-LDA-C  ScalLDAC        ....  1.000000
   Perturbative correction              ....  0.000000
   Density functional embedding theory  .... OFF
 Long-range corrected/Screened/Range-Separated Hybrid DFT is turned on
   Amount of maximum screened exact exchange              ....  0.460000
   Range separation parameter mu (erf(mu*r12)/r12)        ....  0.330000
 RI-approximation to the Coulomb term is turned on
   Number of auxiliary basis functions  .... 3905
   RIJ-COSX (HFX calculated with COS-X)).... on


General Settings:
 Integral files         IntName         .... IDST-4F
 Hartree-Fock type      HFTyp           .... RHF
 Total Charge           Charge          ....    0
 Multiplicity           Mult            ....    1
 Number of Electrons    NEL             ....  524
 Basis Dimension        Dim             .... 1200
 Nuclear Repulsion      ENuc            ....  10908.2303024361 Eh

Convergence Acceleration:
 DIIS                   CNVDIIS         .... on
   Start iteration      DIISMaxIt       ....    12
   Startup error        DIISStart       ....  0.200000
   # of expansion vecs  DIISMaxEq       ....     5
   Bias factor          DIISBfac        ....   1.050
   Max. coefficient     DIISMaxC        ....  10.000
 Newton-Raphson         CNVNR           .... off
 SOSCF                  CNVSOSCF        .... on
   Start iteration      SOSCFMaxIt      ....   150
   Startup grad/error   SOSCFStart      ....  0.003300
 Level Shifting         CNVShift        .... on
   Level shift para.    LevelShift      ....    0.2500
   Turn off err/grad.   ShiftErr        ....    0.0010
 Zerner damping         CNVZerner       .... off
 Static damping         CNVDamp         .... on
   Fraction old density DampFac         ....    0.7000
   Max. Damping (<1)    DampMax         ....    0.9800
   Min. Damping (>=0)   DampMin         ....    0.0000
   Turn off err/grad.   DampErr         ....    0.1000
 Fernandez-Rico         CNVRico         .... off

SCF Procedure:
 Maximum # iterations   MaxIter         ....   125
 SCF integral mode      SCFMode         .... Direct
   Integral package                     .... LIBINT
 Reset frequency        DirectResetFreq ....    20
 Integral Threshold     Thresh          ....  2.500e-11 Eh
 Primitive CutOff       TCut            ....  2.500e-12 Eh

Convergence Tolerance:
 Convergence Check Mode ConvCheckMode   .... Total+1el-Energy
 Convergence forced     ConvForced      .... 1
 Energy Change          TolE            ....  1.000e-08 Eh
 1-El. energy change                    ....  1.000e-05 Eh
 Orbital Gradient       TolG            ....  1.000e-05
 Orbital Rotation angle TolX            ....  1.000e-05
 DIIS Error             TolErr          ....  5.000e-07


Diagonalization of the overlap matrix:
Smallest eigenvalue                        ... 1.956e-04
Time for diagonalization                   ...    0.422 sec
Threshold for overlap eigenvalues          ... 1.000e-08
Number of eigenvalues below threshold      ... 0
Time for construction of square roots      ...    0.179 sec
Total time needed                          ...    0.609 sec

-------------------
DFT GRID GENERATION
-------------------

General Integration Accuracy     IntAcc      ...  4.670
Radial Grid Type                 RadialGrid  ... Gauss-Chebyshev
Angular Grid (max. acc.)         AngularGrid ... Lebedev-302
Angular grid pruning method      GridPruning ... 3 (G Style)
Weight generation scheme         WeightScheme... Becke
Basis function cutoff            BFCut       ...    1.0000e-11
Integration weight cutoff        WCut        ...    1.0000e-14
Grids for H and He will be reduced by one unit

# of grid points (after initial pruning)     ... 572800 (   2.2 sec)
# of grid points (after weights+screening)   ... 485687 (  20.0 sec)
nearest neighbour list constructed           ...    0.0 sec
Grid point re-assignment to atoms done       ...    0.1 sec
Grid point division into batches done        ...    1.8 sec
Reduced shell lists constructed in    9.7 sec

Total number of grid points                  ...   485687
Total number of batches                      ...     7638
Average number of points per batch           ...       63
Average number of grid points per atom       ...     4456
Average number of shells per batch           ...   100.72 (18.38%)
Average number of basis functions per batch  ...   204.40 (17.03%)
Average number of large shells per batch     ...    59.65 (59.22%)
Average number of large basis fcns per batch ...   122.74 (60.05%)
Maximum spatial batch extension              ...  21.32, 19.40, 22.52 au
Average spatial batch extension              ...   2.13,  2.07,  2.18 au

Time for grid setup =   32.002 sec

------------------------------
INITIAL GUESS: MODEL POTENTIAL
------------------------------
Loading Hartree-Fock densities                     ... done
Calculating cut-offs                               ... done
Setting up the integral package                    ... done
Initializing the effective Hamiltonian             ... done
Starting the Coulomb interaction                   ... done (  10.1 sec)
Reading the grid                                   ... done
Mapping shells                                     ... done
Starting the XC term evaluation                    ... done (   9.5 sec)
  promolecular density results
     # of electrons  =    523.980264069
     EX              =   -485.031939188
     EC              =    -18.114762011
     EX+EC           =   -503.146701199
Transforming the Hamiltonian                       ... done (   0.1 sec)
Diagonalizing the Hamiltonian                      ... done (   0.4 sec)
Back transforming the eigenvectors                 ... done (   0.1 sec)
Now organizing SCF variables                       ... done
                      ------------------
                      INITIAL GUESS DONE (  52.6 sec)
                      ------------------
--------------------
COSX GRID GENERATION
--------------------

General Integration Accuracy     IntAcc      ...  3.340
Radial Grid Type                 RadialGrid  ... Gauss-Chebyshev
Angular Grid (max. acc.)         AngularGrid ... Lebedev-50
Angular grid pruning method      GridPruning ... 3 (G Style)
Weight generation scheme         WeightScheme... Becke
Basis function cutoff            BFCut       ...    1.0000e-11
Integration weight cutoff        WCut        ...    1.0000e-14
Grids for H and He will be reduced by one unit

# of grid points (after initial pruning)     ...  53788 (   0.1 sec)
# of grid points (after weights+screening)   ...  47709 (   1.8 sec)
nearest neighbour list constructed           ...    0.0 sec
Grid point re-assignment to atoms done       ...    0.0 sec
Grid point division into batches done        ...    0.0 sec
Reduced shell lists constructed in    1.0 sec

Total number of grid points                  ...    47709
Total number of batches                      ...      807
Average number of points per batch           ...       59
Average number of grid points per atom       ...      438
Average number of shells per batch           ...   123.01 (22.45%)
Average number of basis functions per batch  ...   252.22 (21.02%)
Average number of large shells per batch     ...    73.08 (59.41%)
Average number of large basis fcns per batch ...   152.81 (60.59%)
Maximum spatial batch extension              ...  17.57, 20.03, 21.47 au
Average spatial batch extension              ...   4.27,  4.15,  4.64 au

Overlap Fitting                  UseSFitting ... on
Constructing numerical overlap ... done (      0.7 sec)
Inverting numerical overlap    ... done (      0.0 sec)
Obtaining analytic overlap     ... done (      0.0 sec)
Final contraction and storage  ... done (      0.1 sec)


General Integration Accuracy     IntAcc      ...  3.670
Radial Grid Type                 RadialGrid  ... Gauss-Chebyshev
Angular Grid (max. acc.)         AngularGrid ... Lebedev-50
Angular grid pruning method      GridPruning ... 3 (G Style)
Weight generation scheme         WeightScheme... Becke
Basis function cutoff            BFCut       ...    1.0000e-11
Integration weight cutoff        WCut        ...    1.0000e-14
Grids for H and He will be reduced by one unit

# of grid points (after initial pruning)     ...  67398 (   0.1 sec)
# of grid points (after weights+screening)   ...  59473 (   2.3 sec)
nearest neighbour list constructed           ...    0.0 sec
Grid point re-assignment to atoms done       ...    0.0 sec
Grid point division into batches done        ...    0.0 sec
Reduced shell lists constructed in    1.2 sec

Total number of grid points                  ...    59473
Total number of batches                      ...      981
Average number of points per batch           ...       60
Average number of grid points per atom       ...      546
Average number of shells per batch           ...   120.51 (21.99%)
Average number of basis functions per batch  ...   246.73 (20.56%)
Average number of large shells per batch     ...    71.36 (59.22%)
Average number of large basis fcns per batch ...   148.71 (60.27%)
Maximum spatial batch extension              ...  20.32, 22.31, 23.85 au
Average spatial batch extension              ...   4.02,  3.88,  4.27 au

Overlap Fitting                  UseSFitting ... on
Constructing numerical overlap ... done (      0.8 sec)
Inverting numerical overlap    ... done (      0.0 sec)
Obtaining analytic overlap     ... done (      0.0 sec)
Final contraction and storage  ... done (      0.1 sec)


General Integration Accuracy     IntAcc      ...  4.010
Radial Grid Type                 RadialGrid  ... Gauss-Chebyshev
Angular Grid (max. acc.)         AngularGrid ... Lebedev-110
Angular grid pruning method      GridPruning ... 3 (G Style)
Weight generation scheme         WeightScheme... Becke
Basis function cutoff            BFCut       ...    1.0000e-11
Integration weight cutoff        WCut        ...    1.0000e-14
Grids for H and He will be reduced by one unit

# of grid points (after initial pruning)     ... 130088 (   0.2 sec)
# of grid points (after weights+screening)   ... 113821 (   4.5 sec)
nearest neighbour list constructed           ...    0.0 sec
Grid point re-assignment to atoms done       ...    0.0 sec
Grid point division into batches done        ...    0.1 sec
Reduced shell lists constructed in    2.2 sec

Total number of grid points                  ...   113821
Total number of batches                      ...     1836
Average number of points per batch           ...       61
Average number of grid points per atom       ...     1044
Average number of shells per batch           ...   113.73 (20.75%)
Average number of basis functions per batch  ...   232.58 (19.38%)
Average number of large shells per batch     ...    67.73 (59.56%)
Average number of large basis fcns per batch ...   140.85 (60.56%)
Maximum spatial batch extension              ...  19.91, 22.45, 21.17 au
Average spatial batch extension              ...   3.38,  3.23,  3.59 au

Overlap Fitting                  UseSFitting ... on
Constructing numerical overlap ... done (      1.4 sec)
Inverting numerical overlap    ... done (      0.0 sec)
Obtaining analytic overlap     ... done (      0.0 sec)
Final contraction and storage  ... done (      0.1 sec)

Time for X-Grid setup             =   16.963 sec
--------------
SCF ITERATIONS
--------------
ITER       Energy         Delta-E        Max-DP      RMS-DP      [F,P]     Damp
               ***  Starting incremental Fock matrix formation  ***
  0  -4550.8347147430   0.000000000000 0.09628414  0.00101358  0.2421669 0.7000
  1  -4551.4742581007  -0.639543357733 0.05690136  0.00070650  0.0974143 0.7000
                               ***Turning on DIIS***
  2  -4551.7418836500  -0.267625549322 0.09015177  0.00125225  0.0431346 0.0000
  3  -4552.1828152801  -0.440931630097 0.04731214  0.00054175  0.0512036 0.0000
  4  -4552.2661762484  -0.083360968281 0.01769563  0.00015961  0.0273350 0.0000
  5  -4552.2728568639  -0.006680615505 0.00740966  0.00006514  0.0090058 0.0000
  6  -4552.2740467954  -0.001189931481 0.00327864  0.00003908  0.0015369 0.0000
                      *** Initiating the SOSCF procedure ***
                           *** Shutting down DIIS ***
                      *** Re-Reading the Fockian *** 
                      *** Removing any level shift *** 
ITER      Energy       Delta-E        Grad      Rot      Max-DP    RMS-DP
  7  -4552.27448115  -0.0004343550  0.002866  0.002866  0.004032  0.000049
               *** Restarting incremental Fock matrix formation ***
  8  -4552.27476982  -0.0002886699  0.000722  0.004811  0.002878  0.000025
  9  -4552.27481119  -0.0000413665  0.000633  0.005702  0.001489  0.000018
 10  -4552.27485164  -0.0000404549  0.000139  0.000947  0.000712  0.000007
 11  -4552.27485164   0.0000000014  0.000153  0.000386  0.000316  0.000003
 12  -4552.27485515  -0.0000035122  0.000046  0.000266  0.000179  0.000002
 13  -4552.27485516  -0.0000000088  0.000039  0.000164  0.000092  0.000001
 14  -4552.27485549  -0.0000003303  0.000007  0.000049  0.000051  0.000001
 15  -4552.27485546   0.0000000276  0.000008  0.000023  0.000030  0.000000
                  ***Gradient check signals convergence***
              ***Rediagonalizing the Fockian in SOSCF/NRSCF***

               *****************************************************
               *                     SUCCESS                       *
               *           SCF CONVERGED AFTER  16 CYCLES          *
               *****************************************************

Setting up the final grid:

General Integration Accuracy     IntAcc      ...  5.010
Radial Grid Type                 RadialGrid  ... Gauss-Chebyshev
Angular Grid (max. acc.)         AngularGrid ... Lebedev-434
Angular grid pruning method      GridPruning ... 3 (G Style)
Weight generation scheme         WeightScheme... Becke
Basis function cutoff            BFCut       ...    1.0000e-11
Integration weight cutoff        WCut        ...    1.0000e-14
Grids for H and He will be reduced by one unit

# of grid points (after initial pruning)     ... 1018358 (   1.8 sec)
# of grid points (after weights+screening)   ... 860478 (  33.6 sec)
nearest neighbour list constructed           ...    0.0 sec
Grid point re-assignment to atoms done       ...    0.1 sec
Grid point division into batches done        ...    5.6 sec
Reduced shell lists constructed in   17.7 sec

Total number of grid points                  ...   860478
Total number of batches                      ...    13501
Average number of points per batch           ...       63
Average number of grid points per atom       ...     7894
Average number of shells per batch           ...    97.11 (17.72%)
Average number of basis functions per batch  ...   196.33 (16.36%)
Average number of large shells per batch     ...    57.47 (59.18%)
Average number of large basis fcns per batch ...   117.81 (60.01%)
Maximum spatial batch extension              ...  22.63, 21.30, 27.81 au
Average spatial batch extension              ...   1.72,  1.68,  1.76 au

Final grid set up in   53.1 sec
Final integration                            ... done (  23.2 sec)
Change in XC energy                          ...    -0.000051649
Integrated number of electrons               ...   524.000189492
Previous integrated no of electrons          ...   523.999176430
Old exchange energy                            =   -134.669745430 Eh
New exchange energy                            =   -134.665780843 Eh
Exchange energy change after final integration =      0.003964587 Eh
Total energy after final integration           =  -4552.270942587 Eh
Final COS-X integration done in                =   432.836 sec

----------------
TOTAL SCF ENERGY
----------------

Total Energy       :        -4552.27094259 Eh         -123873.58996 eV

Components:
Nuclear Repulsion  :        10908.23030244 Eh          296828.03698 eV
Electronic Energy  :       -15460.50124502 Eh         -420701.62693 eV
One Electron Energy:       -27961.14651128 Eh         -760861.47802 eV
Two Electron Energy:        12500.64526626 Eh          340159.85109 eV

Virial components:
Potential Energy   :        -9073.66051115 Eh         -246906.85501 eV
Kinetic Energy     :         4521.38956856 Eh          123033.26505 eV
Virial Ratio       :            2.00683006


DFT components:
N(Alpha)           :      262.000094746170 electrons
N(Beta)            :      262.000094746170 electrons
N(Total)           :      524.000189492340 electrons
E(XC)              :     -376.845444046188 Eh       
DFET-embed. en.    :        0.000000000000 Eh       

---------------
SCF CONVERGENCE
---------------

  Last Energy change         ...   -6.0336e-08  Tolerance :   1.0000e-08
  Last MAX-Density change    ...    7.1054e-15  Tolerance :   1.0000e-07
  Last RMS-Density change    ...    3.3605e-17  Tolerance :   5.0000e-09
  Last Orbital Gradient      ...    1.4567e-06  Tolerance :   1.0000e-05
  Last Orbital Rotation      ...    1.1232e-05  Tolerance :   1.0000e-05

             **** THE GBW FILE WAS UPDATED (IDST-4F.gbw) ****
             **** DENSITY FILE WAS UPDATED (IDST-4F.scfp) ****
             **** ENERGY FILE WAS UPDATED (IDST-4F.en.tmp) ****
             **** THE GBW FILE WAS UPDATED (IDST-4F.gbw) ****
             **** DENSITY FILE WAS UPDATED (IDST-4F.scfp) ****
----------------
ORBITAL ENERGIES
----------------

  NO   OCC          E(Eh)            E(eV) 
   0   2.0000     -88.973765     -2421.0992 
   1   2.0000     -88.972956     -2421.0772 
   2   2.0000     -88.969928     -2420.9948 
   3   2.0000     -88.938806     -2420.1479 
   4   2.0000     -24.802241      -674.9033 
   5   2.0000     -24.802083      -674.8990 
   6   2.0000     -24.800490      -674.8556 
   7   2.0000     -24.800033      -674.8432 
   8   2.0000     -19.219599      -522.9919 
   9   2.0000     -19.216246      -522.9006 
  10   2.0000     -14.418759      -392.3544 
  11   2.0000     -14.416639      -392.2967 
  12   2.0000     -14.415528      -392.2665 
  13   2.0000     -14.414367      -392.2349 
  14   2.0000     -10.388096      -282.6745 
  15   2.0000     -10.387107      -282.6475 
  16   2.0000     -10.385970      -282.6166 
  17   2.0000     -10.385144      -282.5941 
  18   2.0000     -10.371909      -282.2340 
  19   2.0000     -10.368685      -282.1463 
  20   2.0000     -10.347021      -281.5568 
  21   2.0000     -10.345901      -281.5263 
  22   2.0000     -10.344400      -281.4854 
  23   2.0000     -10.343681      -281.4659 
  24   2.0000     -10.330445      -281.1057 
  25   2.0000     -10.325168      -280.9621 
  26   2.0000     -10.322074      -280.8779 
  27   2.0000     -10.320979      -280.8481 
  28   2.0000     -10.320138      -280.8252 
  29   2.0000     -10.319213      -280.8001 
  30   2.0000     -10.319048      -280.7956 
  31   2.0000     -10.318731      -280.7869 
  32   2.0000     -10.317931      -280.7652 
  33   2.0000     -10.317776      -280.7610 
  34   2.0000     -10.316514      -280.7266 
  35   2.0000     -10.316408      -280.7237 
  36   2.0000     -10.315980      -280.7121 
  37   2.0000     -10.313114      -280.6341 
  38   2.0000     -10.310486      -280.5626 
  39   2.0000     -10.310198      -280.5547 
  40   2.0000     -10.308449      -280.5072 
  41   2.0000     -10.308327      -280.5038 
  42   2.0000     -10.307660      -280.4857 
  43   2.0000     -10.304308      -280.3945 
  44   2.0000     -10.303221      -280.3649 
  45   2.0000     -10.302906      -280.3563 
  46   2.0000     -10.301892      -280.3287 
  47   2.0000     -10.298894      -280.2471 
  48   2.0000     -10.298887      -280.2470 
  49   2.0000     -10.294448      -280.1262 
  50   2.0000     -10.294073      -280.1160 
  51   2.0000     -10.293184      -280.0918 
  52   2.0000     -10.292020      -280.0601 
  53   2.0000     -10.292007      -280.0597 
  54   2.0000     -10.287347      -279.9330 
  55   2.0000     -10.287002      -279.9236 
  56   2.0000     -10.286466      -279.9090 
  57   2.0000     -10.285030      -279.8699 
  58   2.0000     -10.284113      -279.8449 
  59   2.0000     -10.281560      -279.7755 
  60   2.0000     -10.281404      -279.7712 
  61   2.0000     -10.278621      -279.6955 
  62   2.0000     -10.273283      -279.5502 
  63   2.0000     -10.271437      -279.5000 
  64   2.0000     -10.271114      -279.4912 
  65   2.0000     -10.268896      -279.4309 
  66   2.0000     -10.267992      -279.4063 
  67   2.0000     -10.258594      -279.1505 
  68   2.0000     -10.256929      -279.1052 
  69   2.0000     -10.252821      -278.9934 
  70   2.0000     -10.244565      -278.7688 
  71   2.0000      -8.068278      -219.5490 
  72   2.0000      -8.068209      -219.5471 
  73   2.0000      -8.064978      -219.4592 
  74   2.0000      -8.033866      -218.6126 
  75   2.0000      -6.037633      -164.2923 
  76   2.0000      -6.037557      -164.2903 
  77   2.0000      -6.034334      -164.2026 
  78   2.0000      -6.033565      -164.1816 
  79   2.0000      -6.033506      -164.1801 
  80   2.0000      -6.030422      -164.0961 
  81   2.0000      -6.030291      -164.0926 
  82   2.0000      -6.029981      -164.0841 
  83   2.0000      -6.026972      -164.0022 
  84   2.0000      -6.004238      -163.3836 
  85   2.0000      -6.000113      -163.2714 
  86   2.0000      -5.993735      -163.0978 
  87   2.0000      -1.325875       -36.0789 
  88   2.0000      -1.323931       -36.0260 
  89   2.0000      -1.310626       -35.6640 
  90   2.0000      -1.308716       -35.6120 
  91   2.0000      -1.135142       -30.8888 
  92   2.0000      -1.131856       -30.7994 
  93   2.0000      -1.024983       -27.8912 
  94   2.0000      -1.023445       -27.8493 
  95   2.0000      -1.018888       -27.7253 
  96   2.0000      -1.013986       -27.5920 
  97   2.0000      -1.003736       -27.3130 
  98   2.0000      -1.003353       -27.3026 
  99   2.0000      -1.002194       -27.2711 
 100   2.0000      -0.994556       -27.0632 
 101   2.0000      -0.993988       -27.0478 
 102   2.0000      -0.970780       -26.4163 
 103   2.0000      -0.960303       -26.1312 
 104   2.0000      -0.956771       -26.0351 
 105   2.0000      -0.945971       -25.7412 
 106   2.0000      -0.926154       -25.2019 
 107   2.0000      -0.913422       -24.8555 
 108   2.0000      -0.908427       -24.7195 
 109   2.0000      -0.905677       -24.6447 
 110   2.0000      -0.898964       -24.4621 
 111   2.0000      -0.894032       -24.3279 
 112   2.0000      -0.880337       -23.9552 
 113   2.0000      -0.876294       -23.8452 
 114   2.0000      -0.874341       -23.7920 
 115   2.0000      -0.871779       -23.7223 
 116   2.0000      -0.856116       -23.2961 
 117   2.0000      -0.846034       -23.0218 
 118   2.0000      -0.843586       -22.9552 
 119   2.0000      -0.842888       -22.9362 
 120   2.0000      -0.838983       -22.8299 
 121   2.0000      -0.838393       -22.8138 
 122   2.0000      -0.834286       -22.7021 
 123   2.0000      -0.815780       -22.1985 
 124   2.0000      -0.808164       -21.9913 
 125   2.0000      -0.793760       -21.5993 
 126   2.0000      -0.775225       -21.0949 
 127   2.0000      -0.773686       -21.0531 
 128   2.0000      -0.771676       -20.9984 
 129   2.0000      -0.766465       -20.8566 
 130   2.0000      -0.759430       -20.6651 
 131   2.0000      -0.747064       -20.3286 
 132   2.0000      -0.741934       -20.1890 
 133   2.0000      -0.725951       -19.7541 
 134   2.0000      -0.717982       -19.5373 
 135   2.0000      -0.710333       -19.3291 
 136   2.0000      -0.706530       -19.2257 
 137   2.0000      -0.700069       -19.0499 
 138   2.0000      -0.696692       -18.9580 
 139   2.0000      -0.695140       -18.9157 
 140   2.0000      -0.690029       -18.7766 
 141   2.0000      -0.688006       -18.7216 
 142   2.0000      -0.683471       -18.5982 
 143   2.0000      -0.676305       -18.4032 
 144   2.0000      -0.669756       -18.2250 
 145   2.0000      -0.662521       -18.0281 
 146   2.0000      -0.657369       -17.8879 
 147   2.0000      -0.650725       -17.7071 
 148   2.0000      -0.645917       -17.5763 
 149   2.0000      -0.643267       -17.5042 
 150   2.0000      -0.641250       -17.4493 
 151   2.0000      -0.638496       -17.3743 
 152   2.0000      -0.632695       -17.2165 
 153   2.0000      -0.621572       -16.9138 
 154   2.0000      -0.619688       -16.8626 
 155   2.0000      -0.614971       -16.7342 
 156   2.0000      -0.608395       -16.5553 
 157   2.0000      -0.606581       -16.5059 
 158   2.0000      -0.599359       -16.3094 
 159   2.0000      -0.596764       -16.2388 
 160   2.0000      -0.592587       -16.1251 
 161   2.0000      -0.590663       -16.0728 
 162   2.0000      -0.588817       -16.0225 
 163   2.0000      -0.585368       -15.9287 
 164   2.0000      -0.572801       -15.5867 
 165   2.0000      -0.571630       -15.5548 
 166   2.0000      -0.565847       -15.3975 
 167   2.0000      -0.557838       -15.1795 
 168   2.0000      -0.554619       -15.0920 
 169   2.0000      -0.553575       -15.0635 
 170   2.0000      -0.552006       -15.0208 
 171   2.0000      -0.551152       -14.9976 
 172   2.0000      -0.550753       -14.9868 
 173   2.0000      -0.548935       -14.9373 
 174   2.0000      -0.547487       -14.8979 
 175   2.0000      -0.543482       -14.7889 
 176   2.0000      -0.539250       -14.6737 
 177   2.0000      -0.538670       -14.6579 
 178   2.0000      -0.535650       -14.5758 
 179   2.0000      -0.532436       -14.4883 
 180   2.0000      -0.531633       -14.4665 
 181   2.0000      -0.529555       -14.4099 
 182   2.0000      -0.528493       -14.3810 
 183   2.0000      -0.526912       -14.3380 
 184   2.0000      -0.524284       -14.2665 
 185   2.0000      -0.522350       -14.2139 
 186   2.0000      -0.519804       -14.1446 
 187   2.0000      -0.517447       -14.0804 
 188   2.0000      -0.516182       -14.0460 
 189   2.0000      -0.510658       -13.8957 
 190   2.0000      -0.507231       -13.8025 
 191   2.0000      -0.505940       -13.7673 
 192   2.0000      -0.504775       -13.7356 
 193   2.0000      -0.497792       -13.5456 
 194   2.0000      -0.496814       -13.5190 
 195   2.0000      -0.495155       -13.4739 
 196   2.0000      -0.495008       -13.4699 
 197   2.0000      -0.492637       -13.4053 
 198   2.0000      -0.490927       -13.3588 
 199   2.0000      -0.489201       -13.3118 
 200   2.0000      -0.487477       -13.2649 
 201   2.0000      -0.482322       -13.1246 
 202   2.0000      -0.480611       -13.0781 
 203   2.0000      -0.476663       -12.9707 
 204   2.0000      -0.473740       -12.8911 
 205   2.0000      -0.470206       -12.7950 
 206   2.0000      -0.463748       -12.6192 
 207   2.0000      -0.461504       -12.5582 
 208   2.0000      -0.460918       -12.5422 
 209   2.0000      -0.458945       -12.4885 
 210   2.0000      -0.455966       -12.4075 
 211   2.0000      -0.454998       -12.3811 
[...]
  89      -9.067       9.5
  90      -8.992       9.7
  91      -8.793      15.6
  92      -8.747      28.9
  93      -8.559      22.8
  94      -8.409      20.9
  95      -8.148       7.0
  96      -7.419      18.4
  97      -6.545      20.8

  98      -2.760      26.3
  99      -2.463      22.0
 100      -1.762      20.7
 101      -1.643      18.9
 102      -0.945      31.8
 103      -0.314      25.3
 104       0.122      22.7
 105       0.381       8.8
 106       0.579      31.0
 107       0.743      12.7
 108       1.128       8.6

           eV        nm       excitation i->a                     eV 
   0      2.13     582.2    97 ->  98      gap,J,K:    3.786     1.979     0.161
   1      2.58     481.2    97 ->  99      gap,J,K:    4.083     1.811     0.152
   2      3.12     397.0    96 ->  98      gap,J,K:    4.660     1.900     0.182
   3      3.25     381.9    97 -> 100      gap,J,K:    4.783     1.701     0.083
   4      3.37     367.9    96 ->  99      gap,J,K:    4.957     1.925     0.170
   5      3.51     353.4    97 -> 101      gap,J,K:    4.903     1.543     0.074
   6      3.70     335.1    95 ->  98      gap,J,K:    5.389     1.974     0.143
   7      4.07     304.4    97 -> 102      gap,J,K:    5.600     2.040     0.256
   8      4.10     302.2    94 ->  98      gap,J,K:    5.649     2.005     0.230
   9      4.17     297.2    95 ->  99      gap,J,K:    5.686     1.714     0.100
  10      4.21     294.7    96 -> 100      gap,J,K:    5.657     1.628     0.089
  11      4.26     291.1    96 -> 101      gap,J,K:    5.777     1.759     0.121
  12      4.36     284.3    91 ->  98      gap,J,K:    6.033     1.896     0.112
  13      4.41     281.1    93 ->  98      gap,J,K:    5.799     1.666     0.139
  14      4.45     278.9    92 ->  98      gap,J,K:    5.988     1.825     0.142
  15      4.58     270.6    94 ->  99      gap,J,K:    5.946     1.755     0.196
  16      4.62     268.2    93 ->  99      gap,J,K:    6.096     1.892     0.210
  17      4.65     266.5    90 ->  98      gap,J,K:    6.232     1.835     0.128
  18      4.69     264.4    89 ->  98      gap,J,K:    6.307     1.833     0.108
  19      4.71     263.5    91 ->  99      gap,J,K:    6.330     1.724     0.050
  20      4.71     263.1    87 ->  98      gap,J,K:    6.554     1.921     0.039
  21      4.77     259.8    92 ->  99      gap,J,K:    6.285     1.743     0.115
  22      4.78     259.1    95 -> 100      gap,J,K:    6.386     1.711     0.055
  23      4.79     258.8    97 -> 103      gap,J,K:    6.231     1.734     0.147
  24      4.83     256.9    89 ->  99      gap,J,K:    6.604     1.967     0.094

average / max PT2 energy lowering (eV):       0.047       0.083

CSF included by PT:                   185 
total number of CSF included:         215 
 
sTD-DFT procedure...
setting up A+B and A-B matrices...  done
estimated time (min):    0.000
calculating (A-B)^0.5 ... done
calculating (A+B)*(A-B)^0.5 ... done
calculating (A-B)^0.5 *(A+B)*(A-B)^0.5 ... done
diagonalizing ...using LAPACKE_ssyevr ...done

   36 roots found, lowest/highest eigenvalue :     1.876     4.997

excitation energies, transition moments and amplitudes

molecular weight: 1015.189
state   eV        nm        fL         fV        Rl        RV
   0   1.876     660.7   1.344461   1.688787  -256.013592  -274.518557     0.89 (  97->  98)    0.09 (  96->  99)    0.01 (  96->  98)
   1   2.253     550.3   0.177447   0.210402  125.437119  134.715679     0.75 (  97->  99)    0.17 (  96->  98)    0.04 (  96->  99)
   2   2.950     420.4   0.216287   0.215533  125.304723  127.071043     0.52 (  97-> 100)    0.22 (  96->  98)    0.06 (  97->  99)
   3   2.972     417.1   0.263629   0.273312  56.930681  56.296270     0.40 (  96->  98)    0.23 (  97-> 100)    0.09 (  95->  98)
   4   3.128     396.4   0.097706   0.101045  -83.497173  -97.277036     0.46 (  97-> 101)    0.15 (  96->  99)    0.09 (  95->  98)
   5   3.216     385.6   0.024943   0.024637  95.662118  81.920150     0.25 (  95->  98)    0.23 (  97-> 101)    0.22 (  96->  99)
   6   3.475     356.7   0.221318   0.220361  68.717081  62.512354     0.38 (  94->  98)    0.16 (  95->  98)    0.16 (  96->  99)
   7   3.645     340.2   0.231917   0.232618  99.875602  95.758053     0.14 (  94->  98)    0.11 (  92->  98)    0.11 (  96->  99)
   8   3.685     336.5   0.160693   0.158707  -227.577116  -231.663845     0.27 (  93->  98)    0.13 (  93->  99)    0.08 (  94->  99)
   9   3.785     327.6   0.189139   0.188520  67.861773  68.731323     0.74 (  97-> 102)    0.07 (  96-> 101)    0.03 (  92->  98)
  10   3.899     318.0   0.145139   0.125631  121.138647  112.859779     0.23 (  87->  98)    0.08 (  88->  99)    0.08 (  90->  98)
  11   3.910     317.1   0.015165   0.016455  -115.568860  -118.636223     0.14 (  88->  98)    0.14 (  87->  99)    0.12 (  87->  98)
  12   3.939     314.7   0.013716   0.013453  -80.198172  -76.077509     0.17 (  88->  99)    0.11 (  92->  99)    0.10 (  88->  98)
  13   3.987     310.9   0.137418   0.127975  374.522195  368.025634     0.14 (  91->  98)    0.13 (  92->  98)    0.08 (  87-> 100)
  14   4.038     307.1   0.072780   0.068928  -178.405346  -166.017973     0.32 (  88-> 101)    0.10 (  88-> 100)    0.10 (  87-> 101)
  15   4.091     303.0   0.057997   0.051457  -81.114634  -75.440857     0.30 (  91->  98)    0.22 (  96-> 100)    0.06 (  95->  99)
  16   4.102     302.3   0.040328   0.038075  99.648204  97.249169     0.24 (  87-> 100)    0.08 (  87-> 101)    0.07 (  87->  99)
  17   4.124     300.6   0.124016   0.108655  -101.607933  -93.914473     0.24 (  89->  98)    0.10 (  89->  99)    0.08 (  90->  99)
  18   4.223     293.6   0.061383   0.059694  81.834258  81.644222     0.19 (  96-> 101)    0.13 (  95-> 100)    0.12 (  90->  98)
  19   4.244     292.1   0.154163   0.143028  88.985187  82.979582     0.25 (  96-> 101)    0.13 (  90->  98)    0.08 (  95-> 100)
  20   4.340     285.6   0.017778   0.017341  -28.838479  -19.603983     0.26 (  95->  99)    0.13 (  96-> 100)    0.10 (  89->  98)
  21   4.435     279.6   0.174108   0.153310   1.656823   0.142659     0.18 (  95-> 100)    0.10 (  94-> 100)    0.08 (  96-> 101)
  22   4.491     276.1   0.021513   0.018685  -36.326242  -38.973429     0.45 (  97-> 103)    0.18 (  96-> 102)    0.05 (  95-> 100)
  23   4.543     272.9   0.057822   0.051666  -501.727234  -473.609558     0.17 (  85->  99)    0.13 (  86->  98)    0.11 (  84->  98)
  24   4.578     270.9   0.502140   0.438027  485.319016  451.916820     0.20 (  85->  98)    0.11 (  94-> 100)    0.10 (  84->  99)
  25   4.602     269.4   0.040764   0.034555  20.307628  16.420562     0.26 (  91->  99)    0.14 (  92->  99)    0.14 (  97-> 105)
  26   4.667     265.6   0.061147   0.050356  -309.415413  -296.382992     0.18 (  97-> 107)    0.10 (  93-> 100)    0.08 (  94->  99)
  27   4.678     265.1   0.180868   0.145897   9.438110   6.462543     0.12 (  94->  99)    0.09 (  91->  99)    0.09 (  97-> 107)
  28   4.705     263.5   0.098950   0.078054  -478.703420  -400.099098     0.10 (  93-> 101)    0.10 (  93-> 100)    0.10 (  94-> 101)
  29   4.742     261.5   0.345960   0.282879  549.473598  500.287791     0.13 (  94-> 100)    0.11 (  94->  99)    0.09 (  85->  98)
  30   4.752     260.9   0.003570   0.002831  -9.327917   0.619474     0.17 (  97-> 107)    0.13 (  96-> 102)    0.09 (  97-> 106)
  31   4.771     259.9   0.047107   0.040776  154.884435  157.282141     0.38 (  97-> 105)    0.06 (  97-> 106)    0.06 (  91->  98)
  32   4.841     256.1   0.060992   0.049402  -62.076919  -54.461877     0.10 (  84->  98)    0.09 (  83->  98)    0.09 (  97-> 103)
  33   4.859     255.2   0.010869   0.009515  45.164598  39.024931     0.33 (  90->  99)    0.20 (  89->  99)    0.07 (  96-> 102)
  34   4.944     250.8   0.035170   0.024937  98.492074  83.125059     0.30 (  97-> 104)    0.07 (  96-> 103)    0.06 (  93->  98)
  35   4.997     248.1   0.029958   0.025972  -48.195825  -43.753583     0.23 (  93->  99)    0.13 (  92->  98)    0.11 (  97-> 104)

-----------------------------------------------------------------------------
         ABSORPTION SPECTRUM VIA TRANSITION ELECTRIC DIPOLE MOMENTS
-----------------------------------------------------------------------------
State   Energy  Wavelength   fosc         T2         TX        TY        TZ  
        (cm-1)    (nm)                  (au**2)     (au)      (au)      (au) 
-----------------------------------------------------------------------------
   0   15134.8    660.7   1.344460897  29.24472   1.15942  -5.25200  -0.56297
   1   18173.1    550.3   0.177446594   3.21451   0.22991   1.72065   0.44835
   2   23789.4    420.4   0.216286561   2.99310   0.80399   1.51676   0.21479
   3   23972.8    417.1   0.263629130   3.62035   0.41375   1.85473   0.09558
   4   25225.7    396.4   0.097705615   1.27512  -0.78514  -0.73892  -0.33565
   5   25935.8    385.6   0.024943077   0.31661   0.02228  -0.49712  -0.26265
   6   28030.8    356.7   0.221318079   2.59930  -1.59303  -0.24654  -0.02758
   7   29395.9    340.2   0.231917166   2.59729   0.55346  -1.24165   0.86560
   8   29721.3    336.5   0.160693000   1.77994  -0.64001  -1.17050   0.01579
   9   30524.1    327.6   0.189139399   2.03993   0.81488   0.91150   0.73829
  10   31451.0    318.0   0.145139399   1.51924   0.23726  -0.98926   0.69593
  11   31534.6    317.1   0.015165175   0.15832  -0.18264  -0.27912  -0.21691
  12   31772.1    314.7   0.013716019   0.14212  -0.22359  -0.15302   0.26213
  13   32161.0    310.9   0.137417663   1.40666  -1.05325  -0.00086  -0.54527
  14   32565.1    307.1   0.072779719   0.73575   0.68854   0.51061  -0.03085
  15   32998.9    303.0   0.057997463   0.57861   0.56606   0.12367   0.49284
  16   33083.4    302.3   0.040328464   0.40131  -0.01445   0.44190  -0.45368
  17   33264.4    300.6   0.124015685   1.22736   0.79382  -0.46552   0.61684
  18   34056.9    293.6   0.061382531   0.59336   0.35748  -0.56593   0.38116
  19   34232.8    292.1   0.154163002   1.48256  -0.38820  -1.15042   0.09165
  20   35008.4    285.6   0.017778398   0.16718   0.34894   0.12248   0.17443
  21   35769.6    279.6   0.174107936   1.60243   0.51687  -0.98884   0.59790
  22   36223.9    276.1   0.021513439   0.19552   0.30793   0.30684   0.08089
  23   36645.5    272.9   0.057821772   0.51945   0.60727   0.17958   0.34414
  24   36920.7    270.9   0.502139960   4.47744  -0.22013   1.60838  -1.35724
  25   37117.8    269.4   0.040764261   0.36155  -0.08091  -0.57177   0.16760
  26   37645.9    265.6   0.061147375   0.53473  -0.08644   0.46980  -0.55367
  27   37727.9    265.1   0.180868038   1.57825   0.23380   1.05126  -0.64687
  28   37950.9    263.5   0.098949635   0.85836   0.81334   0.44362   0.00586
  29   38247.9    261.5   0.345959954   2.97779  -0.96341  -1.29915   0.60153
  30   38325.0    260.9   0.003570202   0.03067   0.08084   0.13963   0.06808
  31   38478.8    259.9   0.047107491   0.40304  -0.07729   0.45557  -0.43534
  32   39045.7    256.1   0.060991968   0.51425  -0.49756  -0.03022  -0.51553
  33   39186.9    255.2   0.010868768   0.09131  -0.18451  -0.23750  -0.02926
  34   39878.6    250.8   0.035170425   0.29034  -0.50493  -0.18384   0.03984
  35   40300.8    248.1   0.029958246   0.24473   0.37541   0.32109  -0.02636

-----------------------------------------------------------------------------
         ABSORPTION SPECTRUM VIA TRANSITION VELOCITY DIPOLE MOMENTS
-----------------------------------------------------------------------------
State   Energy  Wavelength   fosc         P2         PX        PY        PZ  
        (cm-1)    (nm)                  (au**2)     (au)      (au)      (au) 
-----------------------------------------------------------------------------
   0   15134.8    660.7   1.688786908   0.17469   0.09385  -0.40508  -0.04227
   1   18173.1    550.3   0.210401571   0.02613   0.02303   0.15467   0.04100
   2   23789.4    420.4   0.215533182   0.03504   0.09089   0.16207   0.02271
   3   23972.8    417.1   0.273312498   0.04478   0.05195   0.20467   0.01385
   4   25225.7    396.4   0.101045190   0.01742  -0.09432  -0.08222  -0.04199
   5   25935.8    385.6   0.024637159   0.00437   0.00606  -0.06040  -0.02613
   6   28030.8    356.7   0.220360709   0.04222  -0.20384  -0.02563  -0.00316
   7   29395.9    340.2   0.232617659   0.04673   0.06881  -0.17215   0.11119
   8   29721.3    336.5   0.158707068   0.03224  -0.08721  -0.15694   0.00093
   9   30524.1    327.6   0.188520030   0.03933   0.11389   0.12698   0.10116
  10   31451.0    318.0   0.125630633   0.02700   0.03241  -0.13282   0.09118
  11   31534.6    317.1   0.016455023   0.00355  -0.02712  -0.04087  -0.03378
  12   31772.1    314.7   0.013453417   0.00292  -0.02695  -0.01877   0.04293
  13   32161.0    310.9   0.127975358   0.02813  -0.14833  -0.00787  -0.07789
  14   32565.1    307.1   0.068927939   0.01534   0.09869   0.07459  -0.00624
  15   32998.9    303.0   0.051457173   0.01161   0.08070   0.01874   0.06886
  16   33083.4    302.3   0.038074851   0.00861  -0.00191   0.06431  -0.06686
  17   33264.4    300.6   0.108654572   0.02470   0.11482  -0.06412   0.08607
  18   34056.9    293.6   0.059694078   0.01389   0.05488  -0.08699   0.05759
  19   34232.8    292.1   0.143027742   0.03346  -0.05955  -0.17253   0.01231
  20   35008.4    285.6   0.017340887   0.00415   0.05354   0.01959   0.02997
  21   35769.6    279.6   0.153310134   0.03748   0.07598  -0.15352   0.09021
  22   36223.9    276.1   0.018684697   0.00463   0.05051   0.04336   0.01392
  23   36645.5    272.9   0.051665667   0.01294   0.09542   0.02905   0.05469
  24   36920.7    270.9   0.438026774   0.11053  -0.03570   0.25372  -0.21186
  25   37117.8    269.4   0.034555165   0.00877  -0.01329  -0.08929   0.02483
  26   37645.9    265.6   0.050356001   0.01296  -0.01582   0.06881  -0.08928
  27   37727.9    265.1   0.145897473   0.03762   0.03507   0.16116  -0.10206
  28   37950.9    263.5   0.078053757   0.02025   0.12328   0.07094  -0.00365
  29   38247.9    261.5   0.282878829   0.07395  -0.14794  -0.20676   0.09650
  30   38325.0    260.9   0.002830757   0.00074   0.01125   0.02402   0.00615
  31   38478.8    259.9   0.040776078   0.01072  -0.01610   0.06820  -0.07625
  32   39045.7    256.1   0.049402285   0.01318  -0.08131  -0.00611  -0.08084
  33   39186.9    255.2   0.009514591   0.00255  -0.03129  -0.03914  -0.00611
  34   39878.6    250.8   0.024937196   0.00680  -0.07835  -0.02481   0.00648
  35   40300.8    248.1   0.025971829   0.00715   0.06290   0.05631  -0.00517

-------------------------------------------------------------------
                             CD SPECTRUM
-------------------------------------------------------------------
State   Energy Wavelength       R         MX        MY        MZ   
        (cm-1)   (nm)       (1e40*cgs)   (au)      (au)      (au)  
-------------------------------------------------------------------
   0   15134.8    660.7    -256.01359  -0.42765  -0.15488  -1.36504
   1   18173.1    550.3    125.43712   1.19743   0.39302  -3.30918
   2   23789.4    420.4    125.30472  -0.24380  -0.46192   1.69962
   3   23972.8    417.1     56.93068   0.03058  -0.14284   0.11255
   4   25225.7    396.4    -83.49717  -0.54034   0.51134  -0.91707
   5   25935.8    385.6     95.66212  -0.86309  -0.24010   1.92637
   6   28030.8    356.7     68.71708   0.08433   0.50847   1.15338
   7   29395.9    340.2     99.87560   0.49375  -0.09066  -0.93523
   8   29721.3    336.5    -227.57712  -2.22548   0.38608  -0.44185
   9   30524.1    327.6     67.86177  -0.16402  -0.35364   0.22771
  10   31451.0    318.0    121.13865  -0.61626   0.14466  -0.32272
  11   31534.6    317.1    -115.56886  -2.31142  -0.37472   0.16821
  12   31772.1    314.7    -80.19817  -0.89999  -0.04702   0.50280
  13   32161.0    310.9    374.52219   0.73084   0.43626   1.50146
  14   32565.1    307.1    -178.40535   1.42593  -0.32388   1.93145
  15   32998.9    303.0    -81.11463   0.31417  -0.31758   0.41707
  16   33083.4    302.3     99.64820  -0.84697  -0.36075   0.60739
  17   33264.4    300.6    -101.60793   0.10113  -0.20332   0.41522
  18   34056.9    293.6     81.83426  -1.80730  -0.18535   0.50899
  19   34232.8    292.1     88.98519  -0.21831   0.32336  -0.98473
  20   35008.4    285.6    -28.83848   1.18501   0.10531  -1.74309
  21   35769.6    279.6      1.65682   0.07882  -0.25856  -0.50751
  22   36223.9    276.1    -36.32624   0.18072  -0.12958   1.70879
  23   36645.5    272.9    -501.72723   2.57394   0.03573   1.62432
  24   36920.7    270.9    485.31902   0.25718  -0.29778   1.12236
  25   37117.8    269.4     20.30763  -0.86085   0.03042  -0.82585
  26   37645.9    265.6    -309.41541  -0.58115  -0.41886  -2.63546
  27   37727.9    265.1      9.43811  -0.10164  -0.30245  -0.46637
  28   37950.9    263.5    -478.70342   2.43132   0.07764   3.22051
  29   38247.9    261.5    549.47360   0.37638   0.96128  -1.19624
  30   38325.0    260.9     -9.32792  -0.47345  -0.18951   1.53208
  31   38478.8    259.9    154.88443   0.71924   0.00486   1.38672
  32   39045.7    256.1    -62.07692  -0.04234   0.24092  -0.48409
  33   39186.9    255.2     45.16460   1.06271   0.26384  -2.29450
  34   39878.6    250.8     98.49207   0.58068   0.33319  -1.59081
  35   40300.8    248.1    -48.19582   0.70916  -0.23934  -0.57231

sTD-DFT done

Total run time:        4.417 sec

           *** ORCA-CIS/TD-DFT FINISHED WITHOUT ERROR ***

-------------------------   --------------------
FINAL SINGLE POINT ENERGY     -4552.270942587240
-------------------------   --------------------


                            ***************************************
                            *     ORCA property calculations      *
                            ***************************************

                                    ---------------------
                                    Active property flags
                                    ---------------------
   (+) Dipole Moment


------------------------------------------------------------------------------
                       ORCA ELECTRIC PROPERTIES CALCULATION
------------------------------------------------------------------------------

Dipole Moment Calculation                       ... on
Quadrupole Moment Calculation                   ... off
Polarizability Calculation                      ... off
GBWName                                         ... IDST-4F.gbw
Electron density file                           ... IDST-4F.scfp
The origin for moment calculation is the CENTER OF MASS  = (-0.747065,  4.115628  2.600332)

-------------
DIPOLE MOMENT
-------------
                                X             Y             Z
Electronic contribution:     41.05952      12.82239      18.70302
Nuclear contribution   :    -42.06127     -13.89680     -19.06208
                        -----------------------------------------
Total Dipole Moment    :     -1.00175      -1.07441      -0.35907
                        -----------------------------------------
Magnitude (a.u.)       :      1.51221
Magnitude (Debye)      :      3.84374



--------------------
Rotational spectrum 
--------------------
 
Rotational constants in cm-1:     0.001717     0.000292     0.000261 
Rotational constants in MHz :    51.485562     8.759856     7.829477 

 Dipole components along the rotational axes: 
x,y,z [a.u.] :     0.982401    -1.092297     0.358561 
x,y,z [Debye]:     2.497064    -2.776399     0.911389 

 

Timings for individual modules:

Sum of individual times         ...     3950.661 sec (=  65.844 min)
GTO integral calculation        ...        3.896 sec (=   0.065 min)   0.1 %
SCF iterations                  ...     3942.284 sec (=  65.705 min)  99.8 %
CIS module                      ...        4.481 sec (=   0.075 min)   0.1 %
                             ****ORCA TERMINATED NORMALLY****
TOTAL RUN TIME: 0 days 1 hours 5 minutes 51 seconds 200 msec
