
                                 *****************
                                 * O   R   C   A *
                                 *****************

           --- An Ab Initio, DFT and Semiempirical electronic structure package ---

                  #######################################################
                  #                        -***-                        #
                  #          Department of theory and spectroscopy      #
                  #               Directorship: Frank Neese             #
                  #        Max Planck Institute fuer Kohlenforschung    #
                  #                Kaiser Wilhelm Platz 1               #
                  #                 D-45470 Muelheim/Ruhr               #
                  #                      Germany                        #
                  #                                                     #
                  #                  All rights reserved                #
                  #                        -***-                        #
                  #######################################################


                         Program Version 4.2.0 -  RELEASE  -


 With contributions from (in alphabetic order):
   Daniel Aravena         : Magnetic Suceptibility
   Michael Atanasov       : Ab Initio Ligand Field Theory (pilot matlab implementation)
   Alexander A. Auer      : GIAO ZORA, VPT2
   Ute Becker             : Parallelization
   Giovanni Bistoni       : ED, misc. LED, open-shell LED, HFLED
   Martin Brehm           : Molecular dynamics
   Dmytro Bykov           : SCF Hessian
   Vijay G. Chilkuri      : MRCI spin determinant printing, contributions to CSF-ICE
   Dipayan Datta          : RHF DLPNO-CCSD density
   Achintya Kumar Dutta   : EOM-CC, STEOM-CC
   Dmitry Ganyushin       : Spin-Orbit,Spin-Spin,Magnetic field MRCI
   Miquel Garcia          : C-PCM Hessian, Gaussian charge scheme
   Yang Guo               : DLPNO-NEVPT2, CIM, IAO-localization
   Andreas Hansen         : Spin unrestricted coupled pair/coupled cluster methods
   Benjamin Helmich-Paris : CASSCF linear response (MC-RPA)
   Lee Huntington         : MR-EOM, pCC
   Robert Izsak           : Overlap fitted RIJCOSX, COSX-SCS-MP3, EOM
   Christian Kollmar      : KDIIS, OOCD, Brueckner-CCSD(T), CCSD density
   Simone Kossmann        : Meta GGA functionals, TD-DFT gradient, OOMP2, MP2 Hessian
   Martin Krupicka        : AUTO-CI
   Lucas Lang             : DCDCAS
   Dagmar Lenk            : GEPOL surface, SMD
   Dimitrios Liakos       : Extrapolation schemes; Compound Job, initial MDCI parallelization
   Dimitrios Manganas     : Further ROCIS development; embedding schemes
   Dimitrios Pantazis     : SARC Basis sets
   Taras Petrenko         : DFT Hessian,TD-DFT gradient, ASA, ECA, R-Raman, ABS, FL, XAS/XES, NRVS
   Peter Pinski           : DLPNO-MP2, DLPNO-MP2 Gradient
   Christoph Reimann      : Effective Core Potentials
   Marius Retegan         : Local ZFS, SOC
   Christoph Riplinger    : Optimizer, TS searches, QM/MM, DLPNO-CCSD(T), (RO)-DLPNO pert. Triples
   Tobias Risthaus        : Range-separated hybrids, TD-DFT gradient, RPA, STAB
   Michael Roemelt        : Original ROCIS implementation
   Masaaki Saitow         : Open-shell DLPNO-CCSD energy and density
   Barbara Sandhoefer     : DKH picture change effects
   Avijit Sen             : IP-ROCIS
   Kantharuban Sivalingam : CASSCF convergence, NEVPT2, FIC-MRCI
   Bernardo de Souza      : ESD, SOC TD-DFT
   Georgi Stoychev        : AutoAux, RI-MP2 NMR
   Willem Van den Heuvel  : Paramagnetic NMR
   Boris Wezisla          : Elementary symmetry handling
   Frank Wennmohs         : Technical directorship


 We gratefully acknowledge several colleagues who have allowed us to
 interface, adapt or use parts of their codes:
   Stefan Grimme, W. Hujo, H. Kruse,             : VdW corrections, initial TS optimization,
                  C. Bannwarth                     DFT functionals, gCP, sTDA/sTD-DF
   Ed Valeev, F. Pavosevic, A. Kumar             : LibInt (2-el integral package), F12 methods
   Garnet Chan, S. Sharma, J. Yang, R. Olivares  : DMRG
   Ulf Ekstrom                                   : XCFun DFT Library
   Mihaly Kallay                                 : mrcc  (arbitrary order and MRCC methods)
   Andreas Klamt, Michael Diedenhofen            : otool_cosmo (COSMO solvation model)
   Jiri Pittner, Ondrej Demel                    : Mk-CCSD
   Frank Weinhold                                : gennbo (NPA and NBO analysis)
   Christopher J. Cramer and Donald G. Truhlar   : smd solvation model
   Lars Goerigk                                  : TD-DFT with DH, B97 family of functionals
   V. Asgeirsson, H. Jonsson                     : NEB implementation
   FAccTs GmbH                                   : IRC, NEB, NEB-TS, Multilevel, MM, QM/MM, CI optimization
   S Lehtola, MJT Oliveira, MAL Marques          : LibXC Library


 Your calculation uses the libint2 library for the computation of 2-el integrals
 For citations please refer to: http://libint.valeyev.net

 Your ORCA version has been built with support for libXC version: 4.2.3
 For citations please refer to: https://tddft.org/programs/libxc/

 This ORCA versions uses:
   CBLAS   interface :  Fast vector & matrix operations
   LAPACKE interface :  Fast linear algebra routines
   SCALAPACK package :  Parallel linear algebra routines


XCFun DFT library Copyright 2009-2010 Ulf Ekstrom and contributors.
See http://admol.org/xcfun for more information. This is free soft-
ware; see the source code for copying conditions. There is ABSOLUTELY
NO WARRANTY; not even for MERCHANTABILITY or FITNESS FOR A PARTICULAR
PURPOSE. For details see the documentation. Scientific users of this 
library should cite U. Ekstrom, L. Visscher, R. Bast, A. J. Thorvald-
sen and K. Ruud; J.Chem.Theor.Comp. 2010, DOI: 10.1021/ct100117s
XCFun Version 0.99 
----- Orbital basis set information -----
Your calculation utilizes the basis: def2-SVP
   F. Weigend and R. Ahlrichs, Phys. Chem. Chem. Phys. 7, 3297 (2005).

----- AuxJ basis set information -----
Your calculation utilizes the auxiliary basis: def2/J
   F. Weigend, Phys. Chem. Chem. Phys. 8, 1057 (2006).

================================================================================
                                        WARNINGS
                       Please study these warnings very carefully!
================================================================================

INFO   : Checking CIS options ...

WARNING: CIS/ROCIS methods need fully converged wavefunctions
  ===> : Setting SCFConvForced true
         You can overwrite this default with %scf ConvForced false 


INFO   : the flag for use of LIBINT has been found!

================================================================================
                                       INPUT FILE
================================================================================
NAME = IDTT-TBTA.inp
|  1> # ORCA input file
|  2> # IDTT-TBTA.out: Geometry 22
|  3> ! CAM-B3LYP def2-SVP def2/J RIJCOSX Grid4 TightSCF
|  4> %maxcore 5000
|  5> %tddft
|  6>     Mode sTDDFT
|  7>     Ethresh 5.0
|  8>     maxcore 5000
|  9> end
| 10> * xyz 0 1
| 11>    C        1.28556         0.49463        -0.63964
| 12>    C        0.47321         1.65982        -0.57698
| 13>    C        0.70118         2.97910        -0.15957
| 14>    C       -0.43306         3.78249        -0.31596
| 15>    C       -1.56281         3.11646        -0.85913
| 16>    S       -1.20179         1.45753        -1.16895
| 17>    C       -2.67574         3.97267        -1.00300
| 18>    C       -4.08860         3.89574        -1.56949
| 19>    C       -5.01393         2.97259        -0.76275
| 20>    C       -4.68925         2.55802         0.53354
| 21>    C       -5.54698         1.72242         1.25250
| 22>    C       -6.75765         1.28030         0.70343
| 23>    C       -7.70456         0.41914         1.50481
| 24>    C       -8.65859         1.25281         2.37163
| 25>    C       -7.08223         1.70550        -0.59359
| 26>    C       -6.22616         2.53493        -1.31694
| 27>    C       -3.96736         3.43574        -3.02942
| 28>    C       -3.91248         4.32662        -4.10472
| 29>    C       -3.66819         3.86197        -5.40226
| 30>    C       -3.46653         2.50183        -5.66323
| 31>    C       -3.12420         1.99037        -7.04237
| 32>    C       -1.65877         1.54141        -7.14229
| 33>    C       -3.53890         1.61190        -4.58017
| 34>    C       -3.78711         2.06774        -3.28986
| 35>    C       -4.54178         5.36092        -1.39139
| 36>    C       -3.51924         6.13747        -0.77630
| 37>    C       -2.38459         5.26187        -0.57989
| 38>    S       -0.76258         5.47786         0.01271
| 39>    C       -3.70540         7.49459        -0.46893
| 40>    C       -4.92723         8.06802        -0.78445
| 41>    C       -5.38707         9.52124        -0.55587
| 42>    C       -5.52693         9.89457         0.93087
| 43>    C       -5.72729        11.23957         1.28065
| 44>    C       -5.90717        11.61504         2.60944
| 45>    C       -5.88525        10.66489         3.64238
| 46>    C       -5.97974        11.09487         5.08782
| 47>    C       -4.62179        11.54738         5.64519
| 48>    C       -5.69755         9.32357         3.28709
| 49>    C       -5.52575         8.94026         1.95303
| 50>    C       -4.44618        10.49422        -1.28340
| 51>    C       -4.73112        10.97025        -2.56856
| 52>    C       -3.87022        11.86586        -3.20582
| 53>    C       -2.69372        12.30809        -2.58675
| 54>    C       -1.75102        13.24787        -3.29875
| 55>    C       -0.77086        12.50497        -4.21618
| 56>    C       -2.40168        11.81235        -1.30757
| 57>    C       -3.26254        10.92348        -0.66450
| 58>    C       -6.77653         9.46679        -1.17306
| 59>    C       -7.06456         8.19243        -1.63845
| 60>    C       -5.94508         7.29928        -1.41841
| 61>    C       -5.76012         5.93888        -1.72004
| 62>    S       -8.64208         8.03676        -2.36706
| 63>    C       -8.93779         9.74318        -2.05206
| 64>    C       -7.84392        10.36146        -1.39538
| 65>    S       -8.12937        12.03741        -1.08161
| 66>    C       -9.71876        11.93632        -1.86751
| 67>    C       -9.98346        10.62955        -2.32290
| 68>    C      -10.66569        12.97298        -2.07728
| 69>    C        2.59955         0.19050        -0.33151
| 70>    C      -10.76001        14.30868        -1.74513
| 71>    C      -11.96320        15.00874        -2.22407
| 72>    N      -12.07837        16.36570        -1.86934
| 73>    C      -11.12800        17.08433        -1.16302
| 74>    N      -10.03274        16.37863        -0.68571
| 75>    C       -9.77266        15.02572        -0.95566
| 76>    C        3.57647         1.11929         0.22565
| 77>    N        4.86877         0.61726         0.46274
| 78>    C        5.30558        -0.64962         0.11397
| 79>    N        4.35619        -1.52273        -0.38927
| 80>    C        3.00524        -1.20114        -0.62040
| 81>    O      -12.82891        14.47561        -2.89810
| 82>    O       -8.74791        14.50830        -0.52995
| 83>    C       -8.99746        17.07793         0.10174
| 84>    C       -7.92793        17.70428        -0.78198
| 85>    C      -13.28158        17.05236        -2.38218
| 86>    C      -13.04933        17.66027        -3.76189
| 87>    S      -11.28955        18.72513        -0.89727
| 88>    O        3.34090         2.28772         0.49979
| 89>    C        5.81835         1.58344         1.05049
| 90>    S        6.90352        -1.10129         0.29684
| 91>    C        4.77328        -2.87517        -0.80987
| 92>    O        2.24195        -2.04508        -1.06077
| 93>    C        5.30933        -2.87661        -2.23779
| 94>    C        6.52836         2.41924        -0.00572
| 95>    H        0.76715        -0.38556        -1.03788
| 96>    H        1.66643         3.28403         0.23258
| 97>    H       -3.75103         2.88347         0.98540
| 98>    H       -5.25908         1.39130         2.25420
| 99>    H       -7.12176        -0.25966         2.14974
|100>    H       -8.29020        -0.22016         0.82316
|101>    H       -8.09493         1.89881         3.06352
|102>    H       -9.32315         0.60763         2.96887
|103>    H       -9.28862         1.90738         1.74763
|104>    H       -8.01448         1.36283        -1.05143
|105>    H       -6.49064         2.82194        -2.33626
|106>    H       -4.05548         5.39534        -3.93398
|107>    H       -3.62802         4.57834        -6.22741
|108>    H       -3.33120         2.77325        -7.79020
|109>    H       -3.78409         1.14210        -7.29331
|110>    H       -0.97813         2.38124        -6.93149
|111>    H       -1.42368         1.14476        -8.14310
|112>    H       -1.43662         0.75194        -6.40757
|113>    H       -3.39196         0.54161        -4.75073
|114>    H       -3.85035         1.34981        -2.47056
|115>    H       -2.91599         8.07706         0.00875
|116>    H       -5.72570        12.00837         0.50610
|117>    H       -6.06484        12.67020         2.85032
|118>    H       -6.37296        10.26518         5.69858
|119>    H       -6.70511        11.92051         5.18189
|120>    H       -3.88971        10.72514         5.60854
|121>    H       -4.70906        11.88813         6.68948
|122>    H       -4.21201        12.37949         5.05153
|123>    H       -5.68096         8.55718         4.06719
|124>    H       -5.38206         7.88536         1.71306
|125>    H       -5.64275        10.64994        -3.07468
|126>    H       -4.12970        12.24505        -4.19816
|127>    H       -1.18789        13.84055        -2.55872
|128>    H       -2.33793        13.96673        -3.89479
|129>    H       -0.13319        11.81837        -3.63610
|130>    H       -0.11519        13.20696        -4.75630
|131>    H       -1.31386        11.90150        -4.96099
|132>    H       -1.49402        12.14692        -0.79757
|133>    H       -3.02698        10.58433         0.34577
|134>    H       -6.54882         5.35765        -2.20060
|135>    H      -10.91429        10.37572        -2.83028
|136>    H      -11.53885        12.63535        -2.64631
|137>    H       -8.55597        16.32434         0.76324
|138>    H       -9.50879        17.84049         0.69868
|139>    H       -7.39675        16.93310        -1.36089
|140>    H       -7.19052        18.23246        -0.15707
|141>    H       -8.37750        18.43474        -1.47023
|142>    H      -13.54646        17.82514        -1.65289
|143>    H      -14.07100        16.29309        -2.41819
|144>    H      -12.25368        18.41880        -3.72075
|145>    H      -13.96924        18.15023        -4.11857
|146>    H      -12.77252        16.88193        -4.48839
|147>    H        6.53874         1.00671         1.64027
|148>    H        5.22832         2.22698         1.71212
|149>    H        3.88484        -3.50890        -0.72162
|150>    H        5.53879        -3.21280        -0.10308
|151>    H        4.53456        -2.54368        -2.94550
|152>    H        5.62486        -3.89188        -2.52520
|153>    H        6.18265        -2.21420        -2.32300
|154>    H        7.12013         1.77734        -0.67533
|155>    H        7.21367         3.12802         0.48594
|156>    H        5.80506         2.99795        -0.60032
|157> *
|158> 
|159>                          ****END OF INPUT****
================================================================================

                       ****************************
                       * Single Point Calculation *
                       ****************************

---------------------------------
CARTESIAN COORDINATES (ANGSTROEM)
---------------------------------
  C      1.285560    0.494630   -0.639640
  C      0.473210    1.659820   -0.576980
  C      0.701180    2.979100   -0.159570
  C     -0.433060    3.782490   -0.315960
  C     -1.562810    3.116460   -0.859130
  S     -1.201790    1.457530   -1.168950
  C     -2.675740    3.972670   -1.003000
  C     -4.088600    3.895740   -1.569490
  C     -5.013930    2.972590   -0.762750
  C     -4.689250    2.558020    0.533540
  C     -5.546980    1.722420    1.252500
  C     -6.757650    1.280300    0.703430
  C     -7.704560    0.419140    1.504810
  C     -8.658590    1.252810    2.371630
  C     -7.082230    1.705500   -0.593590
  C     -6.226160    2.534930   -1.316940
  C     -3.967360    3.435740   -3.029420
  C     -3.912480    4.326620   -4.104720
  C     -3.668190    3.861970   -5.402260
  C     -3.466530    2.501830   -5.663230
  C     -3.124200    1.990370   -7.042370
  C     -1.658770    1.541410   -7.142290
  C     -3.538900    1.611900   -4.580170
  C     -3.787110    2.067740   -3.289860
  C     -4.541780    5.360920   -1.391390
  C     -3.519240    6.137470   -0.776300
  C     -2.384590    5.261870   -0.579890
  S     -0.762580    5.477860    0.012710
  C     -3.705400    7.494590   -0.468930
  C     -4.927230    8.068020   -0.784450
  C     -5.387070    9.521240   -0.555870
  C     -5.526930    9.894570    0.930870
  C     -5.727290   11.239570    1.280650
  C     -5.907170   11.615040    2.609440
  C     -5.885250   10.664890    3.642380
  C     -5.979740   11.094870    5.087820
  C     -4.621790   11.547380    5.645190
  C     -5.697550    9.323570    3.287090
  C     -5.525750    8.940260    1.953030
  C     -4.446180   10.494220   -1.283400
  C     -4.731120   10.970250   -2.568560
  C     -3.870220   11.865860   -3.205820
  C     -2.693720   12.308090   -2.586750
  C     -1.751020   13.247870   -3.298750
  C     -0.770860   12.504970   -4.216180
  C     -2.401680   11.812350   -1.307570
  C     -3.262540   10.923480   -0.664500
  C     -6.776530    9.466790   -1.173060
  C     -7.064560    8.192430   -1.638450
  C     -5.945080    7.299280   -1.418410
  C     -5.760120    5.938880   -1.720040
  S     -8.642080    8.036760   -2.367060
  C     -8.937790    9.743180   -2.052060
  C     -7.843920   10.361460   -1.395380
  S     -8.129370   12.037410   -1.081610
  C     -9.718760   11.936320   -1.867510
  C     -9.983460   10.629550   -2.322900
  C    -10.665690   12.972980   -2.077280
  C      2.599550    0.190500   -0.331510
  C    -10.760010   14.308680   -1.745130
  C    -11.963200   15.008740   -2.224070
  N    -12.078370   16.365700   -1.869340
  C    -11.128000   17.084330   -1.163020
  N    -10.032740   16.378630   -0.685710
  C     -9.772660   15.025720   -0.955660
  C      3.576470    1.119290    0.225650
  N      4.868770    0.617260    0.462740
  C      5.305580   -0.649620    0.113970
  N      4.356190   -1.522730   -0.389270
  C      3.005240   -1.201140   -0.620400
  O    -12.828910   14.475610   -2.898100
  O     -8.747910   14.508300   -0.529950
  C     -8.997460   17.077930    0.101740
  C     -7.927930   17.704280   -0.781980
  C    -13.281580   17.052360   -2.382180
  C    -13.049330   17.660270   -3.761890
  S    -11.289550   18.725130   -0.897270
  O      3.340900    2.287720    0.499790
  C      5.818350    1.583440    1.050490
  S      6.903520   -1.101290    0.296840
  C      4.773280   -2.875170   -0.809870
  O      2.241950   -2.045080   -1.060770
  C      5.309330   -2.876610   -2.237790
  C      6.528360    2.419240   -0.005720
  H      0.767150   -0.385560   -1.037880
  H      1.666430    3.284030    0.232580
  H     -3.751030    2.883470    0.985400
  H     -5.259080    1.391300    2.254200
  H     -7.121760   -0.259660    2.149740
  H     -8.290200   -0.220160    0.823160
  H     -8.094930    1.898810    3.063520
  H     -9.323150    0.607630    2.968870
  H     -9.288620    1.907380    1.747630
  H     -8.014480    1.362830   -1.051430
  H     -6.490640    2.821940   -2.336260
  H     -4.055480    5.395340   -3.933980
  H     -3.628020    4.578340   -6.227410
  H     -3.331200    2.773250   -7.790200
  H     -3.784090    1.142100   -7.293310
  H     -0.978130    2.381240   -6.931490
  H     -1.423680    1.144760   -8.143100
  H     -1.436620    0.751940   -6.407570
  H     -3.391960    0.541610   -4.750730
  H     -3.850350    1.349810   -2.470560
  H     -2.915990    8.077060    0.008750
  H     -5.725700   12.008370    0.506100
  H     -6.064840   12.670200    2.850320
  H     -6.372960   10.265180    5.698580
  H     -6.705110   11.920510    5.181890
  H     -3.889710   10.725140    5.608540
  H     -4.709060   11.888130    6.689480
  H     -4.212010   12.379490    5.051530
  H     -5.680960    8.557180    4.067190
  H     -5.382060    7.885360    1.713060
  H     -5.642750   10.649940   -3.074680
  H     -4.129700   12.245050   -4.198160
  H     -1.187890   13.840550   -2.558720
  H     -2.337930   13.966730   -3.894790
  H     -0.133190   11.818370   -3.636100
  H     -0.115190   13.206960   -4.756300
  H     -1.313860   11.901500   -4.960990
  H     -1.494020   12.146920   -0.797570
  H     -3.026980   10.584330    0.345770
  H     -6.548820    5.357650   -2.200600
  H    -10.914290   10.375720   -2.830280
  H    -11.538850   12.635350   -2.646310
  H     -8.555970   16.324340    0.763240
  H     -9.508790   17.840490    0.698680
  H     -7.396750   16.933100   -1.360890
  H     -7.190520   18.232460   -0.157070
  H     -8.377500   18.434740   -1.470230
  H    -13.546460   17.825140   -1.652890
  H    -14.071000   16.293090   -2.418190
  H    -12.253680   18.418800   -3.720750
  H    -13.969240   18.150230   -4.118570
  H    -12.772520   16.881930   -4.488390
  H      6.538740    1.006710    1.640270
  H      5.228320    2.226980    1.712120
  H      3.884840   -3.508900   -0.721620
  H      5.538790   -3.212800   -0.103080
  H      4.534560   -2.543680   -2.945500
  H      5.624860   -3.891880   -2.525200
  H      6.182650   -2.214200   -2.323000
  H      7.120130    1.777340   -0.675330
  H      7.213670    3.128020    0.485940
  H      5.805060    2.997950   -0.600320

----------------------------
CARTESIAN COORDINATES (A.U.)
----------------------------
  NO LB      ZA    FRAG     MASS         X           Y           Z
   0 C     6.0000    0    12.011    2.429356    0.934715   -1.208744
   1 C     6.0000    0    12.011    0.894237    3.136605   -1.090334
   2 C     6.0000    0    12.011    1.325038    5.629683   -0.301544
   3 C     6.0000    0    12.011   -0.818365    7.147870   -0.597078
   4 C     6.0000    0    12.011   -2.953283    5.889256   -1.623520
   5 S    16.0000    0    32.060   -2.271054    2.754333   -2.208995
   6 C     6.0000    0    12.011   -5.056416    7.507258   -1.895395
   7 C     6.0000    0    12.011   -7.726334    7.361882   -2.965906
   8 C     6.0000    0    12.011   -9.474955    5.617381   -1.441389
   9 C     6.0000    0    12.011   -8.861398    4.833957    1.008244
  10 C     6.0000    0    12.011  -10.482273    3.254902    2.366882
  11 C     6.0000    0    12.011  -12.770108    2.419416    1.329290
  12 C     6.0000    0    12.011  -14.559508    0.792060    2.843679
  13 C     6.0000    0    12.011  -16.362364    2.367468    4.481731
  14 C     6.0000    0    12.011  -13.383475    3.222928   -1.121723
  15 C     6.0000    0    12.011  -11.765737    4.790323   -2.488656
  16 C     6.0000    0    12.011   -7.497224    6.492608   -5.724774
  17 C     6.0000    0    12.011   -7.393516    8.176127   -7.756797
  18 C     6.0000    0    12.011   -6.931875    7.298066  -10.208792
  19 C     6.0000    0    12.011   -6.550792    4.727774  -10.701954
  20 C     6.0000    0    12.011   -5.903882    3.761254  -13.308151
  21 C     6.0000    0    12.011   -3.134621    2.912843  -13.496972
  22 C     6.0000    0    12.011   -6.687552    3.046050   -8.655267
  23 C     6.0000    0    12.011   -7.156601    3.907462   -6.216934
  24 C     6.0000    0    12.011   -8.582720   10.130671   -2.629346
  25 C     6.0000    0    12.011   -6.650400   11.598137   -1.466994
  26 C     6.0000    0    12.011   -4.506222    9.943493   -1.095833
  27 S    16.0000    0    32.060   -1.441067   10.351655    0.024018
  28 C     6.0000    0    12.011   -7.002191   14.162723   -0.886149
  29 C     6.0000    0    12.011   -9.311115   15.246348   -1.482396
  30 C     6.0000    0    12.011  -10.180087   17.992536   -1.050442
  31 C     6.0000    0    12.011  -10.444384   18.698028    1.759089
  32 C     6.0000    0    12.011  -10.823010   21.239709    2.420078
  33 C     6.0000    0    12.011  -11.162934   21.949245    4.931127
  34 C     6.0000    0    12.011  -11.121511   20.153721    6.883101
  35 C     6.0000    0    12.011  -11.300071   20.966266    9.614586
  36 C     6.0000    0    12.011   -8.733917   21.821386   10.667863
  37 C     6.0000    0    12.011  -10.766809   17.618994    6.211700
  38 C     6.0000    0    12.011  -10.442154   16.894643    3.690692
  39 C     6.0000    0    12.011   -8.402063   19.831202   -2.425275
  40 C     6.0000    0    12.011   -8.940521   20.730768   -4.853875
  41 C     6.0000    0    12.011   -7.313656   22.423226   -6.058122
  42 C     6.0000    0    12.011   -5.090393   23.258919   -4.888249
  43 C     6.0000    0    12.011   -3.308948   25.034846   -6.233734
  44 C     6.0000    0    12.011   -1.456714   23.630969   -7.967426
  45 C     6.0000    0    12.011   -4.538517   22.322106   -2.470949
  46 C     6.0000    0    12.011   -6.165307   20.642386   -1.255723
  47 C     6.0000    0    12.011  -12.805786   17.889640   -2.216762
  48 C     6.0000    0    12.011  -13.350084   15.481449   -3.096222
  49 C     6.0000    0    12.011  -11.234573   13.793640   -2.680406
  50 C     6.0000    0    12.011  -10.885049   11.222857   -3.250405
  51 S    16.0000    0    32.060  -16.331164   15.187275   -4.473095
  52 C     6.0000    0    12.011  -16.889975   18.411942   -3.877831
  53 C     6.0000    0    12.011  -14.822861   19.580322   -2.636886
  54 S    16.0000    0    32.060  -15.362283   22.747408   -2.043947
  55 C     6.0000    0    12.011  -18.365795   22.556376   -3.529082
  56 C     6.0000    0    12.011  -18.866005   20.086938   -4.389645
  57 C     6.0000    0    12.011  -20.155233   24.515379   -3.925490
  58 C     6.0000    0    12.011    4.912438    0.359993   -0.626463
  59 C     6.0000    0    12.011  -20.333472   27.039487   -3.297818
  60 C     6.0000    0    12.011  -22.607172   28.362408   -4.202883
  61 N     7.0000    0    14.007  -22.824811   30.926691   -3.532541
  62 C     6.0000    0    12.011  -21.028872   32.284705   -2.197789
  63 N     7.0000    0    14.007  -18.959131   30.951125   -1.295804
  64 C     6.0000    0    12.011  -18.467651   28.394496   -1.805936
  65 C     6.0000    0    12.011    6.758549    2.115152    0.426417
  66 N     7.0000    0    14.007    9.200642    1.166452    0.874452
  67 C     6.0000    0    12.011   10.026093   -1.227604    0.215372
  68 N     7.0000    0    14.007    8.232006   -2.877543   -0.735614
  69 C     6.0000    0    12.011    5.679081   -2.269826   -1.172386
  70 O     8.0000    0    15.999  -24.243126   27.354939   -5.476615
  71 O     8.0000    0    15.999  -16.531154   27.416714   -1.001460
  72 C     6.0000    0    12.011  -17.002735   32.272611    0.192261
  73 C     6.0000    0    12.011  -14.981617   33.456241   -1.477728
  74 C     6.0000    0    12.011  -25.098549   32.224290   -4.501668
  75 C     6.0000    0    12.011  -24.659660   33.373074   -7.108942
  76 S    16.0000    0    32.060  -21.334158   35.385368   -1.695595
  77 O     8.0000    0    15.999    6.313386    4.323164    0.944466
  78 C     6.0000    0    12.011   10.995088    2.992268    1.985138
  79 S    16.0000    0    32.060   13.045762   -2.081136    0.560946
  80 C     6.0000    0    12.011    9.020192   -5.433284   -1.530433
  81 O     8.0000    0    15.999    4.236672   -3.864641   -2.004565
  82 C     6.0000    0    12.011   10.033180   -5.436005   -4.228810
  83 C     6.0000    0    12.011   12.336813    4.571701   -0.010809
  84 H     1.0000    0     1.008    1.449703   -0.728603   -1.961309
  85 H     1.0000    0     1.008    3.149096    6.205917    0.439513
  86 H     1.0000    0     1.008   -7.088419    5.448969    1.862136
  87 H     1.0000    0     1.008   -9.938221    2.629176    4.259821
  88 H     1.0000    0     1.008  -13.458176   -0.490686    4.062420
  89 H     1.0000    0     1.008  -15.666208   -0.416042    1.555547
  90 H     1.0000    0     1.008  -15.297201    3.588231    5.789214
  91 H     1.0000    0     1.008  -17.618200    1.148254    5.610351
  92 H     1.0000    0     1.008  -17.552948    3.604426    3.302542
  93 H     1.0000    0     1.008  -15.145172    2.575375   -1.986915
  94 H     1.0000    0     1.008  -12.265532    5.332694   -4.414892
  95 H     1.0000    0     1.008   -7.663747   10.195715   -7.434145
  96 H     1.0000    0     1.008   -6.855964    8.651809  -11.768099
  97 H     1.0000    0     1.008   -6.295056    5.240683  -14.721345
  98 H     1.0000    0     1.008   -7.150894    2.158256  -13.782359
  99 H     1.0000    0     1.008   -1.848398    4.499891  -13.098618
 100 H     1.0000    0     1.008   -2.690365    2.163283  -15.388229
 101 H     1.0000    0     1.008   -2.714818    1.420961  -12.108552
 102 H     1.0000    0     1.008   -6.409875    1.023495   -8.977579
 103 H     1.0000    0     1.008   -7.276107    2.550771   -4.668682
 104 H     1.0000    0     1.008   -5.510423   15.263431    0.016535
 105 H     1.0000    0     1.008  -10.820005   22.692531    0.956390
 106 H     1.0000    0     1.008  -11.460887   23.943208    5.386324
 107 H     1.0000    0     1.008  -12.043149   19.398379   10.768756
 108 H     1.0000    0     1.008  -12.670822   22.526499    9.792353
 109 H     1.0000    0     1.008   -7.350487   20.267577   10.598605
 110 H     1.0000    0     1.008   -8.898834   22.465310   12.641285
 111 H     1.0000    0     1.008   -7.959545   23.393846    9.546008
 112 H     1.0000    0     1.008  -10.735459   16.170727    7.685875
 113 H     1.0000    0     1.008  -10.170619   14.901171    3.237214
 114 H     1.0000    0     1.008  -10.663252   20.125470   -5.810303
 115 H     1.0000    0     1.008   -7.804002   23.139791   -7.933373
 116 H     1.0000    0     1.008   -2.244787   26.154849   -4.835280
 117 H     1.0000    0     1.008   -4.418047   26.393295   -7.360086
 118 H     1.0000    0     1.008   -0.251693   22.333483   -6.871233
 119 H     1.0000    0     1.008   -0.217678   24.957537   -8.988104
 120 H     1.0000    0     1.008   -2.482836   22.490576   -9.374912
 121 H     1.0000    0     1.008   -2.823289   22.954352   -1.507189
 122 H     1.0000    0     1.008   -5.720163   20.001485    0.653411
 123 H     1.0000    0     1.008  -12.375476   10.124491   -4.158531
 124 H     1.0000    0     1.008  -20.625019   19.607269   -5.348454
 125 H     1.0000    0     1.008  -21.805266   23.877351   -5.000801
 126 H     1.0000    0     1.008  -16.168440   30.848532    1.442315
 127 H     1.0000    0     1.008  -17.969009   33.713640    1.320314
 128 H     1.0000    0     1.008  -13.977832   31.998922   -2.571709
 129 H     1.0000    0     1.008  -13.588114   34.454356   -0.296819
 130 H     1.0000    0     1.008  -15.831181   34.836610   -2.778332
 131 H     1.0000    0     1.008  -25.599099   33.684633   -3.123509
 132 H     1.0000    0     1.008  -26.590336   30.789478   -4.569717
 133 H     1.0000    0     1.008  -23.156099   34.806488   -7.031199
 134 H     1.0000    0     1.008  -26.398038   34.298964   -7.782969
 135 H     1.0000    0     1.008  -24.136565   31.902224   -8.481828
 136 H     1.0000    0     1.008   12.356428    1.902406    3.099661
 137 H     1.0000    0     1.008    9.880093    4.208382    3.235438
 138 H     1.0000    0     1.008    7.341284   -6.630860   -1.363664
 139 H     1.0000    0     1.008   10.466796   -6.071312   -0.194793
 140 H     1.0000    0     1.008    8.569077   -4.806859   -5.566188
 141 H     1.0000    0     1.008   10.629445   -7.354587   -4.771936
 142 H     1.0000    0     1.008   11.683515   -4.184232   -4.389834
 143 H     1.0000    0     1.008   13.455096    3.358686   -1.276189
 144 H     1.0000    0     1.008   13.631861    5.911101    0.918294
 145 H     1.0000    0     1.008   10.969974    5.665304   -1.134440

--------------------------------
INTERNAL COORDINATES (ANGSTROEM)
--------------------------------
 C      0   0   0     0.000000000000     0.00000000     0.00000000
 C      1   0   0     1.421796938455     0.00000000     0.00000000
 C      2   1   0     1.402391224801   133.72441566     0.00000000
 C      3   2   1     1.398711443365   112.03903368   178.92187557
 C      4   3   2     1.419494512952   114.75122799   359.78630846
 S      5   4   3     1.725796227166   110.68479453     0.36496036
 C      5   4   3     1.411526594117   112.45208582   180.33874893
 C      7   5   4     1.524139929468   137.57475597   175.74063575
 C      8   7   5     1.535991848611   113.17671154    67.87067604
 C      9   8   7     1.399161588738   121.66088944    16.28383593
 C     10   9   8     1.396721731234   120.77451419   179.74739177
 C     11  10   9     1.400953178447   121.18148232   359.67169987
 C     12  11  10     1.510114233461   120.92115986   182.30176916
 C     13  12  11     1.535107755892   112.31225568    86.33612929
 C     12  11  10     1.402999678118   117.81398921   359.93964153
 C     15  12  11     1.394290210932   121.18805920     0.34063198
 C      8   7   5     1.535478668852   107.17661485   304.49866817
 C     17   8   7     1.397479545038   122.93714675   265.93503712
 C     18  17   8     1.399709712119   120.56548429   173.59012801
 C     19  18  17     1.399554542024   121.37359490   359.71583006
 C     20  19  18     1.510234518245   122.14519650   183.54936189
 C     21  20  19     1.535914767459   112.00413290   107.36763611
 C     20  19  18     1.403649452463   117.70047244     1.01135531
 C     23  20  19     1.390790496732   121.14845095   359.27387822
 C      8   7   5     1.543970257097   100.44627572   184.43467569
 C     25   8   7     1.423711228515   110.89353829   358.78500418
 C      7   5   4     1.387741703128   111.53170325     0.24426074
 S     27   7   5     1.740328382863   114.49741793   359.66505507
 C     26  25   8     1.403889795141   121.77745202   181.99339517
 C     29  26  25     1.386089241066   117.83789714   359.97073388
 C     30  29  26     1.541281937350   128.26505067   179.95996205
 C     31  30  29     1.539263439474   113.51777869   293.45493002
 C     32  31  30     1.404106540829   119.07183006   169.82117423
 C     33  32  31     1.392486049984   120.96001807   177.65823653
 C     34  33  32     1.403649013286   121.17768614     0.43581820
 C     35  34  33     1.510995683018   120.68811601   175.46999747
 C     36  35  34     1.536051698186   112.06531855   277.95573194
 C     35  34  33     1.400214846550   117.63321570   358.99693584
 C     32  31  30     1.398399096860   122.71198261   346.73758886
 C     31  30  29     1.536640482807   110.12766976    58.68776977
 C     40  31  30     1.399796981744   121.69315765    94.62546720
 C     41  40  31     1.396197117065   120.77545346   179.26448797
 C     42  41  40     1.401059344853   121.23646793     0.45540509
 C     43  42  41     1.509574025479   120.82950956   178.36007518
 C     44  43  42     1.534370177141   112.30349871   275.42414094
 C     43  42  41     1.402621467681   117.79121510     0.53159158
 C     46  43  42     1.394528178776   121.15161723   359.10842106
 C     31  30  29     1.521343942112   100.28671759   177.92742475
 C     48  31  30     1.386918361909   111.01977926     1.33913193
 C     30  29  26     1.424389375031   120.52693255   359.06536124
 C     25   8   7     1.387948464353   128.71869837   180.20438812
 S     49  48  31     1.744613146632   114.19937646   180.09019520
 C     52  49  48     1.760266633354    89.46523924     0.33038435
 C     48  31  30     1.410383636958   137.09188000   181.25359775
 S     54  48  31     1.728797766629   135.34116098     0.54922628
 C     55  54  48     1.775955677994    90.70314055   177.61714845
 C     53  52  49     1.397294468392   134.90824227   177.65861574
 C     56  55  54     1.419628061641   128.37297117   181.62973461
 C      1   2   3     1.383477095546   135.47927448   359.55293981
 C     58  56  55     1.379606601499   135.80908216   356.70592244
 C     60  58  56     1.472118780296   115.97387255   178.68177590
 N     61  60  58     1.407280335754   116.32243045   178.91704149
 C     62  61  60     1.385106550486   124.93603425     2.82081677
 N     63  62  61     1.387599291474   116.94451531   354.78045417
 C     64  63  62     1.403880364205   124.76385244     5.21085022
 C     59   1   2     1.458578354460   125.53703937     1.29757720
 N     66  59   1     1.406515225300   116.90359531   180.35082730
 C     67  66  59     1.384712397359   125.02525249     5.23545067
 N     68  67  66     1.384526251755   116.88468666   353.53389942
 C     69  68  67     1.407802225989   125.00461337     2.71535023
 O     61  60  58     1.219835169972   123.50283087   358.56607389
 O     65  64  63     1.224363109131   119.69982747   177.06771645
 C     64  63  62     1.476787957325   119.73134428   181.38236719
 C     73  64  63     1.522225273013   112.19990854   272.97738091
 C     62  61  60     1.477234282468   115.29991534   178.93397178
 C     75  62  61     1.525481666458   112.03781442   271.13078534
 S     63  62  61     1.670013803835   121.63618207   174.74071109
 O     66  59   1     1.223059536327   124.39892363     0.67972425
 C     67  66  59     1.476704449543   115.11143128   181.10383699
 S     68  67  66     1.670586564474   121.43442510   173.68371763
 C     69  68  67     1.476469566805   119.17503977   178.43814629
 O     70  69  68     1.220152484159   120.10327501   180.41641963
 C     81  69  68     1.525223656550   111.52107605   275.57754401
 C     79  67  66     1.522581821841   112.51463053   273.21535830
 H      1   2   3     1.096393388251   113.81389422   180.48656195
 H      3   2   1     1.085574267335   121.08475732   358.84427697
 H     10   9   8     1.091032506619   119.66147111   359.18873157
 H     11  10   9     1.093585732533   119.40439539   178.44051419
 H     13  12  11     1.102887113398   109.26586148   324.72710541
 H     13  12  11     1.102871444050   109.60531300   208.28623848
 H     14  13  12     1.101698855269   110.79927773   301.87824520
 H     14  13  12     1.102085678883   111.27407602   181.51895970
 H     14  13  12     1.102168628568   110.98285896    61.16191102
 H     15  12  11     1.093677400791   119.29106908   179.09592434
 H     16  15  12     1.091484160627   119.48156407   177.97416686
 H     18  17   8     1.091679250513   119.90710966   353.92795055
 H     19  18  17     1.093467936567   119.23986245   180.10879648
 H     21  20  19     1.102270295027   109.66089405   344.89948765
 H     21  20  19     1.103624795209   109.41507990   228.76609413
 H     22  21  20     1.101372724603   110.74975220   299.40461348
 H     22  21  20     1.101916143225   111.58386097   178.48587079
 H     22  21  20     1.101102620921   111.01817132    58.26942134
 H     23  20  19     1.093710547311   119.54977815   179.64128820
 H     24  23  20     1.091180678211   119.42553670   179.21355108
 H     29  26  25     1.091154265629   121.06037645   179.58033030
 H     33  32  31     1.091321983010   119.85456821   356.58156473
 H     34  33  32     1.093730144460   119.26938120   180.22902918
 H     36  35  34     1.102739879618   109.75633746   155.90153753
 H     36  35  34     1.103037719845   109.61566516    39.44777956
 H     37  36  35     1.101527560481   110.82849098   298.95789377
 H     37  36  35     1.101938391880   111.40499654   178.22001869
 H     37  36  35     1.101253329666   110.85138690    58.10044071
 H     38  35  34     1.093702368197   119.49226275   180.33816499
 H     39  32  31     1.091350735098   119.93549324     2.48011218
 H     41  40  31     1.090791092465   119.75267069     0.11538886
 H     42  41  40     1.093550914270   119.36040400   181.73372523
 H     44  43  42     1.102737221735   109.69268625   153.30374957
 H     44  43  42     1.102944572179   109.16777055    36.95263862
 H     45  44  43     1.102059615130   110.88834490   298.32287307
 H     45  44  43     1.102008495158   111.38942052   177.89182071
 H     45  44  43     1.101710931688   110.76801394    57.52383411
 H     46  43  42     1.093564703390   119.34079597   180.49534877
 H     47  46  43     1.091401259391   119.45186100   182.28731907
 H     51  25   8     1.091244205712   121.12547384   357.86013673
 H     57  53  52     1.090095694056   125.55799187     0.80387863
 H     58  56  55     1.095535277113   112.54027594   176.46105526
 H     73  64  63     1.095624734204   106.18411964   152.14568694
 H     73  64  63     1.095122589531   107.04100366    34.94872370
 H     74  73  64     1.100912154942   110.85770704   298.16465667
 H     74  73  64     1.101480879816   109.77456560   178.76526983
 H     74  73  64     1.099714989895   110.45116272    59.69200308
 H     75  62  61     1.095086410700   107.08760513   149.23208310
 H     75  62  61     1.095888493142   106.02651651    32.18986826
 H     76  75  62     1.100054172757   110.55319329   298.43763184
 H     76  75  62     1.101596946301   110.05676627   179.18445354
 H     76  75  62     1.100108713582   110.71050485    59.71491758
 H     79  67  66     1.095180210468   107.02392655   151.22020721
 H     79  67  66     1.095460355011   106.16503602    34.01197322
 H     81  69  68     1.094864105266   106.14117316   154.43911555
 H     81  69  68     1.095240467249   107.21664346    37.26744953
 H     83  81  69     1.100892538761   110.74509959   299.06510893
 H     83  81  69     1.101334128183   110.23544084   179.33301978
 H     83  81  69     1.099425110956   110.55875653    60.09677390
 H     84  79  67     1.100274917918   110.65429078   298.55196608
 H     84  79  67     1.101702518877   109.49060392   179.37358083
 H     84  79  67     1.100734897285   110.91023989    60.09546082

---------------------------
INTERNAL COORDINATES (A.U.)
---------------------------
 C      0   0   0     0.000000000000     0.00000000     0.00000000
 C      1   0   0     2.686806831728     0.00000000     0.00000000
 C      2   1   0     2.650135347489   133.72441566     0.00000000
 C      3   2   1     2.643181568341   112.03903368   178.92187557
 C      4   3   2     2.682455878083   114.75122799   359.78630846
 S      5   4   3     3.261282232298   110.68479453     0.36496036
 C      5   4   3     2.667398693628   112.45208582   180.33874893
 C      7   5   4     2.880207056469   137.57475597   175.74063575
 C      8   7   5     2.902603937811   113.17671154    67.87067604
 C      9   8   7     2.644032219817   121.66088944    16.28383593
 C     10   9   8     2.639421557328   120.77451419   179.74739177
 C     11  10   9     2.647417833711   121.18148232   359.67169987
 C     12  11  10     2.853702332177   120.92115986   182.30176916
 C     13  12  11     2.900933244694   112.31225568    86.33612929
 C     12  11  10     2.651285157623   117.81398921   359.93964153
 C     15  12  11     2.634826649868   121.18805920     0.34063198
 C      8   7   5     2.901634168609   107.17661485   304.49866817
 C     17   8   7     2.640853617879   122.93714675   265.93503712
 C     18  17   8     2.645068022894   120.56548429   173.59012801
 C     19  18  17     2.644774793911   121.37359490   359.71583006
 C     20  19  18     2.853929637478   122.14519650   183.54936189
 C     21  20  19     2.902458275544   112.00413290   107.36763611
 C     20  19  18     2.652513053184   117.70047244     1.01135531
 C     23  20  19     2.628213148484   121.14845095   359.27387822
 C      8   7   5     2.917680944833   100.44627572   184.43467569
 C     25   8   7     2.690424315682   110.89353829   358.78500418
 C      7   5   4     2.622451763533   111.53170325     0.24426074
 S     27   7   5     3.288744026702   114.49741793   359.66505507
 C     26  25   8     2.652967235023   121.77745202   181.99339517
 C     29  26  25     2.619329062790   117.83789714   359.97073388
 C     30  29  26     2.912600756750   128.26505067   179.95996205
 C     31  30  29     2.908786348563   113.51777869   293.45493002
 C     32  31  30     2.653376825015   119.07183006   169.82117423
 C     33  32  31     2.631417279776   120.96001807   177.65823653
 C     34  33  32     2.652512223260   121.17768614     0.43581820
 C     35  34  33     2.855368030442   120.68811601   175.46999747
 C     36  35  34     2.902717037116   112.06531855   277.95573194
 C     35  34  33     2.646022588631   117.63321570   358.99693584
 C     32  31  30     2.642591318989   122.71198261   346.73758886
 C     31  30  29     2.903829678801   110.12766976    58.68776977
 C     40  31  30     2.645232938586   121.69315765    94.62546720
 C     41  40  31     2.638430180223   120.77545346   179.26448797
 C     42  41  40     2.647618459143   121.23646793     0.45540509
 C     43  42  41     2.852681487036   120.82950956   178.36007518
 C     44  43  42     2.899539422853   112.30349871   275.42414094
 C     43  42  41     2.650570443476   117.79121510     0.53159158
 C     46  43  42     2.635276343922   121.15161723   359.10842106
 C     31  30  29     2.874923406091   100.28671759   177.92742475
 C     48  31  30     2.620895874114   111.01977926     1.33913193
 C     30  29  26     2.691705826875   120.52693255   359.06536124
 C     25   8   7     2.622842485624   128.71869837   180.20438812
 S     49  48  31     3.296841056772   114.19937646   180.09019520
 C     52  49  48     3.326421859719    89.46523924     0.33038435
 C     48  31  30     2.665238817615   137.09188000   181.25359775
 S     54  48  31     3.266954319863   135.34116098     0.54922628
 C     55  54  48     3.356069857392    90.70314055   177.61714845
 C     53  52  49     2.640503873705   134.90824227   177.65861574
 C     56  55  54     2.682708248532   128.37297117   181.62973461
 C      1   2   3     2.614392823134   135.47927448   359.55293981
 C     58  56  55     2.607078649383   135.80908216   356.70592244
 C     60  58  56     2.781901331362   115.97387255   178.68177590
 N     61  60  58     2.659374428228   116.32243045   178.91704149
 C     62  61  60     2.617472046719   124.93603425     2.82081677
 N     63  62  61     2.622182644510   116.94451531   354.78045417
 C     64  63  62     2.652949413137   124.76385244     5.21085022
 C     59   1   2     2.756313634795   125.53703937     1.29757720
 N     66  59   1     2.657928579007   116.90359531   180.35082730
 C     67  66  59     2.616727205254   125.02525249     5.23545067
 N     68  67  66     2.616375441042   116.88468666   353.53389942
 C     69  68  67     2.660360657844   125.00461337     2.71535023
 O     61  60  58     2.305154399772   123.50283087   358.56607389
 O     65  64  63     2.313710964733   119.69982747   177.06771645
 C     64  63  62     2.790724797217   119.73134428   181.38236719
 C     73  64  63     2.876588880128   112.19990854   272.97738091
 C     62  61  60     2.791568229505   115.29991534   178.93397178
 C     75  62  61     2.882742571924   112.03781442   271.13078534
 S     63  62  61     3.155868729117   121.63618207   174.74071109
 O     66  59   1     2.311247569138   124.39892363     0.67972425
 C     67  66  59     2.790566990379   115.11143128   181.10383699
 S     68  67  66     3.156951089864   121.43442510   173.68371763
 C     69  68  67     2.790123126330   119.17503977   178.43814629
 O     70  69  68     2.305754036685   120.10327501   180.41641963
 C     81  69  68     2.882255003858   111.52107605   275.57754401
 C     79  67  66     2.877262659766   112.51463053   273.21535830
 H      1   2   3     2.071883238836   113.81389422   180.48656195
 H      3   2   1     2.051438063295   121.08475732   358.84427697
 H     10   9   8     2.061752640716   119.66147111   359.18873157
 H     11  10   9     2.066577538451   119.40439539   178.44051419
 H     13  12  11     2.084154600954   109.26586148   324.72710541
 H     13  12  11     2.084124990176   109.60531300   208.28623848
 H     14  13  12     2.081909118512   110.79927773   301.87824520
 H     14  13  12     2.082640109206   111.27407602   181.51895970
 H     14  13  12     2.082796861394   110.98285896    61.16191102
 H     15  12  11     2.066750766353   119.29106908   179.09592434
 H     16  15  12     2.062606143098   119.48156407   177.97416686
 H     18  17   8     2.062974809553   119.90710966   353.92795055
 H     19  18  17     2.066354936336   119.23986245   180.10879648
 H     21  20  19     2.082988983159   109.66089405   344.89948765
 H     21  20  19     2.085548617550   109.41507990   228.76609413
 H     22  21  20     2.081292820871   110.74975220   299.40461348
 H     22  21  20     2.082319733242   111.58386097   178.48587079
 H     22  21  20     2.080782398884   111.01817132    58.26942134
 H     23  20  19     2.066813404199   119.54977815   179.64128820
 H     24  23  20     2.062032644444   119.42553670   179.21355108
 H     29  26  25     2.061982731898   121.06037645   179.58033030
 H     33  32  31     2.062299671816   119.85456821   356.58156473
 H     34  33  32     2.066850437443   119.26938120   180.22902918
 H     36  35  34     2.083876369431   109.75633746   155.90153753
 H     36  35  34     2.084439205891   109.61566516    39.44777956
 H     37  36  35     2.081585418276   110.82849098   298.95789377
 H     37  36  35     2.082361777108   111.40499654   178.22001869
 H     37  36  35     2.081067197137   110.85138690    58.10044071
 H     38  35  34     2.066797947914   119.49226275   180.33816499
 H     39  32  31     2.062354005390   119.93549324     2.48011218
 H     41  40  31     2.061296434079   119.75267069     0.11538886
 H     42  41  40     2.066511741469   119.36040400   181.73372523
 H     44  43  42     2.083871346760   109.69268625   153.30374957
 H     44  43  42     2.084263182314   109.16777055    36.95263862
 H     45  44  43     2.082590855850   110.88834490   298.32287307
 H     45  44  43     2.082494253103   111.38942052   177.89182071
 H     45  44  43     2.081931939637   110.76801394    57.52383411
 H     46  43  42     2.066537799130   119.34079597   180.49534877
 H     47  46  43     2.062449482466   119.45186100   182.28731907
 H     51  25   8     2.062152694024   121.12547384   357.86013673
 H     57  53  52     2.059982321533   125.55799187     0.80387863
 H     58  56  55     2.070261643794   112.54027594   176.46105526
 H     73  64  63     2.070430693196   106.18411964   152.14568694
 H     73  64  63     2.069481777283   107.04100366    34.94872370
 H     74  73  64     2.080422470346   110.85770704   298.16465667
 H     74  73  64     2.081497204603   109.77456560   178.76526983
 H     74  73  64     2.078160156270   110.45116272    59.69200308
 H     75  62  61     2.069413409202   107.08760513   149.23208310
 H     75  62  61     2.070929125353   106.02651651    32.18986826
 H     76  75  62     2.078801118988   110.55319329   298.43763184
 H     76  75  62     2.081716538473   110.05676627   179.18445354
 H     76  75  62     2.078904186211   110.71050485    59.71491758
 H     79  67  66     2.069590665074   107.02392655   151.22020721
 H     79  67  66     2.070120061538   106.16503602    34.01197322
 H     81  69  68     2.068993312814   106.14117316   154.43911555
 H     81  69  68     2.069704533889   107.21664346    37.26744953
 H     83  81  69     2.080385401136   110.74509959   299.06510893
 H     83  81  69     2.081219884206   110.23544084   179.33301978
 H     83  81  69     2.077612364462   110.55875653    60.09677390
 H     84  79  67     2.079218266888   110.65429078   298.55196608
 H     84  79  67     2.081916041729   109.49060392   179.37358083
 H     84  79  67     2.080087501918   110.91023989    60.09546082

---------------------
BASIS SET INFORMATION
---------------------
There are 5 groups of distinct atoms

 Group   1 Type C   : 7s4p1d contracted to 3s2p1d pattern {511/31/1}
 Group   2 Type S   : 10s7p1d contracted to 4s3p1d pattern {5311/511/1}
 Group   3 Type N   : 7s4p1d contracted to 3s2p1d pattern {511/31/1}
 Group   4 Type O   : 7s4p1d contracted to 3s2p1d pattern {511/31/1}
 Group   5 Type H   : 4s1p contracted to 2s1p pattern {31/1}

Atom   0C    basis set group =>   1
Atom   1C    basis set group =>   1
Atom   2C    basis set group =>   1
Atom   3C    basis set group =>   1
Atom   4C    basis set group =>   1
Atom   5S    basis set group =>   2
Atom   6C    basis set group =>   1
Atom   7C    basis set group =>   1
Atom   8C    basis set group =>   1
Atom   9C    basis set group =>   1
Atom  10C    basis set group =>   1
Atom  11C    basis set group =>   1
Atom  12C    basis set group =>   1
Atom  13C    basis set group =>   1
Atom  14C    basis set group =>   1
Atom  15C    basis set group =>   1
Atom  16C    basis set group =>   1
Atom  17C    basis set group =>   1
Atom  18C    basis set group =>   1
Atom  19C    basis set group =>   1
Atom  20C    basis set group =>   1
Atom  21C    basis set group =>   1
Atom  22C    basis set group =>   1
Atom  23C    basis set group =>   1
Atom  24C    basis set group =>   1
Atom  25C    basis set group =>   1
Atom  26C    basis set group =>   1
Atom  27S    basis set group =>   2
Atom  28C    basis set group =>   1
Atom  29C    basis set group =>   1
Atom  30C    basis set group =>   1
Atom  31C    basis set group =>   1
Atom  32C    basis set group =>   1
Atom  33C    basis set group =>   1
Atom  34C    basis set group =>   1
Atom  35C    basis set group =>   1
Atom  36C    basis set group =>   1
Atom  37C    basis set group =>   1
Atom  38C    basis set group =>   1
Atom  39C    basis set group =>   1
Atom  40C    basis set group =>   1
Atom  41C    basis set group =>   1
Atom  42C    basis set group =>   1
Atom  43C    basis set group =>   1
Atom  44C    basis set group =>   1
Atom  45C    basis set group =>   1
Atom  46C    basis set group =>   1
Atom  47C    basis set group =>   1
Atom  48C    basis set group =>   1
Atom  49C    basis set group =>   1
Atom  50C    basis set group =>   1
Atom  51S    basis set group =>   2
Atom  52C    basis set group =>   1
Atom  53C    basis set group =>   1
Atom  54S    basis set group =>   2
Atom  55C    basis set group =>   1
Atom  56C    basis set group =>   1
Atom  57C    basis set group =>   1
Atom  58C    basis set group =>   1
Atom  59C    basis set group =>   1
Atom  60C    basis set group =>   1
Atom  61N    basis set group =>   3
Atom  62C    basis set group =>   1
Atom  63N    basis set group =>   3
Atom  64C    basis set group =>   1
Atom  65C    basis set group =>   1
Atom  66N    basis set group =>   3
Atom  67C    basis set group =>   1
Atom  68N    basis set group =>   3
Atom  69C    basis set group =>   1
Atom  70O    basis set group =>   4
Atom  71O    basis set group =>   4
Atom  72C    basis set group =>   1
Atom  73C    basis set group =>   1
Atom  74C    basis set group =>   1
Atom  75C    basis set group =>   1
Atom  76S    basis set group =>   2
Atom  77O    basis set group =>   4
Atom  78C    basis set group =>   1
Atom  79S    basis set group =>   2
Atom  80C    basis set group =>   1
Atom  81O    basis set group =>   4
Atom  82C    basis set group =>   1
Atom  83C    basis set group =>   1
Atom  84H    basis set group =>   5
Atom  85H    basis set group =>   5
Atom  86H    basis set group =>   5
Atom  87H    basis set group =>   5
Atom  88H    basis set group =>   5
Atom  89H    basis set group =>   5
Atom  90H    basis set group =>   5
Atom  91H    basis set group =>   5
Atom  92H    basis set group =>   5
Atom  93H    basis set group =>   5
Atom  94H    basis set group =>   5
Atom  95H    basis set group =>   5
Atom  96H    basis set group =>   5
Atom  97H    basis set group =>   5
Atom  98H    basis set group =>   5
Atom  99H    basis set group =>   5
Atom 100H    basis set group =>   5
Atom 101H    basis set group =>   5
Atom 102H    basis set group =>   5
Atom 103H    basis set group =>   5
Atom 104H    basis set group =>   5
Atom 105H    basis set group =>   5
Atom 106H    basis set group =>   5
Atom 107H    basis set group =>   5
Atom 108H    basis set group =>   5
Atom 109H    basis set group =>   5
Atom 110H    basis set group =>   5
Atom 111H    basis set group =>   5
Atom 112H    basis set group =>   5
Atom 113H    basis set group =>   5
Atom 114H    basis set group =>   5
Atom 115H    basis set group =>   5
Atom 116H    basis set group =>   5
Atom 117H    basis set group =>   5
Atom 118H    basis set group =>   5
Atom 119H    basis set group =>   5
Atom 120H    basis set group =>   5
Atom 121H    basis set group =>   5
Atom 122H    basis set group =>   5
Atom 123H    basis set group =>   5
Atom 124H    basis set group =>   5
Atom 125H    basis set group =>   5
Atom 126H    basis set group =>   5
Atom 127H    basis set group =>   5
Atom 128H    basis set group =>   5
Atom 129H    basis set group =>   5
Atom 130H    basis set group =>   5
Atom 131H    basis set group =>   5
Atom 132H    basis set group =>   5
Atom 133H    basis set group =>   5
Atom 134H    basis set group =>   5
Atom 135H    basis set group =>   5
Atom 136H    basis set group =>   5
Atom 137H    basis set group =>   5
Atom 138H    basis set group =>   5
Atom 139H    basis set group =>   5
Atom 140H    basis set group =>   5
Atom 141H    basis set group =>   5
Atom 142H    basis set group =>   5
Atom 143H    basis set group =>   5
Atom 144H    basis set group =>   5
Atom 145H    basis set group =>   5
---------------------------------
AUXILIARY/J BASIS SET INFORMATION
---------------------------------
There are 5 groups of distinct atoms

 Group   1 Type C   : 12s5p4d2f1g contracted to 6s4p3d1f1g pattern {711111/2111/211/2/1}
 Group   2 Type S   : 14s5p5d2f1g contracted to 8s4p3d1f1g pattern {71111111/2111/311/2/1}
 Group   3 Type N   : 12s5p4d2f1g contracted to 6s4p3d1f1g pattern {711111/2111/211/2/1}
 Group   4 Type O   : 12s5p4d2f1g contracted to 6s4p3d1f1g pattern {711111/2111/211/2/1}
 Group   5 Type H   : 5s2p1d contracted to 3s1p1d pattern {311/2/1}

Atom   0C    basis set group =>   1
Atom   1C    basis set group =>   1
Atom   2C    basis set group =>   1
Atom   3C    basis set group =>   1
Atom   4C    basis set group =>   1
Atom   5S    basis set group =>   2
Atom   6C    basis set group =>   1
Atom   7C    basis set group =>   1
Atom   8C    basis set group =>   1
Atom   9C    basis set group =>   1
Atom  10C    basis set group =>   1
Atom  11C    basis set group =>   1
Atom  12C    basis set group =>   1
Atom  13C    basis set group =>   1
Atom  14C    basis set group =>   1
Atom  15C    basis set group =>   1
Atom  16C    basis set group =>   1
Atom  17C    basis set group =>   1
Atom  18C    basis set group =>   1
Atom  19C    basis set group =>   1
Atom  20C    basis set group =>   1
Atom  21C    basis set group =>   1
Atom  22C    basis set group =>   1
Atom  23C    basis set group =>   1
Atom  24C    basis set group =>   1
Atom  25C    basis set group =>   1
Atom  26C    basis set group =>   1
Atom  27S    basis set group =>   2
Atom  28C    basis set group =>   1
Atom  29C    basis set group =>   1
Atom  30C    basis set group =>   1
Atom  31C    basis set group =>   1
Atom  32C    basis set group =>   1
Atom  33C    basis set group =>   1
Atom  34C    basis set group =>   1
Atom  35C    basis set group =>   1
Atom  36C    basis set group =>   1
Atom  37C    basis set group =>   1
Atom  38C    basis set group =>   1
Atom  39C    basis set group =>   1
Atom  40C    basis set group =>   1
Atom  41C    basis set group =>   1
Atom  42C    basis set group =>   1
Atom  43C    basis set group =>   1
Atom  44C    basis set group =>   1
Atom  45C    basis set group =>   1
Atom  46C    basis set group =>   1
Atom  47C    basis set group =>   1
Atom  48C    basis set group =>   1
Atom  49C    basis set group =>   1
Atom  50C    basis set group =>   1
Atom  51S    basis set group =>   2
Atom  52C    basis set group =>   1
Atom  53C    basis set group =>   1
Atom  54S    basis set group =>   2
Atom  55C    basis set group =>   1
Atom  56C    basis set group =>   1
Atom  57C    basis set group =>   1
Atom  58C    basis set group =>   1
Atom  59C    basis set group =>   1
Atom  60C    basis set group =>   1
Atom  61N    basis set group =>   3
Atom  62C    basis set group =>   1
Atom  63N    basis set group =>   3
Atom  64C    basis set group =>   1
Atom  65C    basis set group =>   1
Atom  66N    basis set group =>   3
Atom  67C    basis set group =>   1
Atom  68N    basis set group =>   3
Atom  69C    basis set group =>   1
Atom  70O    basis set group =>   4
Atom  71O    basis set group =>   4
Atom  72C    basis set group =>   1
Atom  73C    basis set group =>   1
Atom  74C    basis set group =>   1
Atom  75C    basis set group =>   1
Atom  76S    basis set group =>   2
Atom  77O    basis set group =>   4
Atom  78C    basis set group =>   1
Atom  79S    basis set group =>   2
Atom  80C    basis set group =>   1
Atom  81O    basis set group =>   4
Atom  82C    basis set group =>   1
Atom  83C    basis set group =>   1
Atom  84H    basis set group =>   5
Atom  85H    basis set group =>   5
Atom  86H    basis set group =>   5
Atom  87H    basis set group =>   5
Atom  88H    basis set group =>   5
Atom  89H    basis set group =>   5
Atom  90H    basis set group =>   5
Atom  91H    basis set group =>   5
Atom  92H    basis set group =>   5
Atom  93H    basis set group =>   5
Atom  94H    basis set group =>   5
Atom  95H    basis set group =>   5
Atom  96H    basis set group =>   5
Atom  97H    basis set group =>   5
Atom  98H    basis set group =>   5
Atom  99H    basis set group =>   5
Atom 100H    basis set group =>   5
Atom 101H    basis set group =>   5
Atom 102H    basis set group =>   5
Atom 103H    basis set group =>   5
Atom 104H    basis set group =>   5
Atom 105H    basis set group =>   5
Atom 106H    basis set group =>   5
Atom 107H    basis set group =>   5
Atom 108H    basis set group =>   5
Atom 109H    basis set group =>   5
Atom 110H    basis set group =>   5
Atom 111H    basis set group =>   5
Atom 112H    basis set group =>   5
Atom 113H    basis set group =>   5
Atom 114H    basis set group =>   5
Atom 115H    basis set group =>   5
Atom 116H    basis set group =>   5
Atom 117H    basis set group =>   5
Atom 118H    basis set group =>   5
Atom 119H    basis set group =>   5
Atom 120H    basis set group =>   5
Atom 121H    basis set group =>   5
Atom 122H    basis set group =>   5
Atom 123H    basis set group =>   5
Atom 124H    basis set group =>   5
Atom 125H    basis set group =>   5
Atom 126H    basis set group =>   5
Atom 127H    basis set group =>   5
Atom 128H    basis set group =>   5
Atom 129H    basis set group =>   5
Atom 130H    basis set group =>   5
Atom 131H    basis set group =>   5
Atom 132H    basis set group =>   5
Atom 133H    basis set group =>   5
Atom 134H    basis set group =>   5
Atom 135H    basis set group =>   5
Atom 136H    basis set group =>   5
Atom 137H    basis set group =>   5
Atom 138H    basis set group =>   5
Atom 139H    basis set group =>   5
Atom 140H    basis set group =>   5
Atom 141H    basis set group =>   5
Atom 142H    basis set group =>   5
Atom 143H    basis set group =>   5
Atom 144H    basis set group =>   5
Atom 145H    basis set group =>   5
------------------------------------------------------------------------------
                           ORCA GTO INTEGRAL CALCULATION
                           -- RI-GTO INTEGRALS CHOSEN --
------------------------------------------------------------------------------

                         BASIS SET STATISTICS AND STARTUP INFO

Gaussian basis set:
 # of primitive gaussian shells          ... 1354
 # of primitive gaussian functions       ... 2522
 # of contracted shells                  ...  702
 # of contracted basis functions         ... 1510
 Highest angular momentum                ...    2
 Maximum contraction depth               ...    5
Auxiliary gaussian basis set:
 # of primitive gaussian shells          ... 2530
 # of primitive gaussian functions       ... 6914
 # of contracted shells                  ... 1582
 # of contracted aux-basis functions     ... 4810
 Highest angular momentum                ...    4
 Maximum contraction depth               ...    7
Ratio of auxiliary to basis functions    ...  3.19
Integral package used                  ... LIBINT
 One Electron integrals                  ... done
 Ordering auxiliary basis shells         ... done
 Integral threshhold             Thresh  ...  2.500e-11
 Primitive cut-off               TCut    ...  2.500e-12
 Pre-screening matrix                    ... done
 Shell pair data                         ... 
 Ordering of the shell pairs             ... done (   0.019 sec) 73589 of 246753 pairs
 Determination of significant pairs      ... done (   0.000 sec)
 Creation of shell pair data             ... done (   0.010 sec)
 Storage of shell pair data              ... done (   0.018 sec)
 Shell pair data done in (   0.047 sec)
 Computing two index integrals           ... done
 Cholesky decomposition of the V-matrix  ... done


Timings:
 Total evaluation time                   ...   4.240 sec (  0.071 min)
 One electron matrix time                ...   1.135 sec (  0.019 min) = 26.8%
 Schwartz matrix evaluation time         ...   1.202 sec (  0.020 min) = 28.4%
 Two index repulsion integral time       ...   0.844 sec (  0.014 min) = 19.9%
 Cholesky decomposition of V             ...   0.994 sec (  0.017 min) = 23.4%
 Three index repulsion integral time     ...   0.000 sec (  0.000 min) =  0.0%

-------------------------------------------------------------------------------
                                 ORCA SCF
-------------------------------------------------------------------------------

------------
SCF SETTINGS
------------
Hamiltonian:
 Density Functional     Method          .... DFT(GTOs)
 Exchange Functional    Exchange        .... WB88
 Correlation Functional Correlation     .... LYP
 LDA part of GGA corr.  LDAOpt          .... VWN-5
 Gradients option       PostSCFGGA      .... off
 Hybrid DFT is turned on
   Fraction HF Exchange ScalHFX         ....  0.190000
   Scaling of DF-GGA-X  ScalDFX         ....  0.350000
   Scaling of DF-GGA-C  ScalDFC         ....  0.810000
   Scaling of DF-LDA-C  ScalLDAC        ....  1.000000
   Perturbative correction              ....  0.000000
   Density functional embedding theory  .... OFF
 Long-range corrected/Screened/Range-Separated Hybrid DFT is turned on
   Amount of maximum screened exact exchange              ....  0.460000
   Range separation parameter mu (erf(mu*r12)/r12)        ....  0.330000
 RI-approximation to the Coulomb term is turned on
   Number of auxiliary basis functions  .... 4810
   RIJ-COSX (HFX calculated with COS-X)).... on


General Settings:
 Integral files         IntName         .... IDTT-TBTA
 Hartree-Fock type      HFTyp           .... RHF
 Total Charge           Charge          ....    0
 Multiplicity           Mult            ....    1
 Number of Electrons    NEL             ....  638
 Basis Dimension        Dim             .... 1510
 Nuclear Repulsion      ENuc            ....  15114.8762851707 Eh

Convergence Acceleration:
 DIIS                   CNVDIIS         .... on
   Start iteration      DIISMaxIt       ....    12
   Startup error        DIISStart       ....  0.200000
   # of expansion vecs  DIISMaxEq       ....     5
   Bias factor          DIISBfac        ....   1.050
   Max. coefficient     DIISMaxC        ....  10.000
 Newton-Raphson         CNVNR           .... off
 SOSCF                  CNVSOSCF        .... on
   Start iteration      SOSCFMaxIt      ....   150
   Startup grad/error   SOSCFStart      ....  0.003300
 Level Shifting         CNVShift        .... on
   Level shift para.    LevelShift      ....    0.2500
   Turn off err/grad.   ShiftErr        ....    0.0010
 Zerner damping         CNVZerner       .... off
 Static damping         CNVDamp         .... on
   Fraction old density DampFac         ....    0.7000
   Max. Damping (<1)    DampMax         ....    0.9800
   Min. Damping (>=0)   DampMin         ....    0.0000
   Turn off err/grad.   DampErr         ....    0.1000
 Fernandez-Rico         CNVRico         .... off

SCF Procedure:
 Maximum # iterations   MaxIter         ....   125
 SCF integral mode      SCFMode         .... Direct
   Integral package                     .... LIBINT
 Reset frequency        DirectResetFreq ....    20
 Integral Threshold     Thresh          ....  2.500e-11 Eh
 Primitive CutOff       TCut            ....  2.500e-12 Eh

Convergence Tolerance:
 Convergence Check Mode ConvCheckMode   .... Total+1el-Energy
 Convergence forced     ConvForced      .... 1
 Energy Change          TolE            ....  1.000e-08 Eh
 1-El. energy change                    ....  1.000e-05 Eh
 Orbital Gradient       TolG            ....  1.000e-05
 Orbital Rotation angle TolX            ....  1.000e-05
 DIIS Error             TolErr          ....  5.000e-07


Diagonalization of the overlap matrix:
Smallest eigenvalue                        ... 2.089e-04
Time for diagonalization                   ...    0.700 sec
Threshold for overlap eigenvalues          ... 1.000e-08
Number of eigenvalues below threshold      ... 0
Time for construction of square roots      ...    0.323 sec
Total time needed                          ...    1.035 sec

-------------------
DFT GRID GENERATION
-------------------

General Integration Accuracy     IntAcc      ...  4.670
Radial Grid Type                 RadialGrid  ... Gauss-Chebyshev
Angular Grid (max. acc.)         AngularGrid ... Lebedev-302
Angular grid pruning method      GridPruning ... 3 (G Style)
Weight generation scheme         WeightScheme... Becke
Basis function cutoff            BFCut       ...    1.0000e-11
Integration weight cutoff        WCut        ...    1.0000e-14
Grids for H and He will be reduced by one unit

# of grid points (after initial pruning)     ... 736040 (   3.1 sec)
# of grid points (after weights+screening)   ... 618822 (  42.0 sec)
nearest neighbour list constructed           ...    0.0 sec
Grid point re-assignment to atoms done       ...    0.1 sec
Grid point division into batches done        ...    2.0 sec
Reduced shell lists constructed in   13.3 sec

Total number of grid points                  ...   618822
Total number of batches                      ...     9745
Average number of points per batch           ...       63
Average number of grid points per atom       ...     4239
Average number of shells per batch           ...   107.32 (15.29%)
Average number of basis functions per batch  ...   214.08 (14.18%)
Average number of large shells per batch     ...    61.26 (57.09%)
Average number of large basis fcns per batch ...   124.66 (58.23%)
Maximum spatial batch extension              ...  23.67, 22.38, 24.64 au
Average spatial batch extension              ...   2.05,  2.03,  2.11 au

Time for grid setup =   58.509 sec

------------------------------
INITIAL GUESS: MODEL POTENTIAL
------------------------------
Loading Hartree-Fock densities                     ... done
Calculating cut-offs                               ... done
Setting up the integral package                    ... done
Initializing the effective Hamiltonian             ... done
Starting the Coulomb interaction                   ... done (  16.5 sec)
Reading the grid                                   ... done
Mapping shells                                     ... done
Starting the XC term evaluation                    ... done (  12.8 sec)
  promolecular density results
     # of electrons  =    637.969782364
     EX              =   -584.681871708
     EC              =    -22.048656191
     EX+EC           =   -606.730527899
Transforming the Hamiltonian                       ... done (   0.3 sec)
Diagonalizing the Hamiltonian                      ... done (   0.7 sec)
Back transforming the eigenvectors                 ... done (   0.1 sec)
Now organizing SCF variables                       ... done
                      ------------------
                      INITIAL GUESS DONE (  89.3 sec)
                      ------------------
--------------------
COSX GRID GENERATION
--------------------

General Integration Accuracy     IntAcc      ...  3.340
Radial Grid Type                 RadialGrid  ... Gauss-Chebyshev
Angular Grid (max. acc.)         AngularGrid ... Lebedev-50
Angular grid pruning method      GridPruning ... 3 (G Style)
Weight generation scheme         WeightScheme... Becke
Basis function cutoff            BFCut       ...    1.0000e-11
Integration weight cutoff        WCut        ...    1.0000e-14
Grids for H and He will be reduced by one unit

# of grid points (after initial pruning)     ...  69260 (   0.1 sec)
# of grid points (after weights+screening)   ...  60822 (   3.9 sec)
nearest neighbour list constructed           ...    0.0 sec
Grid point re-assignment to atoms done       ...    0.0 sec
Grid point division into batches done        ...    0.0 sec
Reduced shell lists constructed in    1.7 sec

Total number of grid points                  ...    60822
Total number of batches                      ...     1030
Average number of points per batch           ...       59
Average number of grid points per atom       ...      417
Average number of shells per batch           ...   131.78 (18.77%)
Average number of basis functions per batch  ...   264.96 (17.55%)
Average number of large shells per batch     ...    74.92 (56.85%)
Average number of large basis fcns per batch ...   154.63 (58.36%)
Maximum spatial batch extension              ...  18.76, 17.16, 21.77 au
Average spatial batch extension              ...   4.20,  4.05,  4.38 au

Overlap Fitting                  UseSFitting ... on
Constructing numerical overlap ... done (      0.9 sec)
Inverting numerical overlap    ... done (      0.1 sec)
Obtaining analytic overlap     ... done (      0.0 sec)
Final contraction and storage  ... done (      0.6 sec)


General Integration Accuracy     IntAcc      ...  3.670
Radial Grid Type                 RadialGrid  ... Gauss-Chebyshev
Angular Grid (max. acc.)         AngularGrid ... Lebedev-50
Angular grid pruning method      GridPruning ... 3 (G Style)
Weight generation scheme         WeightScheme... Becke
Basis function cutoff            BFCut       ...    1.0000e-11
Integration weight cutoff        WCut        ...    1.0000e-14
Grids for H and He will be reduced by one unit

# of grid points (after initial pruning)     ...  87416 (   0.1 sec)
# of grid points (after weights+screening)   ...  76401 (   4.9 sec)
nearest neighbour list constructed           ...    0.0 sec
Grid point re-assignment to atoms done       ...    0.0 sec
Grid point division into batches done        ...    0.0 sec
Reduced shell lists constructed in    1.6 sec

Total number of grid points                  ...    76401
Total number of batches                      ...     1258
Average number of points per batch           ...       60
Average number of grid points per atom       ...      523
Average number of shells per batch           ...   128.29 (18.27%)
Average number of basis functions per batch  ...   257.69 (17.07%)
Average number of large shells per batch     ...    72.92 (56.84%)
Average number of large basis fcns per batch ...   150.37 (58.35%)
Maximum spatial batch extension              ...  18.27, 20.41, 21.40 au
Average spatial batch extension              ...   3.92,  3.80,  4.10 au

Overlap Fitting                  UseSFitting ... on
Constructing numerical overlap ... done (      1.1 sec)
Inverting numerical overlap    ... done (      0.1 sec)
Obtaining analytic overlap     ... done (      0.0 sec)
Final contraction and storage  ... done (      0.1 sec)


General Integration Accuracy     IntAcc      ...  4.010
Radial Grid Type                 RadialGrid  ... Gauss-Chebyshev
Angular Grid (max. acc.)         AngularGrid ... Lebedev-110
Angular grid pruning method      GridPruning ... 3 (G Style)
Weight generation scheme         WeightScheme... Becke
Basis function cutoff            BFCut       ...    1.0000e-11
Integration weight cutoff        WCut        ...    1.0000e-14
Grids for H and He will be reduced by one unit

# of grid points (after initial pruning)     ... 165528 (   0.3 sec)
# of grid points (after weights+screening)   ... 143553 (   9.4 sec)
nearest neighbour list constructed           ...    0.0 sec
Grid point re-assignment to atoms done       ...    0.0 sec
Grid point division into batches done        ...    0.1 sec
Reduced shell lists constructed in    3.0 sec

Total number of grid points                  ...   143553
Total number of batches                      ...     2319
Average number of points per batch           ...       61
Average number of grid points per atom       ...      983
Average number of shells per batch           ...   122.72 (17.48%)
Average number of basis functions per batch  ...   246.17 (16.30%)
Average number of large shells per batch     ...    70.22 (57.22%)
Average number of large basis fcns per batch ...   144.39 (58.65%)
Maximum spatial batch extension              ...  21.17, 20.20, 20.28 au
Average spatial batch extension              ...   3.30,  3.24,  3.44 au

Overlap Fitting                  UseSFitting ... on
Constructing numerical overlap ... done (      1.9 sec)
Inverting numerical overlap    ... done (      0.1 sec)
Obtaining analytic overlap     ... done (      0.0 sec)
Final contraction and storage  ... done (      0.1 sec)

Time for X-Grid setup             =   30.268 sec
--------------
SCF ITERATIONS
--------------
ITER       Energy         Delta-E        Max-DP      RMS-DP      [F,P]     Damp
               ***  Starting incremental Fock matrix formation  ***
  0  -5607.6462322967   0.000000000000 0.14664744  0.00077528  0.2416195 0.7000
  1  -5608.3091819418  -0.662949645082 0.09259726  0.00054975  0.1032336 0.7000
                               ***Turning on DIIS***
  2  -5608.6145167496  -0.305334807766 0.16894986  0.00101464  0.0412545 0.0000
  3  -5609.1037427419  -0.489225992289 0.05891263  0.00037309  0.0517089 0.0000
  4  -5609.1916983503  -0.087955608427 0.01244513  0.00010596  0.0133979 0.0000
  5  -5609.1960484949  -0.004350144653 0.00873406  0.00004363  0.0101776 0.0000
                      *** Initiating the SOSCF procedure ***
                           *** Shutting down DIIS ***
                      *** Re-Reading the Fockian *** 
                      *** Removing any level shift *** 
ITER      Energy       Delta-E        Grad      Rot      Max-DP    RMS-DP
  6  -5609.19706560  -0.0010171099  0.002453  0.002453  0.002582  0.000021
               *** Restarting incremental Fock matrix formation ***
  7  -5609.19722893  -0.0001633226  0.001503  0.008539  0.002095  0.000021
  8  -5609.19735481  -0.0001258833  0.000665  0.009328  0.001831  0.000021
  9  -5609.19737170  -0.0000168913  0.000504  0.003419  0.000913  0.000009
 10  -5609.19739457  -0.0000228723  0.000052  0.000578  0.000375  0.000003
 11  -5609.19739454   0.0000000307  0.000092  0.000492  0.000212  0.000002
 12  -5609.19739575  -0.0000012017  0.000013  0.000058  0.000086  0.000001
 13  -5609.19739564   0.0000001076  0.000012  0.000037  0.000049  0.000000
 14  -5609.19739573  -0.0000000955  0.000004  0.000024  0.000025  0.000000
                  ***Gradient check signals convergence***
              ***Rediagonalizing the Fockian in SOSCF/NRSCF***

[...]

ax(DF)   :  0.3800
s^k      :  2.0000
beta  (J):  1.8600
alpha (K):  0.9000

hardness table read
setting up gammas ...
computing q(ij,n)
memory needed for q data:            21.5 MB 
memory available for q data:       2469.0 MB 

CSF included by energy:           31 
CSF considered in PT2:         12741 

ordered frontier orbitals
           eV         # centers 
 113      -8.258      24.2
 114      -8.237      27.0
 115      -8.159      27.8
 116      -8.046      25.1
 117      -7.986      30.5
 118      -7.946      17.1
 119      -7.908       7.8
 120      -7.517       1.7
 121      -7.509      20.3
 122      -7.478       1.5
 123      -6.736      21.8

 124      -2.374      26.5
 125      -1.933      19.4
 126      -0.666      29.5
 127       0.014      25.6
 128       0.033      15.3
 129       0.453      24.3
 130       0.477      27.3
 131       0.549      12.1
 132       0.663      20.9
 133       0.768      19.7
 134       0.781      15.4

           eV        nm       excitation i->a                     eV 
   0      2.74     452.1   123 -> 124      gap,J,K:    4.362     2.036     0.209
   1      3.35     369.6   123 -> 125      gap,J,K:    4.803     1.925     0.238
   2      3.73     332.0   122 -> 124      gap,J,K:    5.103     1.376     0.003
   3      3.75     330.9   121 -> 124      gap,J,K:    5.135     1.851     0.232
   4      3.81     325.2   120 -> 124      gap,J,K:    5.142     1.359     0.015
   5      4.01     309.5   118 -> 124      gap,J,K:    5.572     1.692     0.063
   6      4.02     308.7   117 -> 124      gap,J,K:    5.611     1.717     0.061
   7      4.09     303.0   116 -> 124      gap,J,K:    5.671     1.687     0.054
   8      4.13     300.4   120 -> 125      gap,J,K:    5.584     1.485     0.014
   9      4.14     299.2   122 -> 125      gap,J,K:    5.545     1.408     0.003
  10      4.17     297.1   121 -> 125      gap,J,K:    5.577     1.836     0.216
  11      4.18     296.4   115 -> 124      gap,J,K:    5.785     1.842     0.121
  12      4.20     295.4   119 -> 124      gap,J,K:    5.534     1.553     0.108
  13      4.26     290.9   113 -> 124      gap,J,K:    5.884     1.862     0.120
  14      4.34     285.4   114 -> 124      gap,J,K:    5.863     1.843     0.162
  15      4.37     283.9   112 -> 124      gap,J,K:    6.030     1.761     0.049
  16      4.45     278.9   111 -> 124      gap,J,K:    6.137     1.737     0.023
  17      4.50     275.7   123 -> 126      gap,J,K:    6.069     2.083     0.256
  18      4.52     274.6   118 -> 125      gap,J,K:    6.014     1.618     0.060
  19      4.52     274.4   110 -> 124      gap,J,K:    6.212     1.737     0.022
  20      4.54     273.3   117 -> 125      gap,J,K:    6.053     1.623     0.053
  21      4.60     269.4   109 -> 124      gap,J,K:    6.312     1.712     0.001
  22      4.63     267.7   119 -> 125      gap,J,K:    5.976     1.602     0.129
  23      4.63     267.6   116 -> 125      gap,J,K:    6.113     1.598     0.059
  24      4.67     265.4   108 -> 124      gap,J,K:    6.374     1.708     0.003

average / max PT2 energy lowering (eV):       0.037       0.077

CSF included by PT:                   199 
total number of CSF included:         230 
 
sTD-DFT procedure...
setting up A+B and A-B matrices...  done
estimated time (min):    0.001
calculating (A-B)^0.5 ... done
calculating (A+B)*(A-B)^0.5 ... done
calculating (A-B)^0.5 *(A+B)*(A-B)^0.5 ... done
diagonalizing ...using LAPACKE_ssyevr ...done

   35 roots found, lowest/highest eigenvalue :     2.489     4.998

excitation energies, transition moments and amplitudes

molecular weight: 1215.650
state   eV        nm        fL         fV        Rl        RV
   0   2.489     498.2   2.938693   3.128256  -73.865884  -77.209269     0.91 ( 123-> 124)    0.07 ( 121-> 125)    0.00 ( 120-> 125)
   1   3.011     411.8   0.079848   0.078130  115.076839  122.218451     0.79 ( 123-> 125)    0.17 ( 121-> 124)    0.02 ( 121-> 126)
   2   3.050     406.5   0.000116   0.000060  -0.974598  -0.862081     0.53 ( 122-> 124)    0.35 ( 122-> 125)    0.05 ( 122-> 126)
   3   3.100     400.0   0.000668   0.000596  -2.988874  -1.046330     0.48 ( 120-> 124)    0.37 ( 120-> 125)    0.05 ( 120-> 126)
   4   3.558     348.4   0.025331   0.022395  37.895015  37.584170     0.68 ( 121-> 124)    0.15 ( 123-> 125)    0.05 ( 120-> 124)
   5   3.623     342.2   0.060495   0.048201  14.936734  12.005218     0.35 ( 118-> 124)    0.28 ( 119-> 124)    0.12 ( 119-> 125)
   6   3.692     335.8   0.134220   0.105862   9.112400   7.088117     0.48 ( 117-> 124)    0.10 ( 116-> 124)    0.06 ( 117-> 125)
   7   3.705     334.6   0.154526   0.128429  21.798277  19.036054     0.23 ( 118-> 124)    0.20 ( 117-> 124)    0.15 ( 115-> 124)
   8   3.792     327.0   0.055090   0.045725  -23.515368  -22.147196     0.49 ( 116-> 124)    0.13 ( 114-> 124)    0.12 ( 115-> 124)
   9   3.850     322.1   0.150957   0.119781  -33.529454  -30.342716     0.25 ( 121-> 125)    0.21 ( 113-> 124)    0.14 ( 119-> 124)
  10   3.932     315.3   0.023620   0.017674  -17.518258  -14.431547     0.43 ( 113-> 124)    0.21 ( 115-> 124)    0.08 ( 116-> 125)
  11   3.987     311.0   0.031087   0.021055   8.125708   1.683424     0.38 ( 114-> 124)    0.11 ( 116-> 124)    0.11 ( 115-> 125)
  12   4.045     306.5   0.011928   0.016993   2.798682   0.174064     0.26 ( 121-> 125)    0.24 ( 123-> 126)    0.08 ( 119-> 124)
  13   4.108     301.8   0.000366   0.000274  -1.461226  -2.198409     0.68 ( 112-> 124)    0.14 ( 113-> 125)    0.03 ( 114-> 124)
  14   4.205     294.9   0.011845   0.010399   7.588887   8.237233     0.24 ( 106-> 124)    0.18 ( 102-> 124)    0.15 ( 106-> 125)
  15   4.226     293.4   0.011861   0.009810  -5.864593  -3.639873     0.75 ( 111-> 124)    0.13 ( 111-> 125)    0.03 ( 123-> 126)
  16   4.230     293.1   0.004358   0.004098  -1.276671  -5.160955     0.21 ( 104-> 124)    0.18 ( 103-> 124)    0.18 ( 104-> 125)
  17   4.311     287.6   0.017559   0.018593   1.991316   2.675564     0.69 ( 110-> 124)    0.08 ( 110-> 125)    0.08 ( 123-> 126)
  18   4.346     285.3   0.044258   0.042260   6.594933   3.044507     0.33 ( 123-> 126)    0.17 ( 123-> 128)    0.12 ( 121-> 125)
  19   4.393     282.2   0.085394   0.082503   2.949922   2.303078     0.19 ( 123-> 126)    0.17 ( 123-> 128)    0.10 ( 105-> 124)
  20   4.436     279.5   0.018952   0.017960  -0.752770  -1.207654     0.55 ( 109-> 124)    0.08 ( 109-> 125)    0.06 ( 118-> 125)
  21   4.454     278.4   0.005483   0.004917  -2.231769  -1.480679     0.33 ( 118-> 125)    0.20 ( 109-> 124)    0.17 ( 117-> 125)
  22   4.516     274.6   0.011729   0.010423   2.645170   2.548224     0.46 ( 108-> 124)    0.08 ( 116-> 125)    0.07 ( 122-> 124)
  23   4.520     274.3   0.000132   0.000104   1.542058   1.369220     0.21 ( 122-> 124)    0.21 ( 120-> 124)    0.19 ( 122-> 125)
  24   4.522     274.2   0.003552   0.003093  -8.306977  -7.969185     0.21 ( 120-> 124)    0.16 ( 122-> 124)    0.16 ( 120-> 125)
  25   4.547     272.7   0.008364   0.007446  -10.841205  -10.293626     0.27 ( 117-> 125)    0.26 ( 116-> 125)    0.23 ( 108-> 124)
  26   4.598     269.6   0.003829   0.003224   5.691933   5.184436     0.33 ( 115-> 125)    0.18 ( 119-> 125)    0.09 ( 114-> 124)
  27   4.650     266.6   0.029739   0.021286   0.439428  -0.100137     0.24 ( 102-> 124)    0.15 ( 102-> 125)    0.10 ( 114-> 125)
  28   4.665     265.8   0.007949   0.005102   8.761895   6.574765     0.18 ( 114-> 125)    0.13 ( 102-> 124)    0.10 ( 115-> 125)
  29   4.695     264.1   0.022320   0.014686  -7.947921  -3.521136     0.34 ( 103-> 124)    0.25 ( 103-> 125)    0.12 ( 104-> 124)
  30   4.757     260.6   0.002482   0.001758   3.334872   2.552675     0.58 ( 113-> 125)    0.14 ( 112-> 124)    0.05 ( 114-> 125)
  31   4.811     257.7   0.003807   0.002963  -9.247725  -9.193464     0.45 ( 107-> 124)    0.08 ( 119-> 124)    0.05 ( 121-> 125)
  32   4.867     254.7   0.082309   0.066963   3.776509   5.140227     0.47 ( 112-> 125)    0.19 ( 123-> 128)    0.07 ( 105-> 124)
  33   4.955     250.2   0.027293   0.022086  -8.046036  -7.108355     0.27 ( 123-> 127)    0.17 ( 121-> 126)    0.10 ( 119-> 125)
  34   4.998     248.1   0.000839   0.000651   9.283032   8.310132     0.14 ( 119-> 125)    0.14 ( 123-> 127)    0.09 ( 121-> 126)

-----------------------------------------------------------------------------
         ABSORPTION SPECTRUM VIA TRANSITION ELECTRIC DIPOLE MOMENTS
-----------------------------------------------------------------------------
State   Energy  Wavelength   fosc         T2         TX        TY        TZ  
        (cm-1)    (nm)                  (au**2)     (au)      (au)      (au) 
-----------------------------------------------------------------------------
   0   20072.9    498.2   2.938693495  48.19700  -4.60048   5.19024  -0.30667
   1   24281.9    411.8   0.079847957   1.08257   0.68223   0.76370   0.18413
   2   24601.2    406.5   0.000115831   0.00155  -0.00844   0.03545   0.01491
   3   25001.9    400.0   0.000668431   0.00880   0.07925   0.04015   0.03015
   4   28699.7    348.4   0.025330957   0.29057   0.47277   0.21984   0.13687
   5   29221.5    342.2   0.060494598   0.68154   0.66306  -0.39348   0.29506
   6   29778.4    335.8   0.134219585   1.48385  -1.12013  -0.20860  -0.43087
   7   29883.6    334.6   0.154526035   1.70233   0.91636  -0.90157   0.22313
   8   30584.6    327.0   0.055090069   0.59299   0.65522  -0.38950   0.10938
   9   31048.8    322.1   0.150956542   1.60060   0.18367   1.19890   0.35988
  10   31713.5    315.3   0.023619942   0.24519  -0.31627  -0.38059  -0.01779
  11   32157.6    311.0   0.031086916   0.31825   0.23998   0.44734   0.24606
  12   32628.7    306.5   0.011928414   0.12035  -0.24052   0.22006  -0.11866
  13   33130.6    301.8   0.000365872   0.00364   0.06017   0.00191  -0.00339
  14   33914.9    294.9   0.011844814   0.11498   0.15057   0.27087   0.13761
  15   34083.2    293.4   0.011860588   0.11456   0.32025   0.05752   0.09324
  16   34114.8    293.1   0.004358029   0.04206   0.15567  -0.00248   0.13347
  17   34768.7    287.6   0.017559158   0.16626   0.32875  -0.23815  -0.03836
  18   35051.3    285.3   0.044257500   0.41568   0.49653  -0.40319  -0.08111
  19   35432.6    282.2   0.085394016   0.79342   0.35960  -0.81454   0.02504
  20   35782.1    279.5   0.018952255   0.17437   0.06973  -0.41168  -0.00521
  21   35924.6    278.4   0.005483078   0.05025   0.07985  -0.17953  -0.10788
  22   36420.0    274.6   0.011729246   0.10602  -0.04330  -0.31337  -0.07711
  23   36459.5    274.3   0.000132327   0.00119   0.02774   0.01941   0.00697
  24   36470.0    274.2   0.003552153   0.03207  -0.04454   0.17160   0.02522
  25   36671.2    272.7   0.008364312   0.07509  -0.06558   0.21362   0.15861
  26   37088.4    269.6   0.003829220   0.03399   0.08153   0.16196   0.03335
  27   37505.2    266.6   0.029739289   0.26104  -0.15713  -0.45204  -0.17893
  28   37622.2    265.8   0.007949331   0.06956  -0.23270  -0.05623  -0.11067
  29   37865.4    264.1   0.022320492   0.19406   0.36830   0.07588   0.22947
  30   38366.4    260.6   0.002481851   0.02130   0.12908  -0.02499   0.06333
  31   38803.8    257.7   0.003806500   0.03229   0.14591   0.02228   0.10251
  32   39258.4    254.7   0.082308627   0.69022   0.20081   0.76975   0.23953
  33   39962.2    250.2   0.027293028   0.22484   0.41005   0.14481   0.18904
  34   40310.6    248.1   0.000839118   0.00685  -0.02066   0.01096  -0.07941

-----------------------------------------------------------------------------
         ABSORPTION SPECTRUM VIA TRANSITION VELOCITY DIPOLE MOMENTS
-----------------------------------------------------------------------------
State   Energy  Wavelength   fosc         P2         PX        PY        PZ  
        (cm-1)    (nm)                  (au**2)     (au)      (au)      (au) 
-----------------------------------------------------------------------------
   0   20072.9    498.2   3.128256364   0.42916  -0.43435   0.48950  -0.02985
   1   24281.9    411.8   0.078129738   0.01297   0.07456   0.08400   0.01874
   2   24601.2    406.5   0.000059872   0.00001  -0.00064   0.00296   0.00095
   3   25001.9    400.0   0.000595535   0.00010   0.00927   0.00319   0.00239
   4   28699.7    348.4   0.022395062   0.00439   0.05801   0.02768   0.01618
   5   29221.5    342.2   0.048200588   0.00963   0.07716  -0.04981   0.03452
   6   29778.4    335.8   0.105861603   0.02155  -0.13483  -0.02493  -0.05238
   7   29883.6    334.6   0.128428589   0.02623   0.11137  -0.11488   0.02511
   8   30584.6    327.0   0.045724587   0.00956   0.08227  -0.05156   0.01145
   9   31048.8    322.1   0.119780703   0.02542   0.01624   0.15274   0.04272
  10   31713.5    315.3   0.017673742   0.00383  -0.02943  -0.05444   0.00096
  11   32157.6    311.0   0.021054651   0.00463   0.02601   0.05504   0.03036
  12   32628.7    306.5   0.016992792   0.00379  -0.04106   0.04356  -0.01436
  13   33130.6    301.8   0.000273799   0.00006   0.00675  -0.00296  -0.00277
  14   33914.9    294.9   0.010399268   0.00241   0.01880   0.04002   0.02134
  15   34083.2    293.4   0.009810452   0.00229   0.04630   0.00018   0.01190
  16   34114.8    293.1   0.004098209   0.00096   0.02204   0.00042   0.02167
  17   34768.7    287.6   0.018593151   0.00442   0.05071  -0.04253  -0.00616
  18   35051.3    285.3   0.042259658   0.01012   0.07856  -0.06221  -0.00909
  19   35432.6    282.2   0.082502857   0.01998   0.06247  -0.12664   0.00630
  20   35782.1    279.5   0.017959696   0.00439   0.01433  -0.06470  -0.00003
  21   35924.6    278.4   0.004917386   0.00121   0.01230  -0.02838  -0.01584
  22   36420.0    274.6   0.010423432   0.00259  -0.00282  -0.04959  -0.01128
  23   36459.5    274.3   0.000103626   0.00003   0.00379   0.00323   0.00100
  24   36470.0    274.2   0.003093327   0.00077  -0.00792   0.02634   0.00377
  25   36671.2    272.7   0.007446319   0.00187  -0.01134   0.03392   0.02422
  26   37088.4    269.6   0.003223869   0.00082   0.01181   0.02557   0.00488
  27   37505.2    266.6   0.021286095   0.00546  -0.02106  -0.06608  -0.02542
  28   37622.2    265.8   0.005101527   0.00131  -0.03295  -0.00473  -0.01428
  29   37865.4    264.1   0.014685514   0.00380   0.05139   0.01235   0.03173
  30   38366.4    260.6   0.001757908   0.00046   0.01868  -0.00248   0.01030
  31   38803.8    257.7   0.002962577   0.00079   0.02110   0.00747   0.01687
  32   39258.4    254.7   0.066963459   0.01797   0.03042   0.12530   0.03663
  33   39962.2    250.2   0.022085709   0.00603   0.06737   0.02329   0.03083
  34   40310.6    248.1   0.000650921   0.00018  -0.00296   0.00036  -0.01306

-------------------------------------------------------------------
                             CD SPECTRUM
-------------------------------------------------------------------
State   Energy Wavelength       R         MX        MY        MZ   
        (cm-1)   (nm)       (1e40*cgs)   (au)      (au)      (au)  
-------------------------------------------------------------------
   0   20072.9    498.2    -73.86588  -0.96153  -0.78864   0.05517
   1   24281.9    411.8    115.07684  -1.01428  -0.39662   2.75178
   2   24601.2    406.5     -0.97460  -0.31481   0.16278  -0.28786
   3   25001.9    400.0     -2.98887  -0.16885   0.33702   0.41559
   4   28699.7    348.4     37.89502  -0.65134  -0.27618   1.51888
   5   29221.5    342.2     14.93673  -0.30954  -0.13402   0.30212
   6   29778.4    335.8      9.11240   0.44399   0.06607  -1.09652
   7   29883.6    334.6     21.79828   0.12076   0.11802  -0.43353
   8   30584.6    327.0    -23.51537   0.37278   0.22679  -0.51349
   9   31048.8    322.1    -33.52945  -1.39600  -0.61682   3.16260
  10   31713.5    315.3    -17.51826  -0.07342  -0.12595  -0.17764
  11   32157.6    311.0      8.12571  -0.86924  -0.44102   1.50942
  12   32628.7    306.5      2.79868  -0.06281   0.03411   0.29062
  13   33130.6    301.8     -1.46123   0.06085   0.23754  -0.61430
  14   33914.9    294.9      7.58889   0.01545   0.16799  -0.58155
  15   34083.2    293.4     -5.86459  -0.13550   0.00614   0.72844
  16   34114.8    293.1     -1.27667  -0.89823  -0.46995   1.07951
  17   34768.7    287.6      1.99132   0.04824   0.07976   0.13846
  18   35051.3    285.3      6.59493   0.25500   0.28023   0.51292
  19   35432.6    282.2      2.94992   0.11658   0.06176  -0.16479
  20   35782.1    279.5     -0.75277   0.18954   0.02927  -0.38959
  21   35924.6    278.4     -2.23177   0.38745   0.28995  -0.28352
  22   36420.0    274.6      2.64517   0.09201   0.12646  -0.42009
  23   36459.5    274.3      1.54206  -0.18798  -0.13510   0.18564
  24   36470.0    274.2     -8.30698  -0.20412   0.13224   0.13711
  25   36671.2    272.7    -10.84121  -0.44166  -0.24313   0.43482
  26   37088.4    269.6      5.69193  -0.36236  -0.12057   0.74724
  27   37505.2    266.6      0.43943   0.06924  -0.13363   0.28720
  28   37622.2    265.8      8.76190  -0.18884  -0.21248   0.84087
  29   37865.4    264.1     -7.94792  -1.34428  -0.78768   2.56500
  30   38366.4    260.6      3.33487  -0.24518  -0.10063   0.23663
  31   38803.8    257.7     -9.24772  -0.62569  -0.36513   1.35266
  32   39258.4    254.7      3.77651  -0.65359  -0.21648   1.17673
  33   39962.2    250.2     -8.04604  -0.26197  -0.15373   0.86657
  34   40310.6    248.1      9.28303  -0.23534  -0.07207   0.54721

sTD-DFT done

Total run time:        8.248 sec

           *** ORCA-CIS/TD-DFT FINISHED WITHOUT ERROR ***

-------------------------   --------------------
FINAL SINGLE POINT ENERGY     -5609.190346211872
-------------------------   --------------------


                            ***************************************
                            *     ORCA property calculations      *
                            ***************************************

                                    ---------------------
                                    Active property flags
                                    ---------------------
   (+) Dipole Moment


------------------------------------------------------------------------------
                       ORCA ELECTRIC PROPERTIES CALCULATION
------------------------------------------------------------------------------

Dipole Moment Calculation                       ... on
Quadrupole Moment Calculation                   ... off
Polarizability Calculation                      ... off
GBWName                                         ... IDTT-TBTA.gbw
Electron density file                           ... IDTT-TBTA.scfp
The origin for moment calculation is the CENTER OF MASS  = (-7.825832, 13.522372 -1.862763)

-------------
DIPOLE MOMENT
-------------
                                X             Y             Z
Electronic contribution:    -17.29905      -7.76054       4.34355
Nuclear contribution   :     16.55174       7.38964      -4.56099
                        -----------------------------------------
Total Dipole Moment    :     -0.74731      -0.37090      -0.21744
                        -----------------------------------------
Magnitude (a.u.)       :      0.86216
Magnitude (Debye)      :      2.19143



--------------------
Rotational spectrum 
--------------------
 
Rotational constants in cm-1:     0.001188     0.000230     0.000220 
Rotational constants in MHz :    35.625403     6.904894     6.595375 

 Dipole components along the rotational axes: 
x,y,z [a.u.] :     0.194213    -0.839869     0.014784 
x,y,z [Debye]:     0.493651    -2.134776     0.037577 

 

Timings for individual modules:

Sum of individual times         ...     5866.754 sec (=  97.779 min)
GTO integral calculation        ...        4.985 sec (=   0.083 min)   0.1 %
SCF iterations                  ...     5853.439 sec (=  97.557 min)  99.8 %
CIS module                      ...        8.330 sec (=   0.139 min)   0.1 %
                             ****ORCA TERMINATED NORMALLY****
TOTAL RUN TIME: 0 days 1 hours 37 minutes 47 seconds 555 msec
