
                                 *****************
                                 * O   R   C   A *
                                 *****************

           --- An Ab Initio, DFT and Semiempirical electronic structure package ---

                  #######################################################
                  #                        -***-                        #
                  #          Department of theory and spectroscopy      #
                  #               Directorship: Frank Neese             #
                  #        Max Planck Institute fuer Kohlenforschung    #
                  #                Kaiser Wilhelm Platz 1               #
                  #                 D-45470 Muelheim/Ruhr               #
                  #                      Germany                        #
                  #                                                     #
                  #                  All rights reserved                #
                  #                        -***-                        #
                  #######################################################


                         Program Version 4.2.0 -  RELEASE  -


 With contributions from (in alphabetic order):
   Daniel Aravena         : Magnetic Suceptibility
   Michael Atanasov       : Ab Initio Ligand Field Theory (pilot matlab implementation)
   Alexander A. Auer      : GIAO ZORA, VPT2
   Ute Becker             : Parallelization
   Giovanni Bistoni       : ED, misc. LED, open-shell LED, HFLED
   Martin Brehm           : Molecular dynamics
   Dmytro Bykov           : SCF Hessian
   Vijay G. Chilkuri      : MRCI spin determinant printing, contributions to CSF-ICE
   Dipayan Datta          : RHF DLPNO-CCSD density
   Achintya Kumar Dutta   : EOM-CC, STEOM-CC
   Dmitry Ganyushin       : Spin-Orbit,Spin-Spin,Magnetic field MRCI
   Miquel Garcia          : C-PCM Hessian, Gaussian charge scheme
   Yang Guo               : DLPNO-NEVPT2, CIM, IAO-localization
   Andreas Hansen         : Spin unrestricted coupled pair/coupled cluster methods
   Benjamin Helmich-Paris : CASSCF linear response (MC-RPA)
   Lee Huntington         : MR-EOM, pCC
   Robert Izsak           : Overlap fitted RIJCOSX, COSX-SCS-MP3, EOM
   Christian Kollmar      : KDIIS, OOCD, Brueckner-CCSD(T), CCSD density
   Simone Kossmann        : Meta GGA functionals, TD-DFT gradient, OOMP2, MP2 Hessian
   Martin Krupicka        : AUTO-CI
   Lucas Lang             : DCDCAS
   Dagmar Lenk            : GEPOL surface, SMD
   Dimitrios Liakos       : Extrapolation schemes; Compound Job, initial MDCI parallelization
   Dimitrios Manganas     : Further ROCIS development; embedding schemes
   Dimitrios Pantazis     : SARC Basis sets
   Taras Petrenko         : DFT Hessian,TD-DFT gradient, ASA, ECA, R-Raman, ABS, FL, XAS/XES, NRVS
   Peter Pinski           : DLPNO-MP2, DLPNO-MP2 Gradient
   Christoph Reimann      : Effective Core Potentials
   Marius Retegan         : Local ZFS, SOC
   Christoph Riplinger    : Optimizer, TS searches, QM/MM, DLPNO-CCSD(T), (RO)-DLPNO pert. Triples
   Tobias Risthaus        : Range-separated hybrids, TD-DFT gradient, RPA, STAB
   Michael Roemelt        : Original ROCIS implementation
   Masaaki Saitow         : Open-shell DLPNO-CCSD energy and density
   Barbara Sandhoefer     : DKH picture change effects
   Avijit Sen             : IP-ROCIS
   Kantharuban Sivalingam : CASSCF convergence, NEVPT2, FIC-MRCI
   Bernardo de Souza      : ESD, SOC TD-DFT
   Georgi Stoychev        : AutoAux, RI-MP2 NMR
   Willem Van den Heuvel  : Paramagnetic NMR
   Boris Wezisla          : Elementary symmetry handling
   Frank Wennmohs         : Technical directorship


 We gratefully acknowledge several colleagues who have allowed us to
 interface, adapt or use parts of their codes:
   Stefan Grimme, W. Hujo, H. Kruse,             : VdW corrections, initial TS optimization,
                  C. Bannwarth                     DFT functionals, gCP, sTDA/sTD-DF
   Ed Valeev, F. Pavosevic, A. Kumar             : LibInt (2-el integral package), F12 methods
   Garnet Chan, S. Sharma, J. Yang, R. Olivares  : DMRG
   Ulf Ekstrom                                   : XCFun DFT Library
   Mihaly Kallay                                 : mrcc  (arbitrary order and MRCC methods)
   Andreas Klamt, Michael Diedenhofen            : otool_cosmo (COSMO solvation model)
   Jiri Pittner, Ondrej Demel                    : Mk-CCSD
   Frank Weinhold                                : gennbo (NPA and NBO analysis)
   Christopher J. Cramer and Donald G. Truhlar   : smd solvation model
   Lars Goerigk                                  : TD-DFT with DH, B97 family of functionals
   V. Asgeirsson, H. Jonsson                     : NEB implementation
   FAccTs GmbH                                   : IRC, NEB, NEB-TS, Multilevel, MM, QM/MM, CI optimization
   S Lehtola, MJT Oliveira, MAL Marques          : LibXC Library


 Your calculation uses the libint2 library for the computation of 2-el integrals
 For citations please refer to: http://libint.valeyev.net

 Your ORCA version has been built with support for libXC version: 4.2.3
 For citations please refer to: https://tddft.org/programs/libxc/

 This ORCA versions uses:
   CBLAS   interface :  Fast vector & matrix operations
   LAPACKE interface :  Fast linear algebra routines
   SCALAPACK package :  Parallel linear algebra routines


XCFun DFT library Copyright 2009-2010 Ulf Ekstrom and contributors.
See http://admol.org/xcfun for more information. This is free soft-
ware; see the source code for copying conditions. There is ABSOLUTELY
NO WARRANTY; not even for MERCHANTABILITY or FITNESS FOR A PARTICULAR
PURPOSE. For details see the documentation. Scientific users of this 
library should cite U. Ekstrom, L. Visscher, R. Bast, A. J. Thorvald-
sen and K. Ruud; J.Chem.Theor.Comp. 2010, DOI: 10.1021/ct100117s
XCFun Version 0.99 
----- Orbital basis set information -----
Your calculation utilizes the basis: def2-SVP
   F. Weigend and R. Ahlrichs, Phys. Chem. Chem. Phys. 7, 3297 (2005).

----- AuxJ basis set information -----
Your calculation utilizes the auxiliary basis: def2/J
   F. Weigend, Phys. Chem. Chem. Phys. 8, 1057 (2006).

================================================================================
                                        WARNINGS
                       Please study these warnings very carefully!
================================================================================

INFO   : Checking CIS options ...

WARNING: CIS/ROCIS methods need fully converged wavefunctions
  ===> : Setting SCFConvForced true
         You can overwrite this default with %scf ConvForced false 


INFO   : the flag for use of LIBINT has been found!

================================================================================
                                       INPUT FILE
================================================================================
NAME = IDTT-TBTA.inp
|  1> # ORCA input file
|  2> # IDTT-TBTA.out
|  3> ! CAM-B3LYP def2-SVP def2/J RIJCOSX Grid4 TightSCF
|  4> %maxcore 5000
|  5> %tddft
|  6>     Mode sTDDFT
|  7>     Ethresh 5.0
|  8>     maxcore 5000
|  9> end
| 10> * xyz 0 1
| 11>    C        1.23932         0.59114        -0.55985
| 12>    C        0.45534         1.75481        -0.56167
| 13>    C        0.68150         3.06145        -0.15261
| 14>    C       -0.41982         3.87402        -0.36755
| 15>    C       -1.52629         3.21672        -0.94873
| 16>    S       -1.17914         1.56052        -1.22703
| 17>    C       -2.60985         4.07033        -1.13536
| 18>    C       -3.99458         3.99699        -1.72087
| 19>    C       -4.93340         3.07223        -0.97056
| 20>    C       -4.69659         2.73018         0.35300
| 21>    C       -5.58423         1.92039         1.03743
| 22>    C       -6.73134         1.43871         0.42216
| 23>    C       -7.71674         0.59681         1.17980
| 24>    C       -8.78469         1.47964         1.82899
| 25>    C       -6.97046         1.79571        -0.89885
| 26>    C       -6.08573         2.60244        -1.58805
| 27>    C       -3.83690         3.59312        -3.17649
| 28>    C       -3.79859         4.53141        -4.19702
| 29>    C       -3.58860         4.13127        -5.50483
| 30>    C       -3.40448         2.79312        -5.82322
| 31>    C       -3.12750         2.36605        -7.23565
| 32>    C       -1.61949         2.29567        -7.48518
| 33>    C       -3.43025         1.86004        -4.79378
| 34>    C       -3.64126         2.25245        -3.48681
| 35>    C       -4.46353         5.42832        -1.52212
| 36>    C       -3.45041         6.21499        -0.92406
| 37>    C       -2.32494         5.35902        -0.71388
| 38>    S       -0.73393         5.56116        -0.06689
| 39>    C       -3.63938         7.56280        -0.63147
| 40>    C       -4.86676         8.10490        -0.93262
| 41>    C       -5.33523         9.53561        -0.73362
| 42>    C       -5.44269         9.96413         0.71906
| 43>    C       -5.65032        11.30765         1.00854
| 44>    C       -5.81106        11.72475         2.31501
| 45>    C       -5.77338        10.81476         3.36430
| 46>    C       -5.90133        11.27696         4.78720
| 47>    C       -4.52590        11.61733         5.36474
| 48>    C       -5.57167         9.47408         3.06736
| 49>    C       -5.41535         9.04832         1.76014
| 50>    C       -4.41781        10.45213        -1.52212
| 51>    C       -4.70112        10.79749        -2.83556
| 52>    C       -3.83241        11.59992        -3.55193
| 53>    C       -2.65781        12.06961        -2.98045
| 54>    C       -1.69510        12.90148        -3.77758
| 55>    C       -0.71919        12.00366        -4.54094
| 56>    C       -2.37299        11.71012        -1.66950
| 57>    C       -3.23983        10.91232        -0.94766
| 58>    C       -6.73235         9.45535        -1.28649
| 59>    C       -7.01344         8.16957        -1.71576
| 60>    C       -5.88216         7.31687        -1.52592
| 61>    C       -5.69093         5.97009        -1.82381
| 62>    S       -8.61631         7.96317        -2.33832
| 63>    C       -8.93189         9.64764        -2.00849
| 64>    C       -7.82168        10.31114        -1.44042
| 65>    S       -8.15516        11.96665        -1.11576
| 66>    C       -9.78864        11.77447        -1.74259
| 67>    C      -10.02807        10.46730        -2.17965
| 68>    C      -10.77401        12.76397        -1.81276
| 69>    C        2.51444         0.27942        -0.14743
| 70>    C      -10.80630        14.08509        -1.42555
| 71>    C      -12.06880        14.78229        -1.66618
| 72>    N      -12.12544        16.10673        -1.25030
| 73>    C      -11.08432        16.77647        -0.67739
| 74>    N       -9.91995        16.09756        -0.44603
| 75>    C       -9.69888        14.77985        -0.81368
| 76>    C        3.47807         1.18380         0.45847
| 77>    N        4.69988         0.62250         0.82108
| 78>    C        5.06372        -0.67249         0.59262
| 79>    N        4.14695        -1.51396         0.03453
| 80>    C        2.87922        -1.12539        -0.37137
| 81>    O      -13.03231        14.26054        -2.19244
| 82>    O       -8.60348        14.27547        -0.60466
| 83>    C       -8.79845        16.79442         0.17488
| 84>    C       -7.94667        17.50957        -0.86516
| 85>    C      -13.37901        16.81107        -1.49701
| 86>    C      -13.34724        17.55011        -2.82798
| 87>    S      -11.22583        18.36971        -0.26586
| 88>    O        3.29132         2.36847         0.66812
| 89>    C        5.66584         1.52956         1.43295
| 90>    S        6.57511        -1.21212         0.98682
| 91>    C        4.50810        -2.90670        -0.20785
| 92>    O        2.12945        -1.93422        -0.88370
| 93>    C        5.20837        -3.07149        -1.54992
| 94>    C        6.56715         2.16866         0.38504
| 95>    H        0.72583        -0.27303        -0.97773
| 96>    H        1.61251         3.37994         0.27636
| 97>    H       -3.81253         3.09493         0.85585
| 98>    H       -5.37956         1.65753         2.06548
| 99>    H       -7.19956         0.02837         1.95516
|100>    H       -8.19857        -0.11002         0.50135
|101>    H       -8.32478         2.18590         2.51672
|102>    H       -9.49756         0.87122         2.38048
|103>    H       -9.32249         2.04352         1.07005
|104>    H       -7.85912         1.43386        -1.39611
|105>    H       -6.28379         2.85798        -2.61900
|106>    H       -3.93361         5.57991        -3.97425
|107>    H       -3.56683         4.87443        -6.28923
|108>    H       -3.57543         3.07668        -7.93298
|109>    H       -3.56761         1.38357        -7.41794
|110>    H       -1.16323         3.26952        -7.32142
|111>    H       -1.41704         1.98427        -8.50723
|112>    H       -1.15639         1.58312        -6.80638
|113>    H       -3.28321         0.81344        -5.01781
|114>    H       -3.66046         1.51304        -2.69923
|115>    H       -2.85169         8.14620        -0.18080
|116>    H       -5.68482        12.03004         0.20648
|117>    H       -5.97457        12.77251         2.52069
|118>    H       -6.36125        10.49269         5.39190
|119>    H       -6.53895        12.16200         4.83194
|120>    H       -3.87835        10.74368         5.33964
|121>    H       -4.61792        11.95213         6.39533
|122>    H       -4.05684        12.40762         4.78290
|123>    H       -5.54320         8.74868         3.86813
|124>    H       -5.27199         7.99735         1.55460
|125>    H       -5.60716        10.44257        -3.30479
|126>    H       -4.07335        11.86682        -4.57111
|127>    H       -1.13329        13.55877        -3.11115
|128>    H       -2.24326        13.52285        -4.48860
|129>    H       -0.15329        11.38504        -3.84792
|130>    H       -0.02177        12.60473        -5.11964
|131>    H       -1.25994        11.34809        -5.22000
|132>    H       -1.46288        12.06298        -1.20562
|133>    H       -3.00726        10.65711         0.07606
|134>    H       -6.47822         5.38582        -2.27427
|135>    H      -10.97036        10.15771        -2.59413
|136>    H      -11.71068        12.42667        -2.25031
|137>    H       -8.20471        16.03675         0.68920
|138>    H       -9.19926        17.50650         0.89761
|139>    H       -7.55660        16.79506        -1.58620
|140>    H       -7.11274        18.00205        -0.37384
|141>    H       -8.53572        18.26015        -1.38675
|142>    H      -13.54689        17.50823        -0.67469
|143>    H      -14.16399        16.05296        -1.50809
|144>    H      -12.56190        18.30224        -2.82715
|145>    H      -14.30085        18.04356        -2.99036
|146>    H      -13.17157        16.84996        -3.64121
|147>    H        6.25720         0.96120         2.15200
|148>    H        5.09075         2.29839         1.95166
|149>    H        3.57709        -3.47594        -0.19833
|150>    H        5.15505        -3.23776         0.60583
|151>    H        4.56286        -2.72611        -2.35397
|152>    H        5.43856        -4.12042        -1.71146
|153>    H        6.13630        -2.50473        -1.56713
|154>    H        7.13871         1.40664        -0.13946
|155>    H        7.25954         2.85038         0.87005
|156>    H        5.97052         2.72621        -0.33308
|157> *
|158> 
|159>                          ****END OF INPUT****
================================================================================

                       ****************************
                       * Single Point Calculation *
                       ****************************

---------------------------------
CARTESIAN COORDINATES (ANGSTROEM)
---------------------------------
  C      1.239320    0.591140   -0.559850
  C      0.455340    1.754810   -0.561670
  C      0.681500    3.061450   -0.152610
  C     -0.419820    3.874020   -0.367550
  C     -1.526290    3.216720   -0.948730
  S     -1.179140    1.560520   -1.227030
  C     -2.609850    4.070330   -1.135360
  C     -3.994580    3.996990   -1.720870
  C     -4.933400    3.072230   -0.970560
  C     -4.696590    2.730180    0.353000
  C     -5.584230    1.920390    1.037430
  C     -6.731340    1.438710    0.422160
  C     -7.716740    0.596810    1.179800
  C     -8.784690    1.479640    1.828990
  C     -6.970460    1.795710   -0.898850
  C     -6.085730    2.602440   -1.588050
  C     -3.836900    3.593120   -3.176490
  C     -3.798590    4.531410   -4.197020
  C     -3.588600    4.131270   -5.504830
  C     -3.404480    2.793120   -5.823220
  C     -3.127500    2.366050   -7.235650
  C     -1.619490    2.295670   -7.485180
  C     -3.430250    1.860040   -4.793780
  C     -3.641260    2.252450   -3.486810
  C     -4.463530    5.428320   -1.522120
  C     -3.450410    6.214990   -0.924060
  C     -2.324940    5.359020   -0.713880
  S     -0.733930    5.561160   -0.066890
  C     -3.639380    7.562800   -0.631470
  C     -4.866760    8.104900   -0.932620
  C     -5.335230    9.535610   -0.733620
  C     -5.442690    9.964130    0.719060
  C     -5.650320   11.307650    1.008540
  C     -5.811060   11.724750    2.315010
  C     -5.773380   10.814760    3.364300
  C     -5.901330   11.276960    4.787200
  C     -4.525900   11.617330    5.364740
  C     -5.571670    9.474080    3.067360
  C     -5.415350    9.048320    1.760140
  C     -4.417810   10.452130   -1.522120
  C     -4.701120   10.797490   -2.835560
  C     -3.832410   11.599920   -3.551930
  C     -2.657810   12.069610   -2.980450
  C     -1.695100   12.901480   -3.777580
  C     -0.719190   12.003660   -4.540940
  C     -2.372990   11.710120   -1.669500
  C     -3.239830   10.912320   -0.947660
  C     -6.732350    9.455350   -1.286490
  C     -7.013440    8.169570   -1.715760
  C     -5.882160    7.316870   -1.525920
  C     -5.690930    5.970090   -1.823810
  S     -8.616310    7.963170   -2.338320
  C     -8.931890    9.647640   -2.008490
  C     -7.821680   10.311140   -1.440420
  S     -8.155160   11.966650   -1.115760
  C     -9.788640   11.774470   -1.742590
  C    -10.028070   10.467300   -2.179650
  C    -10.774010   12.763970   -1.812760
  C      2.514440    0.279420   -0.147430
  C    -10.806300   14.085090   -1.425550
  C    -12.068800   14.782290   -1.666180
  N    -12.125440   16.106730   -1.250300
  C    -11.084320   16.776470   -0.677390
  N     -9.919950   16.097560   -0.446030
  C     -9.698880   14.779850   -0.813680
  C      3.478070    1.183800    0.458470
  N      4.699880    0.622500    0.821080
  C      5.063720   -0.672490    0.592620
  N      4.146950   -1.513960    0.034530
  C      2.879220   -1.125390   -0.371370
  O    -13.032310   14.260540   -2.192440
  O     -8.603480   14.275470   -0.604660
  C     -8.798450   16.794420    0.174880
  C     -7.946670   17.509570   -0.865160
  C    -13.379010   16.811070   -1.497010
  C    -13.347240   17.550110   -2.827980
  S    -11.225830   18.369710   -0.265860
  O      3.291320    2.368470    0.668120
  C      5.665840    1.529560    1.432950
  S      6.575110   -1.212120    0.986820
  C      4.508100   -2.906700   -0.207850
  O      2.129450   -1.934220   -0.883700
  C      5.208370   -3.071490   -1.549920
  C      6.567150    2.168660    0.385040
  H      0.725830   -0.273030   -0.977730
  H      1.612510    3.379940    0.276360
  H     -3.812530    3.094930    0.855850
  H     -5.379560    1.657530    2.065480
  H     -7.199560    0.028370    1.955160
  H     -8.198570   -0.110020    0.501350
  H     -8.324780    2.185900    2.516720
  H     -9.497560    0.871220    2.380480
  H     -9.322490    2.043520    1.070050
  H     -7.859120    1.433860   -1.396110
  H     -6.283790    2.857980   -2.619000
  H     -3.933610    5.579910   -3.974250
  H     -3.566830    4.874430   -6.289230
  H     -3.575430    3.076680   -7.932980
  H     -3.567610    1.383570   -7.417940
  H     -1.163230    3.269520   -7.321420
  H     -1.417040    1.984270   -8.507230
  H     -1.156390    1.583120   -6.806380
  H     -3.283210    0.813440   -5.017810
  H     -3.660460    1.513040   -2.699230
  H     -2.851690    8.146200   -0.180800
  H     -5.684820   12.030040    0.206480
  H     -5.974570   12.772510    2.520690
  H     -6.361250   10.492690    5.391900
  H     -6.538950   12.162000    4.831940
  H     -3.878350   10.743680    5.339640
  H     -4.617920   11.952130    6.395330
  H     -4.056840   12.407620    4.782900
  H     -5.543200    8.748680    3.868130
  H     -5.271990    7.997350    1.554600
  H     -5.607160   10.442570   -3.304790
  H     -4.073350   11.866820   -4.571110
  H     -1.133290   13.558770   -3.111150
  H     -2.243260   13.522850   -4.488600
  H     -0.153290   11.385040   -3.847920
  H     -0.021770   12.604730   -5.119640
  H     -1.259940   11.348090   -5.220000
  H     -1.462880   12.062980   -1.205620
  H     -3.007260   10.657110    0.076060
  H     -6.478220    5.385820   -2.274270
  H    -10.970360   10.157710   -2.594130
  H    -11.710680   12.426670   -2.250310
  H     -8.204710   16.036750    0.689200
  H     -9.199260   17.506500    0.897610
  H     -7.556600   16.795060   -1.586200
  H     -7.112740   18.002050   -0.373840
  H     -8.535720   18.260150   -1.386750
  H    -13.546890   17.508230   -0.674690
  H    -14.163990   16.052960   -1.508090
  H    -12.561900   18.302240   -2.827150
  H    -14.300850   18.043560   -2.990360
  H    -13.171570   16.849960   -3.641210
  H      6.257200    0.961200    2.152000
  H      5.090750    2.298390    1.951660
  H      3.577090   -3.475940   -0.198330
  H      5.155050   -3.237760    0.605830
  H      4.562860   -2.726110   -2.353970
  H      5.438560   -4.120420   -1.711460
  H      6.136300   -2.504730   -1.567130
  H      7.138710    1.406640   -0.139460
  H      7.259540    2.850380    0.870050
  H      5.970520    2.726210   -0.333080

----------------------------
CARTESIAN COORDINATES (A.U.)
----------------------------
  NO LB      ZA    FRAG     MASS         X           Y           Z
   0 C     6.0000    0    12.011    2.341975    1.117093   -1.057963
   1 C     6.0000    0    12.011    0.860468    3.316110   -1.061402
   2 C     6.0000    0    12.011    1.287848    5.785302   -0.288391
   3 C     6.0000    0    12.011   -0.793345    7.320837   -0.694569
   4 C     6.0000    0    12.011   -2.884270    6.078720   -1.792840
   5 S    16.0000    0    32.060   -2.228252    2.948955   -2.318751
   6 C     6.0000    0    12.011   -4.931902    7.691809   -2.145519
   7 C     6.0000    0    12.011   -7.548662    7.553216   -3.251973
   8 C     6.0000    0    12.011   -9.322775    5.805673   -1.834093
   9 C     6.0000    0    12.011   -8.875269    5.159292    0.667073
  10 C     6.0000    0    12.011  -10.552665    3.629011    1.960459
  11 C     6.0000    0    12.011  -12.720389    2.718768    0.797767
  12 C     6.0000    0    12.011  -14.582525    1.127807    2.229499
  13 C     6.0000    0    12.011  -16.600658    2.796114    3.456290
  14 C     6.0000    0    12.011  -13.172260    3.393400   -1.698580
  15 C     6.0000    0    12.011  -11.500363    4.917899   -3.000980
  16 C     6.0000    0    12.011   -7.250690    6.790013   -6.002696
  17 C     6.0000    0    12.011   -7.178295    8.563124   -7.931218
  18 C     6.0000    0    12.011   -6.781471    7.806969  -10.402621
  19 C     6.0000    0    12.011   -6.433535    5.278232  -11.004291
  20 C     6.0000    0    12.011   -5.910118    4.471187  -13.673397
  21 C     6.0000    0    12.011   -3.060393    4.338188  -14.144940
  22 C     6.0000    0    12.011   -6.482233    3.514966   -9.058931
  23 C     6.0000    0    12.011   -6.880984    4.256514   -6.589116
  24 C     6.0000    0    12.011   -8.434849   10.258038   -2.876390
  25 C     6.0000    0    12.011   -6.520330   11.744629   -1.746220
  26 C     6.0000    0    12.011   -4.393500   10.127080   -1.349038
  27 S    16.0000    0    32.060   -1.386927   10.509069   -0.126404
  28 C     6.0000    0    12.011   -6.877431   14.291621   -1.193305
  29 C     6.0000    0    12.011   -9.196844   15.316041   -1.762396
  30 C     6.0000    0    12.011  -10.082124   18.019691   -1.386341
  31 C     6.0000    0    12.011  -10.285194   18.829477    1.358826
  32 C     6.0000    0    12.011  -10.677557   21.368362    1.905864
  33 C     6.0000    0    12.011  -10.981312   22.156566    4.374735
  34 C     6.0000    0    12.011  -10.910107   20.436935    6.357606
  35 C     6.0000    0    12.011  -11.151898   21.310366    9.046497
  36 C     6.0000    0    12.011   -8.552712   21.953572   10.137889
  37 C     6.0000    0    12.011  -10.528930   17.903417    5.796470
  38 C     6.0000    0    12.011  -10.233528   17.098847    3.326183
  39 C     6.0000    0    12.011   -8.348451   19.751663   -2.876390
  40 C     6.0000    0    12.011   -8.883829   20.404299   -5.358432
  41 C     6.0000    0    12.011   -7.242205   21.920672   -6.712175
  42 C     6.0000    0    12.011   -5.022533   22.808257   -5.632234
  43 C     6.0000    0    12.011   -3.203275   24.380264   -7.138592
  44 C     6.0000    0    12.011   -1.359072   22.683630   -8.581133
  45 C     6.0000    0    12.011   -4.484301   22.128920   -3.154898
  46 C     6.0000    0    12.011   -6.122391   20.621296   -1.790818
  47 C     6.0000    0    12.011  -12.722298   17.868022   -2.431114
  48 C     6.0000    0    12.011  -13.253481   15.438250   -3.242317
  49 C     6.0000    0    12.011  -11.115671   13.826880   -2.883571
  50 C     6.0000    0    12.011  -10.754299   11.281835   -3.446501
  51 S    16.0000    0    32.060  -16.282466   15.048210   -4.418784
  52 C     6.0000    0    12.011  -16.878826   18.231397   -3.795496
  53 C     6.0000    0    12.011  -14.780833   19.485231   -2.721999
  54 S    16.0000    0    32.060  -15.411019   22.613691   -2.108481
  55 C     6.0000    0    12.011  -18.497849   22.250524   -3.293018
  56 C     6.0000    0    12.011  -18.950306   19.780330   -4.118942
  57 C     6.0000    0    12.011  -20.359928   24.120408   -3.425620
  58 C     6.0000    0    12.011    4.751603    0.528027   -0.278602
  59 C     6.0000    0    12.011  -20.420948   26.616963   -2.693899
  60 C     6.0000    0    12.011  -22.806727   27.934480   -3.148624
  61 N     7.0000    0    14.007  -22.913761   30.437309   -2.362725
  62 C     6.0000    0    12.011  -20.946329   31.702934   -1.280082
  63 N     7.0000    0    14.007  -18.745989   30.419980   -0.842875
  64 C     6.0000    0    12.011  -18.328227   27.929869   -1.537632
  65 C     6.0000    0    12.011    6.572600    2.237058    0.866383
  66 N     7.0000    0    14.007    8.881486    1.176355    1.551616
  67 C     6.0000    0    12.011    9.569044   -1.270822    1.119890
  68 N     7.0000    0    14.007    7.836600   -2.860970    0.065252
  69 C     6.0000    0    12.011    5.440937   -2.126679   -0.701788
  70 O     8.0000    0    15.999  -24.627497   26.948515   -4.143111
  71 O     8.0000    0    15.999  -16.258221   26.976729   -1.142642
  72 C     6.0000    0    12.011  -16.626661   31.736854    0.330475
  73 C     6.0000    0    12.011  -15.017030   33.088292   -1.634915
  74 C     6.0000    0    12.011  -25.282665   31.768318   -2.828939
  75 C     6.0000    0    12.011  -25.222628   33.164902   -5.344108
  76 S    16.0000    0    32.060  -21.213744   34.713721   -0.502403
  77 O     8.0000    0    15.999    6.219693    4.475760    1.262564
  78 C     6.0000    0    12.011   10.706886    2.890450    2.707883
  79 S    16.0000    0    32.060   12.425157   -2.290575    1.864820
  80 C     6.0000    0    12.011    8.519074   -5.492867   -0.392780
  81 O     8.0000    0    15.999    4.024077   -3.655146   -1.669951
  82 C     6.0000    0    12.011    9.842393   -5.804275   -2.928924
  83 C     6.0000    0    12.011   12.410115    4.098173    0.727620
  84 H     1.0000    0     1.008    1.371620   -0.515952   -1.847642
  85 H     1.0000    0     1.008    3.047202    6.387161    0.522245
  86 H     1.0000    0     1.008   -7.204638    5.848570    1.617322
  87 H     1.0000    0     1.008  -10.165895    3.132278    3.903192
  88 H     1.0000    0     1.008  -13.605197    0.053612    3.694717
  89 H     1.0000    0     1.008  -15.493052   -0.207908    0.947414
  90 H     1.0000    0     1.008  -15.731554    4.130752    4.755912
  91 H     1.0000    0     1.008  -17.947787    1.646367    4.498455
  92 H     1.0000    0     1.008  -17.616953    3.861693    2.022101
  93 H     1.0000    0     1.008  -14.851584    2.709603   -2.638266
  94 H     1.0000    0     1.008  -11.874642    5.400799   -4.949193
  95 H     1.0000    0     1.008   -7.433446   10.544502   -7.510244
  96 H     1.0000    0     1.008   -6.740332    9.211338  -11.884922
  97 H     1.0000    0     1.008   -6.756584    5.814083  -14.991160
  98 H     1.0000    0     1.008   -6.741806    2.614568  -14.017875
  99 H     1.0000    0     1.008   -2.198186    6.178497  -13.835479
 100 H     1.0000    0     1.008   -2.677818    3.749727  -16.076335
 101 H     1.0000    0     1.008   -2.185260    2.991663  -12.862194
 102 H     1.0000    0     1.008   -6.204368    1.537179   -9.482287
 103 H     1.0000    0     1.008   -6.917267    2.859231   -5.100805
 104 H     1.0000    0     1.008   -5.388913   15.394087   -0.341662
 105 H     1.0000    0     1.008  -10.742753   22.733481    0.390191
 106 H     1.0000    0     1.008  -11.290301   24.136546    4.763414
 107 H     1.0000    0     1.008  -12.021020   19.828311   10.189214
 108 H     1.0000    0     1.008  -12.356825   22.982849    9.131043
 109 H     1.0000    0     1.008   -7.329019   20.302613   10.090457
 110 H     1.0000    0     1.008   -8.726604   22.586252   12.085422
 111 H     1.0000    0     1.008   -7.666317   23.447004    9.038371
 112 H     1.0000    0     1.008  -10.475130   16.532609    7.309706
 113 H     1.0000    0     1.008   -9.962617   15.112801    2.937768
 114 H     1.0000    0     1.008  -10.595997   19.733597   -6.245148
 115 H     1.0000    0     1.008   -7.697516   22.425040   -8.638146
 116 H     1.0000    0     1.008   -2.141608   25.622362   -5.879221
 117 H     1.0000    0     1.008   -4.239147   25.554483   -8.482225
 118 H     1.0000    0     1.008   -0.289676   21.514608   -7.271515
 119 H     1.0000    0     1.008   -0.041139   23.819488   -9.674718
 120 H     1.0000    0     1.008   -2.380942   21.444782   -9.864370
 121 H     1.0000    0     1.008   -2.764443   22.795729   -2.278292
 122 H     1.0000    0     1.008   -5.682898   20.139019    0.143733
 123 H     1.0000    0     1.008  -12.242062   10.177725   -4.297747
 124 H     1.0000    0     1.008  -20.730976   19.195290   -4.902195
 125 H     1.0000    0     1.008  -22.129978   23.483003   -4.252470
 126 H     1.0000    0     1.008  -15.504655   30.305066    1.302399
 127 H     1.0000    0     1.008  -17.384082   33.082491    1.696237
 128 H     1.0000    0     1.008  -14.279905   31.738064   -2.997484
 129 H     1.0000    0     1.008  -13.441131   34.018944   -0.706455
 130 H     1.0000    0     1.008  -16.130173   34.506683   -2.620578
 131 H     1.0000    0     1.008  -25.599912   33.085760   -1.274979
 132 H     1.0000    0     1.008  -26.766062   30.335698   -2.849877
 133 H     1.0000    0     1.008  -23.738551   34.586221   -5.342539
 134 H     1.0000    0     1.008  -27.024690   34.097387   -5.650961
 135 H     1.0000    0     1.008  -24.890660   31.841810   -6.880890
 136 H     1.0000    0     1.008   11.824394    1.816405    4.066691
 137 H     1.0000    0     1.008    9.620123    4.343328    3.688103
 138 H     1.0000    0     1.008    6.759720   -6.568575   -0.374789
 139 H     1.0000    0     1.008    9.741633   -6.118480    1.144853
 140 H     1.0000    0     1.008    8.622556   -5.151601   -4.448359
 141 H     1.0000    0     1.008   10.277389   -7.786465   -3.234191
 142 H     1.0000    0     1.008   11.595926   -4.733254   -2.961447
 143 H     1.0000    0     1.008   13.490207    2.658164   -0.263541
 144 H     1.0000    0     1.008   13.718542    5.386438    1.644156
 145 H     1.0000    0     1.008   11.282648    5.151790   -0.629430

--------------------------------
INTERNAL COORDINATES (ANGSTROEM)
--------------------------------
 C      0   0   0     0.000000000000     0.00000000     0.00000000
 C      1   0   0     1.403123594592     0.00000000     0.00000000
 C      2   1   0     1.387727105306   133.58593625     0.00000000
 C      3   2   1     1.385415082529   112.14561896   179.67897581
 C      4   3   2     1.412122283409   114.43881288     0.00000000
 S      5   4   3     1.714923453831   110.95941949     0.03069472
 C      5   4   3     1.391970927354   112.31395087   179.53678798
 C      7   5   4     1.505216890883   137.59525449   177.44914831
 C      8   7   5     1.516419844931   114.00349353    65.16378826
 C      9   8   7     1.387403420855   121.11098015    21.78175383
 C     10   9   8     1.382790308977   120.46411673   177.91267040
 C     11  10   9     1.387960427174   120.95404067   359.64587412
 C     12  11  10     1.501275171179   120.88923688   182.02408341
 C     13  12  11     1.530148250171   110.40599203    90.67854946
 C     12  11  10     1.389134548739   118.33519772   359.68887556
 C     15  12  11     1.381505376682   120.94700676     0.43103597
 C      8   7   5     1.518816494413   106.87295356   300.72434231
 C     17   8   7     1.386844353596   121.88446009   264.73575972
 C     18  17   8     1.383681616486   120.26863538   176.84725322
 C     19  18  17     1.387774401335   121.05253140   359.59916903
 C     20  19  18     1.501354458547   120.97054644   182.22796604
 C     21  20  19     1.530134871637   110.38466481    92.37271219
 C     20  19  18     1.389621924446   118.36151098   359.73463091
 C     23  20  19     1.380826350089   120.87697984     0.35896356
 C      8   7   5     1.519250220964   100.78779483   181.26806660
 C     25   8   7     1.415251775092   110.97749549     1.17479721
 C      7   5   4     1.385475014066   111.68685935     0.57392967
 S     27   7   5     1.729384127312   114.31279890   359.50994060
 C     26  25   8     1.392088490399   121.99298120   180.36366121
 C     29  26  25     1.375145591165   117.18111073     0.81016788
 C     30  29  26     1.518550705443   128.17458111   180.61852393
 C     31  30  29     1.518372887139   114.40019757   293.93272590
 C     32  31  30     1.389947796754   118.85694287   169.67489817
 C     33  32  31     1.380823529094   120.42550591   177.17244836
 C     34  33  32     1.389428330861   120.89982901   359.79140075
 C     35  34  33     1.501547352733   120.77906209   177.88542986
 C     36  35  34     1.530101916017   110.46022284   271.07781038
 C     35  34  33     1.387906030717   118.36075368   359.92018806
 C     38  35  34     1.383666017650   121.04967653   359.81084149
 C     31  30  29     1.517695824861   108.32412502    59.21052031
 C     40  31  30     1.387322139699   121.24899107    90.73275660
 C     41  40  31     1.382655758278   120.44342433   182.02998508
 C     42  41  40     1.388122201573   120.97837155     0.42928241
 C     43  42  41     1.501410829154   120.76180742   177.88058921
 C     44  43  42     1.530097895594   110.40983114   273.03216127
 C     43  42  41     1.388864786435   118.32974433     0.19054099
 C     46  43  42     1.381647354139   120.92640172   359.58489620
 C     31  30  29     1.504676443259   100.83845172   178.89365866
 C     48  31  30     1.384382363872   110.61001435     0.67302290
 C     30  29  26     1.415638841972   120.83304275   359.45576910
 C     25   8   7     1.375151754898   128.16864819   182.46736845
 S     49  48  31     1.731870130957   114.20950285   178.66775666
 C     52  49  48     1.745227133126    89.10560446   359.68425818
 C     48  31  30     1.393811614925   137.18142594   178.08083125
 S     54  48  31     1.719687874616   136.20212600     2.11276258
 C     55  54  48     1.760143719047    90.43670046   179.92956251
 C     53  52  49     1.379401628823   133.92964538   180.13880197
 C     56  55  54     1.398208895623   126.48601129   179.40710365
 C      1   2   3     1.375932639776   134.91677121     0.86929604
 C     58  56  55     1.377073811602   132.94918284   358.41766554
 C     60  58  56     1.462154877877   115.55816970   180.85074313
 N     61  60  58     1.389354374377   116.13516153   178.48657899
 C     62  61  60     1.364077853387   124.23911379     1.64703142
 N     63  62  61     1.367553923836   118.49959282   357.42513909
 C     64  63  62     1.385784294723   124.26328139     3.21171539
 C     59   1   2     1.453822812897   126.74463377   359.95473602
 N     66  59   1     1.392610275059   116.06045938   178.53732961
 C     67  66  59     1.364394597358   124.95377780     3.18191803
 N     68  67  66     1.363819431560   118.35111514   356.16846319
 C     69  68  67     1.386679778392   124.15511251     2.86544656
 O     61  60  58     1.215534520365   123.43599455   358.74415231
 O     65  64  63     1.223923896654   119.29618658   177.38340475
 C     64  63  62     1.459076878612   119.29645098   180.44169748
 C     73  64  63     1.522712018899   111.32227312   273.55404850
 C     62  61  60     1.458903151206   116.40033423   179.53821020
 C     75  62  61     1.522718160199   111.35845274   267.37280001
 S     63  62  61     1.651603983587   120.85649456   177.66478548
 O     66  59   1     1.217485808500   125.12756669   358.75103584
 C     67  66  59     1.459527821626   116.06099243   180.17351737
 S     68  67  66     1.652541651215   120.92279113   176.40350144
 C     69  68  67     1.459075767224   119.37588078   180.57681335
 O     70  69  68     1.216076909862   120.03998545   178.64058182
 C     81  69  68     1.522723120564   111.31779748   274.24076174
 C     79  67  66     1.522801331166   111.34967842   269.24635967
 H      1   2   3     1.088616306786   113.22246778   180.63414716
 H      3   2   1     1.073420123297   122.58278233   359.77854351
 H     10   9   8     1.080491910474   120.02668537   357.77092864
 H     11  10   9     1.080681262445   119.45421714   179.49937181
 H     13  12  11     1.091687828823   109.84528345   330.12854324
 H     13  12  11     1.091816468231   109.82316695   211.16987372
 H     14  13  12     1.087792695600   110.34937954   300.33326373
 H     14  13  12     1.087428045160   110.48090956   180.15943570
 H     14  13  12     1.087740510416   110.37402245    59.97105629
 H     15  12  11     1.080703255154   119.54185607   180.16703882
 H     16  15  12     1.080456550584   119.78414190   179.20604163
 H     18  17   8     1.080374529180   120.09389026   356.79733835
 H     19  18  17     1.080760879427   119.35330266   179.67169230
 H     21  20  19     1.091744205709   109.87988844   331.78389939
 H     21  20  19     1.091876094894   109.79506740   212.79395140
 H     22  21  20     1.087830109760   110.34251913   300.03969374
 H     22  21  20     1.087447545861   110.48237478   179.87219189
 H     22  21  20     1.087638980774   110.36408700    59.69497039
 H     23  20  19     1.080361866460   119.62610352   180.36807392
 H     24  23  20     1.080452703500   119.87963850   179.85692321
 H     29  26  25     1.078848712749   120.81381653   180.37444652
 H     33  32  31     1.079971205959   119.77884159   357.09111580
 H     34  33  32     1.080204054843   119.39118891   180.19095550
 H     36  35  34     1.091910220348   109.85220691   150.51607651
 H     36  35  34     1.091721912210   109.76381719    31.57006731
 H     37  36  35     1.087757020203   110.35017376   300.16306473
 H     37  36  35     1.087508376290   110.49452815   180.00190875
 H     37  36  35     1.087710142133   110.32594479    59.83889266
 H     38  35  34     1.080855352857   119.57876116   180.26484048
 H     39  38  35     1.080433580605   119.60590972   180.76507319
 H     41  40  31     1.080302495091   120.04665715     2.26375312
 H     42  41  40     1.080747688408   119.46221022   180.57290437
 H     44  43  42     1.091691149135   109.84425808   152.48975006
 H     44  43  42     1.091846831245   109.82446850    33.53527990
 H     45  44  43     1.087754675835   110.34491260   300.12344133
 H     45  44  43     1.087461949357   110.50017338   179.94429929
 H     45  44  43     1.087798267603   110.36515965    59.75384715
 H     46  43  42     1.080738194985   119.55983927   179.87363546
 H     47  46  43     1.080381223180   119.76159815   180.97447582
 H     51  25   8     1.078939844755   121.97426044   358.97092015
 H     57  53  52     1.074965154133   124.98109560   359.88595144
 H     58  56  55     1.087461255126   114.06059981   179.21820130
 H     73  64  63     1.091382645501   106.68647033   153.41676421
 H     73  64  63     1.090891944878   108.13635026    35.21359252
 H     74  73  64     1.087463942667   110.17806757   300.64480944
 H     74  73  64     1.085988553209   109.48274484   181.01090694
 H     74  73  64     1.087385105195   110.41307287    61.41982125
 H     75  62  61     1.091066424376   108.25495540   145.58144306
 H     75  62  61     1.091351061254   106.52219936    27.40383155
 H     76  75  62     1.087409371580   110.49335118   298.35109092
 H     76  75  62     1.085924582556   109.44624277   178.72894477
 H     76  75  62     1.087388157145   110.15528513    59.12209348
 H     79  67  66     1.090766996980   108.14014909   147.56960400
 H     79  67  66     1.091278214343   106.75823561    29.42343394
 H     81  69  68     1.091285676668   106.57630878   154.17698718
 H     81  69  68     1.090972120863   108.21245039    35.97289821
 H     83  81  69     1.087412942263   110.14065804   301.15263707
 H     83  81  69     1.085972721849   109.45778497   181.54757833
 H     83  81  69     1.087459041344   110.48500754    61.91238719
 H     84  79  67     1.087407726660   110.42111880   298.52921402
 H     84  79  67     1.085992988283   109.48033175   178.91750765
 H     84  79  67     1.087439972504   110.17450665    59.25843129

---------------------------
INTERNAL COORDINATES (A.U.)
---------------------------
 C      0   0   0     0.000000000000     0.00000000     0.00000000
 C      1   0   0     2.651519325822     0.00000000     0.00000000
 C      2   1   0     2.622424177647   133.58593625     0.00000000
 C      3   2   1     2.618055087785   112.14561896   179.67897581
 C      4   3   2     2.668524383250   114.43881288     0.00000000
 S      5   4   3     3.240735668379   110.95941949     0.03069472
 C      5   4   3     2.630443839080   112.31395087   179.53678798
 C      7   5   4     2.844447695922   137.59525449   177.44914831
 C      8   7   5     2.865618210963   114.00349353    65.16378826
 C      9   8   7     2.621812502681   121.11098015    21.78175383
 C     10   9   8     2.613094984606   120.46411673   177.91267040
 C     11  10   9     2.622865092079   120.95404067   359.64587412
 C     12  11  10     2.836998925185   120.88923688   182.02408341
 C     13  12  11     2.891561137121   110.40599203    90.67854946
 C     12  11  10     2.625083860285   118.33519772   359.68887556
 C     15  12  11     2.610666814468   120.94700676     0.43103597
 C      8   7   5     2.870147222122   106.87295356   300.72434231
 C     17   8   7     2.620756018671   121.88446009   264.73575972
 C     18  17   8     2.614779311699   120.26863538   176.84725322
 C     19  18  17     2.622513554189   121.05253140   359.59916903
 C     20  19  18     2.837148756596   120.97054644   182.22796604
 C     21  20  19     2.891535855357   110.38466481    92.37271219
 C     20  19  18     2.626004866895   118.36151098   359.73463091
 C     23  20  19     2.609383640170   120.87697984     0.35896356
 C      8   7   5     2.870966846522   100.78779483   181.26806660
 C     25   8   7     2.674438265469   110.97749549     1.17479721
 C      7   5   4     2.618168341975   111.68685935     0.57392967
 S     27   7   5     3.268062380971   114.31279890   359.50994060
 C     26  25   8     2.630666001037   121.99298120   180.36366121
 C     29  26  25     2.598648561571   117.18111073     0.81016788
 C     30  29  26     2.869644953759   128.17458111   180.61852393
 C     31  30  29     2.869308925865   114.40019757   293.93272590
 C     32  31  30     2.626620676311   118.85694287   169.67489817
 C     33  32  31     2.609378309263   120.42550591   177.17244836
 C     34  33  32     2.625639028039   120.89982901   359.79140075
 C     35  34  33     2.837513273780   120.77906209   177.88542986
 C     36  35  34     2.891473578261   110.46022284   271.07781038
 C     35  34  33     2.622762297672   118.36075368   359.92018806
 C     38  35  34     2.614749834172   121.04967653   359.81084149
 C     31  30  29     2.868029463583   108.32412502    59.21052031
 C     40  31  30     2.621658903557   121.24899107    90.73275660
 C     41  40  31     2.612840720635   120.44342433   182.02998508
 C     42  41  40     2.623170801389   120.97837155     0.42928241
 C     43  42  41     2.837255281604   120.76180742   177.88058921
 C     44  43  42     2.891465980761   110.40983114   273.03216127
 C     43  42  41     2.624574083410   118.32974433     0.19054099
 C     46  43  42     2.610935112980   120.92640172   359.58489620
 C     31  30  29     2.843426397923   100.83845172   178.89365866
 C     48  31  30     2.616103532349   110.61001435     0.67302290
 C     30  29  26     2.675169715869   120.83304275   359.45576910
 C     25   8   7     2.598660209339   128.16864819   182.46736845
 S     49  48  31     3.272760247027   114.20950285   178.66775666
 C     52  49  48     3.298001323097    89.10560446   359.68425818
 C     48  31  30     2.633922234487   137.18142594   178.08083125
 S     54  48  31     3.249739118849   136.20212600     2.11276258
 C     55  54  48     3.326189585340    90.43670046   179.92956251
 C     53  52  49     2.606691307161   133.92964538   180.13880197
 C     56  55  54     2.642231890740   126.48601129   179.40710365
 C      1   2   3     2.600135867899   134.91677121     0.86929604
 C     58  56  55     2.602292370123   132.94918284   358.41766554
 C     60  58  56     2.763072284565   115.55816970   180.85074313
 N     61  60  58     2.625499270538   116.13516153   178.48657899
 C     62  61  60     2.577733568248   124.23911379     1.64703142
 N     63  62  61     2.584302389420   118.49959282   357.42513909
 C     64  63  62     2.618752797715   124.26328139     3.21171539
 C     59   1   2     2.747326963623   126.74463377   359.95473602
 N     66  59   1     2.631652031146   116.06045938   178.53732961
 C     67  66  59     2.578332127609   124.95377780     3.18191803
 N     68  67  66     2.577245221768   118.35111514   356.16846319
 C     69  68  67     2.620445016607   124.15511251     2.86544656
 O     61  60  58     2.297027349818   123.43599455   358.74415231
 O     65  64  63     2.312880973437   119.29618658   177.38340475
 C     64  63  62     2.757255708913   119.29645098   180.44169748
 C     73  64  63     2.877508696550   111.32227312   273.55404850
 C     62  61  60     2.756927411695   116.40033423   179.53821020
 C     75  62  61     2.877520301925   111.35845274   267.37280001
 S     63  62  61     3.121079210673   120.85649456   177.66478548
 O     66  59   1     2.300714750002   125.12756669   358.75103584
 C     67  66  59     2.758107867712   116.06099243   180.17351737
 S     68  67  66     3.122851145694   120.92279113   176.40350144
 C     69  68  67     2.757253608694   119.37588078   180.57681335
 O     70  69  68     2.298052317425   120.03998545   178.64058182
 C     81  69  68     2.877529675656   111.31779748   274.24076174
 C     79  67  66     2.877677472274   111.34967842   269.24635967
 H      1   2   3     2.057186684746   113.22246778   180.63414716
 H      3   2   1     2.028470059672   122.58278233   359.77854351
 H     10   9   8     2.041833800713   120.02668537   357.77092864
 H     11  10   9     2.042191624082   119.45421714   179.49937181
 H     13  12  11     2.062991020210   109.84528345   330.12854324
 H     13  12  11     2.063234113461   109.82316695   211.16987372
 H     14  13  12     2.055630285163   110.34937954   300.33326373
 H     14  13  12     2.054941195697   110.48090956   180.15943570
 H     14  13  12     2.055531669458   110.37402245    59.97105629
 H     15  12  11     2.042233184278   119.54185607   180.16703882
 H     16  15  12     2.041766980205   119.78414190   179.20604163
 H     18  17   8     2.041611982214   120.09389026   356.79733835
 H     19  18  17     2.042342078373   119.35330266   179.67169230
 H     21  20  19     2.063097557086   109.87988844   331.78389939
 H     21  20  19     2.063346791524   109.79506740   212.79395140
 H     22  21  20     2.055700987680   110.34251913   300.03969374
 H     22  21  20     2.054978046683   110.48237478   179.87219189
 H     22  21  20     2.055339806241   110.36408700    59.69497039
 H     23  20  19     2.041588053141   119.62610352   180.36807392
 H     24  23  20     2.041759710269   119.87963850   179.85692321
 H     29  26  25     2.038728607029   120.81381653   180.37444652
 H     33  32  31     2.040849811783   119.77884159   357.09111580
 H     34  33  32     2.041289832405   119.39118891   180.19095550
 H     36  35  34     2.063411279287   109.85220691   150.51607651
 H     36  35  34     2.063055428478   109.76381719    31.57006731
 H     37  36  35     2.055562868433   110.35017376   300.16306473
 H     37  36  35     2.055092999533   110.49452815   180.00190875
 H     37  36  35     2.055474281721   110.32594479    59.83889266
 H     38  35  34     2.042520607283   119.57876116   180.26484048
 H     39  38  35     2.041723573236   119.60590972   180.76507319
 H     41  40  31     2.041475857514   120.04665715     2.26375312
 H     42  41  40     2.042317150960   119.46221022   180.57290437
 H     44  43  42     2.062997294691   109.84425808   152.48975006
 H     44  43  42     2.063291491243   109.82446850    33.53527990
 H     45  44  43     2.055558438220   110.34491260   300.12344133
 H     45  44  43     2.055005265345   110.50017338   179.94429929
 H     45  44  43     2.055640814724   110.36515965    59.75384715
 H     46  43  42     2.042299210991   119.55983927   179.87363546
 H     47  46  43     2.041624632041   119.76159815   180.97447582
 H     51  25   8     2.038900821563   121.97426044   358.97092015
 H     57  53  52     2.031389744820   124.98109560   359.88595144
 H     58  56  55     2.055003953438   114.06059981   179.21820130
 H     73  64  63     2.062414307311   106.68647033   153.41676421
 H     73  64  63     2.061487017520   108.13635026    35.21359252
 H     74  73  64     2.055009032154   110.17806757   300.64480944
 H     74  73  64     2.052220950138   109.48274484   181.01090694
 H     74  73  64     2.054860050924   110.41307287    61.41982125
 H     75  62  61     2.061816735987   108.25495540   145.58144306
 H     75  62  61     2.062354621734   106.52219936    27.40383155
 H     76  75  62     2.054905907746   110.49335118   298.35109092
 H     76  75  62     2.052100063124   109.44624277   178.72894477
 H     76  75  62     2.054865818274   110.15528513    59.12209348
 H     79  67  66     2.061250900211   108.14014909   147.56960400
 H     79  67  66     2.062216961023   106.75823561    29.42343394
 H     81  69  68     2.062231062773   106.57630878   154.17698718
 H     81  69  68     2.061638528174   108.21245039    35.97289821
 H     83  81  69     2.054912655358   110.14065804   301.15263707
 H     83  81  69     2.052191033204   109.45778497   181.54757833
 H     83  81  69     2.054999769996   110.48500754    61.91238719
 H     84  79  67     2.054902799297   110.42111880   298.52921402
 H     84  79  67     2.052229331214   109.48033175   178.91750765
 H     84  79  67     2.054963735112   110.17450665    59.25843129

---------------------
BASIS SET INFORMATION
---------------------
There are 5 groups of distinct atoms

 Group   1 Type C   : 7s4p1d contracted to 3s2p1d pattern {511/31/1}
 Group   2 Type S   : 10s7p1d contracted to 4s3p1d pattern {5311/511/1}
 Group   3 Type N   : 7s4p1d contracted to 3s2p1d pattern {511/31/1}
 Group   4 Type O   : 7s4p1d contracted to 3s2p1d pattern {511/31/1}
 Group   5 Type H   : 4s1p contracted to 2s1p pattern {31/1}

Atom   0C    basis set group =>   1
Atom   1C    basis set group =>   1
Atom   2C    basis set group =>   1
Atom   3C    basis set group =>   1
Atom   4C    basis set group =>   1
Atom   5S    basis set group =>   2
Atom   6C    basis set group =>   1
Atom   7C    basis set group =>   1
Atom   8C    basis set group =>   1
Atom   9C    basis set group =>   1
Atom  10C    basis set group =>   1
Atom  11C    basis set group =>   1
Atom  12C    basis set group =>   1
Atom  13C    basis set group =>   1
Atom  14C    basis set group =>   1
Atom  15C    basis set group =>   1
Atom  16C    basis set group =>   1
Atom  17C    basis set group =>   1
Atom  18C    basis set group =>   1
Atom  19C    basis set group =>   1
Atom  20C    basis set group =>   1
Atom  21C    basis set group =>   1
Atom  22C    basis set group =>   1
Atom  23C    basis set group =>   1
Atom  24C    basis set group =>   1
Atom  25C    basis set group =>   1
Atom  26C    basis set group =>   1
Atom  27S    basis set group =>   2
Atom  28C    basis set group =>   1
Atom  29C    basis set group =>   1
Atom  30C    basis set group =>   1
Atom  31C    basis set group =>   1
Atom  32C    basis set group =>   1
Atom  33C    basis set group =>   1
Atom  34C    basis set group =>   1
Atom  35C    basis set group =>   1
Atom  36C    basis set group =>   1
Atom  37C    basis set group =>   1
Atom  38C    basis set group =>   1
Atom  39C    basis set group =>   1
Atom  40C    basis set group =>   1
Atom  41C    basis set group =>   1
Atom  42C    basis set group =>   1
Atom  43C    basis set group =>   1
Atom  44C    basis set group =>   1
Atom  45C    basis set group =>   1
Atom  46C    basis set group =>   1
Atom  47C    basis set group =>   1
Atom  48C    basis set group =>   1
Atom  49C    basis set group =>   1
Atom  50C    basis set group =>   1
Atom  51S    basis set group =>   2
Atom  52C    basis set group =>   1
Atom  53C    basis set group =>   1
Atom  54S    basis set group =>   2
Atom  55C    basis set group =>   1
Atom  56C    basis set group =>   1
Atom  57C    basis set group =>   1
Atom  58C    basis set group =>   1
Atom  59C    basis set group =>   1
Atom  60C    basis set group =>   1
Atom  61N    basis set group =>   3
Atom  62C    basis set group =>   1
Atom  63N    basis set group =>   3
Atom  64C    basis set group =>   1
Atom  65C    basis set group =>   1
Atom  66N    basis set group =>   3
Atom  67C    basis set group =>   1
Atom  68N    basis set group =>   3
Atom  69C    basis set group =>   1
Atom  70O    basis set group =>   4
Atom  71O    basis set group =>   4
Atom  72C    basis set group =>   1
Atom  73C    basis set group =>   1
Atom  74C    basis set group =>   1
Atom  75C    basis set group =>   1
Atom  76S    basis set group =>   2
Atom  77O    basis set group =>   4
Atom  78C    basis set group =>   1
Atom  79S    basis set group =>   2
Atom  80C    basis set group =>   1
Atom  81O    basis set group =>   4
Atom  82C    basis set group =>   1
Atom  83C    basis set group =>   1
Atom  84H    basis set group =>   5
Atom  85H    basis set group =>   5
Atom  86H    basis set group =>   5
Atom  87H    basis set group =>   5
Atom  88H    basis set group =>   5
Atom  89H    basis set group =>   5
Atom  90H    basis set group =>   5
Atom  91H    basis set group =>   5
Atom  92H    basis set group =>   5
Atom  93H    basis set group =>   5
Atom  94H    basis set group =>   5
Atom  95H    basis set group =>   5
Atom  96H    basis set group =>   5
Atom  97H    basis set group =>   5
Atom  98H    basis set group =>   5
Atom  99H    basis set group =>   5
Atom 100H    basis set group =>   5
Atom 101H    basis set group =>   5
Atom 102H    basis set group =>   5
Atom 103H    basis set group =>   5
Atom 104H    basis set group =>   5
Atom 105H    basis set group =>   5
Atom 106H    basis set group =>   5
Atom 107H    basis set group =>   5
Atom 108H    basis set group =>   5
Atom 109H    basis set group =>   5
Atom 110H    basis set group =>   5
Atom 111H    basis set group =>   5
Atom 112H    basis set group =>   5
Atom 113H    basis set group =>   5
Atom 114H    basis set group =>   5
Atom 115H    basis set group =>   5
Atom 116H    basis set group =>   5
Atom 117H    basis set group =>   5
Atom 118H    basis set group =>   5
Atom 119H    basis set group =>   5
Atom 120H    basis set group =>   5
Atom 121H    basis set group =>   5
Atom 122H    basis set group =>   5
Atom 123H    basis set group =>   5
Atom 124H    basis set group =>   5
Atom 125H    basis set group =>   5
Atom 126H    basis set group =>   5
Atom 127H    basis set group =>   5
Atom 128H    basis set group =>   5
Atom 129H    basis set group =>   5
Atom 130H    basis set group =>   5
Atom 131H    basis set group =>   5
Atom 132H    basis set group =>   5
Atom 133H    basis set group =>   5
Atom 134H    basis set group =>   5
Atom 135H    basis set group =>   5
Atom 136H    basis set group =>   5
Atom 137H    basis set group =>   5
Atom 138H    basis set group =>   5
Atom 139H    basis set group =>   5
Atom 140H    basis set group =>   5
Atom 141H    basis set group =>   5
Atom 142H    basis set group =>   5
Atom 143H    basis set group =>   5
Atom 144H    basis set group =>   5
Atom 145H    basis set group =>   5
---------------------------------
AUXILIARY/J BASIS SET INFORMATION
---------------------------------
There are 5 groups of distinct atoms

 Group   1 Type C   : 12s5p4d2f1g contracted to 6s4p3d1f1g pattern {711111/2111/211/2/1}
 Group   2 Type S   : 14s5p5d2f1g contracted to 8s4p3d1f1g pattern {71111111/2111/311/2/1}
 Group   3 Type N   : 12s5p4d2f1g contracted to 6s4p3d1f1g pattern {711111/2111/211/2/1}
 Group   4 Type O   : 12s5p4d2f1g contracted to 6s4p3d1f1g pattern {711111/2111/211/2/1}
 Group   5 Type H   : 5s2p1d contracted to 3s1p1d pattern {311/2/1}

Atom   0C    basis set group =>   1
Atom   1C    basis set group =>   1
Atom   2C    basis set group =>   1
Atom   3C    basis set group =>   1
Atom   4C    basis set group =>   1
Atom   5S    basis set group =>   2
Atom   6C    basis set group =>   1
Atom   7C    basis set group =>   1
Atom   8C    basis set group =>   1
Atom   9C    basis set group =>   1
Atom  10C    basis set group =>   1
Atom  11C    basis set group =>   1
Atom  12C    basis set group =>   1
Atom  13C    basis set group =>   1
Atom  14C    basis set group =>   1
Atom  15C    basis set group =>   1
Atom  16C    basis set group =>   1
Atom  17C    basis set group =>   1
Atom  18C    basis set group =>   1
Atom  19C    basis set group =>   1
Atom  20C    basis set group =>   1
Atom  21C    basis set group =>   1
Atom  22C    basis set group =>   1
Atom  23C    basis set group =>   1
Atom  24C    basis set group =>   1
Atom  25C    basis set group =>   1
Atom  26C    basis set group =>   1
Atom  27S    basis set group =>   2
Atom  28C    basis set group =>   1
Atom  29C    basis set group =>   1
Atom  30C    basis set group =>   1
Atom  31C    basis set group =>   1
Atom  32C    basis set group =>   1
Atom  33C    basis set group =>   1
Atom  34C    basis set group =>   1
Atom  35C    basis set group =>   1
Atom  36C    basis set group =>   1
Atom  37C    basis set group =>   1
Atom  38C    basis set group =>   1
Atom  39C    basis set group =>   1
Atom  40C    basis set group =>   1
Atom  41C    basis set group =>   1
Atom  42C    basis set group =>   1
Atom  43C    basis set group =>   1
Atom  44C    basis set group =>   1
Atom  45C    basis set group =>   1
Atom  46C    basis set group =>   1
Atom  47C    basis set group =>   1
Atom  48C    basis set group =>   1
Atom  49C    basis set group =>   1
Atom  50C    basis set group =>   1
Atom  51S    basis set group =>   2
Atom  52C    basis set group =>   1
Atom  53C    basis set group =>   1
Atom  54S    basis set group =>   2
Atom  55C    basis set group =>   1
Atom  56C    basis set group =>   1
Atom  57C    basis set group =>   1
Atom  58C    basis set group =>   1
Atom  59C    basis set group =>   1
Atom  60C    basis set group =>   1
Atom  61N    basis set group =>   3
Atom  62C    basis set group =>   1
Atom  63N    basis set group =>   3
Atom  64C    basis set group =>   1
Atom  65C    basis set group =>   1
Atom  66N    basis set group =>   3
Atom  67C    basis set group =>   1
Atom  68N    basis set group =>   3
Atom  69C    basis set group =>   1
Atom  70O    basis set group =>   4
Atom  71O    basis set group =>   4
Atom  72C    basis set group =>   1
Atom  73C    basis set group =>   1
Atom  74C    basis set group =>   1
Atom  75C    basis set group =>   1
Atom  76S    basis set group =>   2
Atom  77O    basis set group =>   4
Atom  78C    basis set group =>   1
Atom  79S    basis set group =>   2
Atom  80C    basis set group =>   1
Atom  81O    basis set group =>   4
Atom  82C    basis set group =>   1
Atom  83C    basis set group =>   1
Atom  84H    basis set group =>   5
Atom  85H    basis set group =>   5
Atom  86H    basis set group =>   5
Atom  87H    basis set group =>   5
Atom  88H    basis set group =>   5
Atom  89H    basis set group =>   5
Atom  90H    basis set group =>   5
Atom  91H    basis set group =>   5
Atom  92H    basis set group =>   5
Atom  93H    basis set group =>   5
Atom  94H    basis set group =>   5
Atom  95H    basis set group =>   5
Atom  96H    basis set group =>   5
Atom  97H    basis set group =>   5
Atom  98H    basis set group =>   5
Atom  99H    basis set group =>   5
Atom 100H    basis set group =>   5
Atom 101H    basis set group =>   5
Atom 102H    basis set group =>   5
Atom 103H    basis set group =>   5
Atom 104H    basis set group =>   5
Atom 105H    basis set group =>   5
Atom 106H    basis set group =>   5
Atom 107H    basis set group =>   5
Atom 108H    basis set group =>   5
Atom 109H    basis set group =>   5
Atom 110H    basis set group =>   5
Atom 111H    basis set group =>   5
Atom 112H    basis set group =>   5
Atom 113H    basis set group =>   5
Atom 114H    basis set group =>   5
Atom 115H    basis set group =>   5
Atom 116H    basis set group =>   5
Atom 117H    basis set group =>   5
Atom 118H    basis set group =>   5
Atom 119H    basis set group =>   5
Atom 120H    basis set group =>   5
Atom 121H    basis set group =>   5
Atom 122H    basis set group =>   5
Atom 123H    basis set group =>   5
Atom 124H    basis set group =>   5
Atom 125H    basis set group =>   5
Atom 126H    basis set group =>   5
Atom 127H    basis set group =>   5
Atom 128H    basis set group =>   5
Atom 129H    basis set group =>   5
Atom 130H    basis set group =>   5
Atom 131H    basis set group =>   5
Atom 132H    basis set group =>   5
Atom 133H    basis set group =>   5
Atom 134H    basis set group =>   5
Atom 135H    basis set group =>   5
Atom 136H    basis set group =>   5
Atom 137H    basis set group =>   5
Atom 138H    basis set group =>   5
Atom 139H    basis set group =>   5
Atom 140H    basis set group =>   5
Atom 141H    basis set group =>   5
Atom 142H    basis set group =>   5
Atom 143H    basis set group =>   5
Atom 144H    basis set group =>   5
Atom 145H    basis set group =>   5
------------------------------------------------------------------------------
                           ORCA GTO INTEGRAL CALCULATION
                           -- RI-GTO INTEGRALS CHOSEN --
------------------------------------------------------------------------------

                         BASIS SET STATISTICS AND STARTUP INFO

Gaussian basis set:
 # of primitive gaussian shells          ... 1354
 # of primitive gaussian functions       ... 2522
 # of contracted shells                  ...  702
 # of contracted basis functions         ... 1510
 Highest angular momentum                ...    2
 Maximum contraction depth               ...    5
Auxiliary gaussian basis set:
 # of primitive gaussian shells          ... 2530
 # of primitive gaussian functions       ... 6914
 # of contracted shells                  ... 1582
 # of contracted aux-basis functions     ... 4810
 Highest angular momentum                ...    4
 Maximum contraction depth               ...    7
Ratio of auxiliary to basis functions    ...  3.19
Integral package used                  ... LIBINT
 One Electron integrals                  ... done
 Ordering auxiliary basis shells         ... done
 Integral threshhold             Thresh  ...  2.500e-11
 Primitive cut-off               TCut    ...  2.500e-12
 Pre-screening matrix                    ... done
 Shell pair data                         ... 
 Ordering of the shell pairs             ... done (   0.017 sec) 75167 of 246753 pairs
 Determination of significant pairs      ... done (   0.000 sec)
 Creation of shell pair data             ... done (   0.010 sec)
 Storage of shell pair data              ... done (   0.015 sec)
 Shell pair data done in (   0.042 sec)
 Computing two index integrals           ... done
 Cholesky decomposition of the V-matrix  ... done


Timings:
 Total evaluation time                   ...   3.777 sec (  0.063 min)
 One electron matrix time                ...   1.163 sec (  0.019 min) = 30.8%
 Schwartz matrix evaluation time         ...   1.045 sec (  0.017 min) = 27.7%
 Two index repulsion integral time       ...   0.583 sec (  0.010 min) = 15.4%
 Cholesky decomposition of V             ...   0.925 sec (  0.015 min) = 24.5%
 Three index repulsion integral time     ...   0.000 sec (  0.000 min) =  0.0%

-------------------------------------------------------------------------------
                                 ORCA SCF
-------------------------------------------------------------------------------

------------
SCF SETTINGS
------------
Hamiltonian:
 Density Functional     Method          .... DFT(GTOs)
 Exchange Functional    Exchange        .... WB88
 Correlation Functional Correlation     .... LYP
 LDA part of GGA corr.  LDAOpt          .... VWN-5
 Gradients option       PostSCFGGA      .... off
 Hybrid DFT is turned on
   Fraction HF Exchange ScalHFX         ....  0.190000
   Scaling of DF-GGA-X  ScalDFX         ....  0.350000
   Scaling of DF-GGA-C  ScalDFC         ....  0.810000
   Scaling of DF-LDA-C  ScalLDAC        ....  1.000000
   Perturbative correction              ....  0.000000
   Density functional embedding theory  .... OFF
 Long-range corrected/Screened/Range-Separated Hybrid DFT is turned on
   Amount of maximum screened exact exchange              ....  0.460000
   Range separation parameter mu (erf(mu*r12)/r12)        ....  0.330000
 RI-approximation to the Coulomb term is turned on
   Number of auxiliary basis functions  .... 4810
   RIJ-COSX (HFX calculated with COS-X)).... on


General Settings:
 Integral files         IntName         .... IDTT-TBTA
 Hartree-Fock type      HFTyp           .... RHF
 Total Charge           Charge          ....    0
 Multiplicity           Mult            ....    1
 Number of Electrons    NEL             ....  638
 Basis Dimension        Dim             .... 1510
 Nuclear Repulsion      ENuc            ....  15303.7004122038 Eh

Convergence Acceleration:
 DIIS                   CNVDIIS         .... on
   Start iteration      DIISMaxIt       ....    12
   Startup error        DIISStart       ....  0.200000
   # of expansion vecs  DIISMaxEq       ....     5
   Bias factor          DIISBfac        ....   1.050
   Max. coefficient     DIISMaxC        ....  10.000
 Newton-Raphson         CNVNR           .... off
 SOSCF                  CNVSOSCF        .... on
   Start iteration      SOSCFMaxIt      ....   150
   Startup grad/error   SOSCFStart      ....  0.003300
 Level Shifting         CNVShift        .... on
   Level shift para.    LevelShift      ....    0.2500
   Turn off err/grad.   ShiftErr        ....    0.0010
 Zerner damping         CNVZerner       .... off
 Static damping         CNVDamp         .... on
   Fraction old density DampFac         ....    0.7000
   Max. Damping (<1)    DampMax         ....    0.9800
   Min. Damping (>=0)   DampMin         ....    0.0000
   Turn off err/grad.   DampErr         ....    0.1000
 Fernandez-Rico         CNVRico         .... off

SCF Procedure:
 Maximum # iterations   MaxIter         ....   125
 SCF integral mode      SCFMode         .... Direct
   Integral package                     .... LIBINT
 Reset frequency        DirectResetFreq ....    20
 Integral Threshold     Thresh          ....  2.500e-11 Eh
 Primitive CutOff       TCut            ....  2.500e-12 Eh

Convergence Tolerance:
 Convergence Check Mode ConvCheckMode   .... Total+1el-Energy
 Convergence forced     ConvForced      .... 1
 Energy Change          TolE            ....  1.000e-08 Eh
 1-El. energy change                    ....  1.000e-05 Eh
 Orbital Gradient       TolG            ....  1.000e-05
 Orbital Rotation angle TolX            ....  1.000e-05
 DIIS Error             TolErr          ....  5.000e-07


Diagonalization of the overlap matrix:
Smallest eigenvalue                        ... 1.867e-04
Time for diagonalization                   ...    0.862 sec
Threshold for overlap eigenvalues          ... 1.000e-08
Number of eigenvalues below threshold      ... 0
Time for construction of square roots      ...    0.299 sec
Total time needed                          ...    1.168 sec

-------------------
DFT GRID GENERATION
-------------------

General Integration Accuracy     IntAcc      ...  4.670
Radial Grid Type                 RadialGrid  ... Gauss-Chebyshev
Angular Grid (max. acc.)         AngularGrid ... Lebedev-302
Angular grid pruning method      GridPruning ... 3 (G Style)
Weight generation scheme         WeightScheme... Becke
Basis function cutoff            BFCut       ...    1.0000e-11
Integration weight cutoff        WCut        ...    1.0000e-14
Grids for H and He will be reduced by one unit

# of grid points (after initial pruning)     ... 736040 (   2.3 sec)
# of grid points (after weights+screening)   ... 617152 (  42.4 sec)
nearest neighbour list constructed           ...    0.0 sec
Grid point re-assignment to atoms done       ...    0.1 sec
Grid point division into batches done        ...    2.0 sec
Reduced shell lists constructed in   12.1 sec

Total number of grid points                  ...   617152
Total number of batches                      ...     9721
Average number of points per batch           ...       63
Average number of grid points per atom       ...     4227
Average number of shells per batch           ...   109.57 (15.61%)
Average number of basis functions per batch  ...   218.48 (14.47%)
Average number of large shells per batch     ...    62.47 (57.02%)
Average number of large basis fcns per batch ...   127.19 (58.22%)
Maximum spatial batch extension              ...  21.48, 21.68, 29.70 au
Average spatial batch extension              ...   2.04,  2.02,  2.10 au

Time for grid setup =   56.844 sec

------------------------------
INITIAL GUESS: MODEL POTENTIAL
------------------------------
Loading Hartree-Fock densities                     ... done
Calculating cut-offs                               ... done
Setting up the integral package                    ... done
Initializing the effective Hamiltonian             ... done
Starting the Coulomb interaction                   ... done (  17.0 sec)
Reading the grid                                   ... done
Mapping shells                                     ... done
Starting the XC term evaluation                    ... done (  13.2 sec)
  promolecular density results
     # of electrons  =    637.969096779
     EX              =   -585.201936554
     EC              =    -22.134482890
     EX+EC           =   -607.336419445
Transforming the Hamiltonian                       ... done (   0.3 sec)
Diagonalizing the Hamiltonian                      ... done (   0.7 sec)
Back transforming the eigenvectors                 ... done (   0.1 sec)
Now organizing SCF variables                       ... done
                      ------------------
                      INITIAL GUESS DONE (  88.5 sec)
                      ------------------
--------------------
COSX GRID GENERATION
--------------------

General Integration Accuracy     IntAcc      ...  3.340
Radial Grid Type                 RadialGrid  ... Gauss-Chebyshev
Angular Grid (max. acc.)         AngularGrid ... Lebedev-50
Angular grid pruning method      GridPruning ... 3 (G Style)
Weight generation scheme         WeightScheme... Becke
Basis function cutoff            BFCut       ...    1.0000e-11
Integration weight cutoff        WCut        ...    1.0000e-14
Grids for H and He will be reduced by one unit

# of grid points (after initial pruning)     ...  69260 (   0.1 sec)
# of grid points (after weights+screening)   ...  60789 (   3.9 sec)
nearest neighbour list constructed           ...    0.0 sec
Grid point re-assignment to atoms done       ...    0.0 sec
Grid point division into batches done        ...    0.0 sec
Reduced shell lists constructed in    1.4 sec

Total number of grid points                  ...    60789
Total number of batches                      ...     1037
Average number of points per batch           ...       58
Average number of grid points per atom       ...      416
Average number of shells per batch           ...   134.58 (19.17%)
Average number of basis functions per batch  ...   270.41 (17.91%)
Average number of large shells per batch     ...    76.27 (56.67%)
Average number of large basis fcns per batch ...   157.52 (58.25%)
Maximum spatial batch extension              ...  18.00, 20.18, 21.75 au
Average spatial batch extension              ...   4.18,  4.06,  4.43 au

Overlap Fitting                  UseSFitting ... on
Constructing numerical overlap ... done (      1.0 sec)
Inverting numerical overlap    ... done (      0.1 sec)
Obtaining analytic overlap     ... done (      0.0 sec)
Final contraction and storage  ... done (      0.1 sec)


General Integration Accuracy     IntAcc      ...  3.670
Radial Grid Type                 RadialGrid  ... Gauss-Chebyshev
Angular Grid (max. acc.)         AngularGrid ... Lebedev-50
Angular grid pruning method      GridPruning ... 3 (G Style)
Weight generation scheme         WeightScheme... Becke
Basis function cutoff            BFCut       ...    1.0000e-11
Integration weight cutoff        WCut        ...    1.0000e-14
Grids for H and He will be reduced by one unit

# of grid points (after initial pruning)     ...  87416 (   0.2 sec)
# of grid points (after weights+screening)   ...  76393 (   5.0 sec)
nearest neighbour list constructed           ...    0.0 sec
Grid point re-assignment to atoms done       ...    0.0 sec
Grid point division into batches done        ...    0.0 sec
Reduced shell lists constructed in    1.7 sec

Total number of grid points                  ...    76393
Total number of batches                      ...     1262
Average number of points per batch           ...       60
Average number of grid points per atom       ...      523
Average number of shells per batch           ...   130.61 (18.61%)
Average number of basis functions per batch  ...   262.11 (17.36%)
Average number of large shells per batch     ...    73.96 (56.62%)
Average number of large basis fcns per batch ...   152.51 (58.18%)
Maximum spatial batch extension              ...  19.59, 22.34, 21.43 au
Average spatial batch extension              ...   3.86,  3.76,  4.12 au

Overlap Fitting                  UseSFitting ... on
Constructing numerical overlap ... done (      1.1 sec)
Inverting numerical overlap    ... done (      0.1 sec)
Obtaining analytic overlap     ... done (      0.0 sec)
Final contraction and storage  ... done (      0.1 sec)


General Integration Accuracy     IntAcc      ...  4.010
Radial Grid Type                 RadialGrid  ... Gauss-Chebyshev
Angular Grid (max. acc.)         AngularGrid ... Lebedev-110
Angular grid pruning method      GridPruning ... 3 (G Style)
Weight generation scheme         WeightScheme... Becke
Basis function cutoff            BFCut       ...    1.0000e-11
Integration weight cutoff        WCut        ...    1.0000e-14
Grids for H and He will be reduced by one unit

# of grid points (after initial pruning)     ... 165528 (   0.3 sec)
# of grid points (after weights+screening)   ... 143351 (   9.5 sec)
nearest neighbour list constructed           ...    0.0 sec
Grid point re-assignment to atoms done       ...    0.0 sec
Grid point division into batches done        ...    0.1 sec
Reduced shell lists constructed in    3.1 sec

Total number of grid points                  ...   143351
Total number of batches                      ...     2315
Average number of points per batch           ...       61
Average number of grid points per atom       ...      982
Average number of shells per batch           ...   124.91 (17.79%)
Average number of basis functions per batch  ...   250.47 (16.59%)
Average number of large shells per batch     ...    71.26 (57.05%)
Average number of large basis fcns per batch ...   146.40 (58.45%)
Maximum spatial batch extension              ...  20.70, 20.22, 22.99 au
Average spatial batch extension              ...   3.26,  3.19,  3.43 au

Overlap Fitting                  UseSFitting ... on
Constructing numerical overlap ... done (      2.0 sec)
Inverting numerical overlap    ... done (      0.1 sec)
Obtaining analytic overlap     ... done (      0.0 sec)
Final contraction and storage  ... done (      0.1 sec)

Time for X-Grid setup             =   29.964 sec
--------------
SCF ITERATIONS
--------------
ITER       Energy         Delta-E        Max-DP      RMS-DP      [F,P]     Damp
               ***  Starting incremental Fock matrix formation  ***
  0  -5607.5508560921   0.000000000000 0.17068149  0.00082000  0.2407407 0.7000
  1  -5608.2438813171  -0.693025224920 0.10714516  0.00058201  0.1035876 0.7000
                               ***Turning on DIIS***
  2  -5608.5663923552  -0.322511038146 0.19370457  0.00108004  0.0431606 0.0000
  3  -5609.0805241289  -0.514131773669 0.05936599  0.00039263  0.0517944 0.0000
  4  -5609.1730410988  -0.092516969968 0.01256268  0.00010987  0.0138282 0.0000
  5  -5609.1773486303  -0.004307531428 0.00937589  0.00004498  0.0103437 0.0000
                      *** Initiating the SOSCF procedure ***
                           *** Shutting down DIIS ***
                      *** Re-Reading the Fockian *** 
                      *** Removing any level shift *** 
ITER      Energy       Delta-E        Grad      Rot      Max-DP    RMS-DP
  6  -5609.17837195  -0.0010233245  0.002408  0.002408  0.002644  0.000021
               *** Restarting incremental Fock matrix formation ***
  7  -5609.17852148  -0.0001495220  0.001449  0.008270  0.002022  0.000022
  8  -5609.17864266  -0.0001211848  0.000683  0.009280  0.001798  0.000021
  9  -5609.17866004  -0.0000173801  0.000521  0.003435  0.000978  0.000009
 10  -5609.17868179  -0.0000217529  0.000054  0.000535  0.000382  0.000003
 11  -5609.17868175   0.0000000428  0.000085  0.000472  0.000207  0.000002
 12  -5609.17868287  -0.0000011224  0.000010  0.000064  0.000083  0.000001
 13  -5609.17868276   0.0000001126  0.000010  0.000035  0.000045  0.000000
 14  -5609.17868289  -0.0000001279  0.000004  0.000025  0.000035  0.000000
 15  -5609.17868289   0.0000000037  0.000004  0.000005  0.000022  0.000000
                  ***Gradient check signals convergence***
[...]
 113      -8.244      23.7
 114      -8.244      23.6
 115      -8.149      32.2
 116      -8.031      24.9
 117      -7.961      29.8
 118      -7.919      14.4
 119      -7.880       8.6
 120      -7.464      20.4
 121      -7.460       1.8
 122      -7.396       1.5
 123      -6.652      22.2

 124      -2.356      26.7
 125      -1.871      19.5
 126      -0.580      30.0
 127       0.094      17.6
 128       0.111      28.0
 129       0.519      12.7
 130       0.578      22.0
 131       0.617      13.7
 132       0.790      22.0
 133       0.870      15.3
 134       0.910      15.8

           eV        nm       excitation i->a                     eV 
   0      2.68     462.7   123 -> 124      gap,J,K:    4.296     2.054     0.219
   1      3.33     372.0   123 -> 125      gap,J,K:    4.782     1.947     0.249
   2      3.68     336.8   122 -> 124      gap,J,K:    5.040     1.361     0.001
   3      3.71     334.1   120 -> 124      gap,J,K:    5.108     1.864     0.233
   4      3.74     331.3   121 -> 124      gap,J,K:    5.104     1.404     0.021
   5      4.00     309.7   117 -> 124      gap,J,K:    5.604     1.731     0.065
   6      4.02     308.4   118 -> 124      gap,J,K:    5.563     1.691     0.074
   7      4.03     307.7   116 -> 124      gap,J,K:    5.675     1.731     0.043
   8      4.10     302.2   122 -> 125      gap,J,K:    5.526     1.426     0.001
   9      4.13     300.5   119 -> 124      gap,J,K:    5.523     1.628     0.115
  10      4.14     299.8   121 -> 125      gap,J,K:    5.589     1.493     0.020
  11      4.18     296.9   120 -> 125      gap,J,K:    5.593     1.847     0.215
  12      4.19     296.1   115 -> 124      gap,J,K:    5.793     1.819     0.106
  13      4.24     292.3   114 -> 124      gap,J,K:    5.887     1.901     0.128
  14      4.38     283.2   112 -> 124      gap,J,K:    6.051     1.800     0.063
  15      4.39     282.5   113 -> 124      gap,J,K:    5.887     1.836     0.169
  16      4.47     277.6   111 -> 124      gap,J,K:    6.195     1.767     0.020
  17      4.49     276.0   123 -> 126      gap,J,K:    6.072     2.082     0.252
  18      4.56     271.9   117 -> 125      gap,J,K:    6.090     1.645     0.058
  19      4.56     271.8   110 -> 124      gap,J,K:    6.271     1.745     0.018
  20      4.56     271.7   118 -> 125      gap,J,K:    6.049     1.631     0.073
  21      4.61     269.1   119 -> 125      gap,J,K:    6.009     1.649     0.124
  22      4.62     268.5   116 -> 125      gap,J,K:    6.160     1.627     0.043
  23      4.63     267.7   109 -> 124      gap,J,K:    6.375     1.748     0.002
  24      4.73     262.2   115 -> 125      gap,J,K:    6.279     1.732     0.091

average / max PT2 energy lowering (eV):       0.038       0.076

CSF included by PT:                   194 
total number of CSF included:         224 
 
sTD-DFT procedure...
setting up A+B and A-B matrices...  done
estimated time (min):    0.000
calculating (A-B)^0.5 ... done
calculating (A+B)*(A-B)^0.5 ... done
calculating (A-B)^0.5 *(A+B)*(A-B)^0.5 ... done
diagonalizing ...using LAPACKE_ssyevr ...done

   36 roots found, lowest/highest eigenvalue :     2.434     4.972

excitation energies, transition moments and amplitudes

molecular weight: 1215.650
state   eV        nm        fL         fV        Rl        RV
   0   2.434     509.4   2.937332   3.198059  -1.543254   0.972763     0.92 ( 123-> 124)    0.06 ( 120-> 125)    0.01 ( 121-> 125)
   1   2.994     414.1   0.079775   0.079754  -17.304937  -14.472924     0.81 ( 123-> 125)    0.15 ( 120-> 124)    0.02 ( 120-> 126)
   2   3.013     411.6   0.001184   0.001142   4.408421   4.472554     0.54 ( 122-> 124)    0.36 ( 122-> 125)    0.05 ( 122-> 126)
   3   3.059     405.3   0.000161   0.000117   0.666423   0.237623     0.48 ( 121-> 124)    0.33 ( 121-> 125)    0.05 ( 121-> 126)
   4   3.518     352.4   0.033973   0.029785   8.039600   7.819529     0.68 ( 120-> 124)    0.14 ( 123-> 125)    0.07 ( 121-> 124)
   5   3.586     345.8   0.057921   0.046512   0.600573   2.255600     0.37 ( 119-> 124)    0.28 ( 118-> 124)    0.14 ( 119-> 125)
   6   3.669     337.9   0.123603   0.107235  23.730708  23.010255     0.45 ( 117-> 124)    0.16 ( 118-> 124)    0.07 ( 119-> 124)
   7   3.713     333.9   0.159330   0.126547  15.315386  13.217331     0.33 ( 116-> 124)    0.22 ( 117-> 124)    0.13 ( 118-> 124)
   8   3.787     327.4   0.097047   0.085508  18.332907  13.761680     0.37 ( 116-> 124)    0.15 ( 115-> 124)    0.10 ( 113-> 124)
   9   3.871     320.3   0.152093   0.119759  26.315363  21.027402     0.37 ( 114-> 124)    0.20 ( 120-> 125)    0.09 ( 115-> 124)
  10   3.924     315.9   0.010753   0.006528  -32.946724  -28.554267     0.29 ( 115-> 124)    0.27 ( 114-> 124)    0.06 ( 116-> 125)
  11   4.011     309.1   0.030168   0.022719   3.294044   2.158212     0.37 ( 113-> 124)    0.11 ( 115-> 125)    0.10 ( 120-> 125)
  12   4.056     305.7   0.016169   0.017242  -4.773721  -3.539737     0.19 ( 123-> 126)    0.17 ( 120-> 125)    0.09 ( 113-> 124)
  13   4.111     301.6   0.001738   0.000728  -8.473239  -8.548918     0.69 ( 112-> 124)    0.12 ( 114-> 125)    0.03 ( 113-> 124)
  14   4.182     296.4   0.001493   0.001873  -16.265415  -14.799500     0.19 ( 104-> 124)    0.14 ( 102-> 124)    0.14 ( 104-> 125)
  15   4.267     290.6   0.014397   0.015207   4.188868   4.584517     0.66 ( 111-> 124)    0.08 ( 111-> 125)    0.06 ( 123-> 126)
  16   4.287     289.2   0.007733   0.004745  -2.846633  -1.543195     0.30 ( 106-> 124)    0.23 ( 103-> 124)    0.17 ( 106-> 125)
  17   4.347     285.2   0.076309   0.077718  14.694713  11.153388     0.46 ( 123-> 126)    0.15 ( 120-> 125)    0.11 ( 110-> 124)
  18   4.375     283.4   0.002449   0.002517   0.927567  -0.804785     0.47 ( 110-> 124)    0.16 ( 123-> 127)    0.07 ( 123-> 128)
  19   4.415     280.8   0.065756   0.059841  -8.862932  -9.683956     0.24 ( 110-> 124)    0.17 ( 123-> 127)    0.10 ( 123-> 126)
  20   4.443     279.1   0.024000   0.022429  16.342947  14.411420     0.24 ( 118-> 125)    0.20 ( 117-> 125)    0.09 ( 121-> 124)
  21   4.460     278.0   0.000919   0.000769  -3.292616  -3.004519     0.20 ( 121-> 124)    0.16 ( 122-> 124)    0.14 ( 122-> 125)
  22   4.461     277.9   0.000833   0.000796  -3.881575  -4.466757     0.28 ( 122-> 124)    0.24 ( 122-> 125)    0.11 ( 121-> 124)
  23   4.492     276.0   0.001047   0.000846  -2.607806  -2.313785     0.67 ( 109-> 124)    0.09 ( 109-> 125)    0.06 ( 118-> 125)
  24   4.544     272.9   0.026086   0.022745  -6.697703  -6.704412     0.30 ( 116-> 125)    0.22 ( 117-> 125)    0.09 ( 108-> 124)
  25   4.584     270.4   0.005314   0.004514  -8.354083  -7.254599     0.52 ( 108-> 124)    0.10 ( 115-> 125)    0.09 ( 119-> 125)
  26   4.600     269.6   0.002043   0.001753   7.423604   6.342236     0.28 ( 116-> 125)    0.24 ( 108-> 124)    0.10 ( 115-> 125)
  27   4.649     266.7   0.005796   0.004043  22.556666  16.867054     0.39 ( 100-> 124)    0.26 ( 100-> 125)    0.06 ( 102-> 124)
  28   4.666     265.7   0.010798   0.008558  -0.877989  -0.855155     0.22 ( 113-> 125)    0.21 ( 115-> 125)    0.09 ( 114-> 124)
  29   4.708     263.3   0.018444   0.011174   4.020059   2.948247     0.28 ( 103-> 124)    0.20 ( 106-> 124)    0.18 ( 103-> 125)
  30   4.752     260.9   0.007232   0.004934  -3.556188   0.841045     0.28 ( 102-> 124)    0.19 ( 102-> 125)    0.10 ( 100-> 124)
  31   4.768     260.0   0.005423   0.004778   1.190031   1.534006     0.61 ( 114-> 125)    0.11 ( 112-> 124)    0.04 ( 123-> 127)
  32   4.845     255.9   0.007800   0.005896  -25.886026  -22.180142     0.40 ( 107-> 124)    0.05 ( 106-> 124)    0.05 ( 119-> 124)
  33   4.889     253.6   0.061898   0.048937  11.719924   8.840662     0.49 ( 112-> 125)    0.13 ( 123-> 127)    0.09 ( 105-> 124)
  34   4.971     249.4   0.022850   0.018588  -8.434622  -7.129417     0.21 ( 123-> 128)    0.13 ( 121-> 126)    0.10 ( 123-> 127)
  35   4.972     249.4   0.014663   0.011035  -19.765002  -17.754966     0.20 ( 121-> 125)    0.11 ( 120-> 126)    0.11 ( 121-> 128)

-----------------------------------------------------------------------------
         ABSORPTION SPECTRUM VIA TRANSITION ELECTRIC DIPOLE MOMENTS
-----------------------------------------------------------------------------
State   Energy  Wavelength   fosc         T2         TX        TY        TZ  
        (cm-1)    (nm)                  (au**2)     (au)      (au)      (au) 
-----------------------------------------------------------------------------
   0   19632.3    509.4   2.937332478  49.25591   4.64567  -5.25347   0.27343
   1   24150.7    414.1   0.079774826   1.08746  -0.74037  -0.52877  -0.50961
   2   24297.7    411.6   0.001183792   0.01604   0.06976   0.09322   0.04983
   3   24671.2    405.3   0.000160614   0.00214  -0.04506  -0.00070   0.01058
   4   28377.5    352.4   0.033973202   0.39413   0.54327   0.13171   0.28572
   5   28921.5    345.8   0.057921181   0.65931  -0.69394   0.39495  -0.14759
   6   29594.9    337.9   0.123603035   1.37495  -0.56826   1.02562  -0.01160
   7   29949.2    333.9   0.159330477   1.75142   1.21365  -0.06763   0.52335
   8   30548.1    327.4   0.097046870   1.04586  -0.68406   0.74010  -0.17369
   9   31223.0    320.3   0.152093198   1.60366   0.52238   1.06953   0.43231
  10   31650.8    315.9   0.010753054   0.11185   0.32264   0.08774   0.00739
  11   32351.1    309.1   0.030168260   0.30700  -0.14464  -0.49556  -0.20124
  12   32710.7    305.7   0.016168610   0.16273   0.34908  -0.07369   0.18825
  13   33159.8    301.6   0.001737935   0.01725  -0.09794  -0.08747  -0.00317
  14   33733.7    296.4   0.001492504   0.01457   0.00634   0.00135   0.12051
  15   34412.9    290.6   0.014396553   0.13773  -0.35149   0.11658  -0.02419
  16   34579.4    289.2   0.007732852   0.07362  -0.20160  -0.15304  -0.09776
  17   35064.7    285.2   0.076308536   0.71644  -0.64018   0.54798   0.07951
  18   35288.0    283.4   0.002448810   0.02285   0.07931   0.12058  -0.04488
  19   35610.3    280.8   0.065755827   0.60790   0.17183  -0.76018   0.02244
  20   35832.3    279.1   0.024000041   0.22050   0.11666  -0.44814  -0.07784
  21   35975.7    278.0   0.000919230   0.00841  -0.03565  -0.07971  -0.02805
  22   35983.3    277.9   0.000833163   0.00762   0.00155   0.08648   0.01191
  23   36228.0    276.0   0.001047288   0.00952  -0.06661  -0.03287   0.06325
  24   36649.5    272.9   0.026086360   0.23433   0.03890   0.43941   0.19932
  25   36976.1    270.4   0.005314250   0.04731  -0.01950   0.18241   0.11689
  26   37098.8    269.6   0.002043337   0.01813  -0.11641  -0.06410   0.02175
  27   37496.0    266.7   0.005795515   0.05088  -0.20529   0.02980   0.08860
  28   37632.1    265.7   0.010798089   0.09446  -0.01950   0.30166   0.05553
  29   37973.1    263.3   0.018444216   0.15990  -0.30415  -0.18546  -0.18166
  30   38330.2    260.9   0.007232416   0.06212  -0.14078  -0.16600  -0.12143
  31   38456.2    260.0   0.005423360   0.04643  -0.16298   0.13429  -0.04280
  32   39074.9    255.9   0.007800194   0.06572   0.20504  -0.05254   0.14463
  33   39430.2    253.6   0.061898279   0.51680   0.14095   0.67877   0.19030
  34   40093.0    249.4   0.022849623   0.18762  -0.36801  -0.12145  -0.19349
  35   40103.6    249.4   0.014663043   0.12037   0.25557   0.17102   0.16064

-----------------------------------------------------------------------------
         ABSORPTION SPECTRUM VIA TRANSITION VELOCITY DIPOLE MOMENTS
-----------------------------------------------------------------------------
State   Energy  Wavelength   fosc         P2         PX        PY        PZ  
        (cm-1)    (nm)                  (au**2)     (au)      (au)      (au) 
-----------------------------------------------------------------------------
   0   19632.3    509.4   3.198058549   0.42911   0.43317  -0.49072   0.02566
   1   24150.7    414.1   0.079753909   0.01316  -0.08100  -0.05923  -0.05563
   2   24297.7    411.6   0.001142449   0.00019   0.00785   0.01016   0.00498
   3   24671.2    405.3   0.000116873   0.00002  -0.00394  -0.00096   0.00180
   4   28377.5    352.4   0.029785122   0.00578   0.06569   0.01638   0.03455
   5   28921.5    345.8   0.046511539   0.00919  -0.08054   0.04962  -0.01565
   6   29594.9    337.9   0.107234813   0.02169  -0.06768   0.13080   0.00078
   7   29949.2    333.9   0.126546908   0.02590   0.14740  -0.00990   0.06386
   8   30548.1    327.4   0.085508288   0.01785  -0.08958   0.09692  -0.02084
   9   31223.0    320.3   0.119759412   0.02556   0.05917   0.13879   0.05285
  10   31650.8    315.9   0.006528441   0.00141   0.03357   0.01689  -0.00033
  11   32351.1    309.1   0.022719364   0.00502  -0.01142  -0.06603  -0.02309
  12   32710.7    305.7   0.017241635   0.00385   0.05185  -0.02578   0.02240
  13   33159.8    301.6   0.000728348   0.00017  -0.00923  -0.00837   0.00314
  14   33733.7    296.4   0.001872895   0.00043   0.00253   0.00261   0.02046
  15   34412.9    290.6   0.015206876   0.00358  -0.05440   0.02461  -0.00347
  16   34579.4    289.2   0.004744783   0.00112  -0.02597  -0.01627  -0.01350
  17   35064.7    285.2   0.077717943   0.01863  -0.10381   0.08811   0.00925
  18   35288.0    283.4   0.002517092   0.00061   0.00995   0.02200  -0.00491
  19   35610.3    280.8   0.059840937   0.01456   0.03546  -0.11518   0.00626
  20   35832.3    279.1   0.022429401   0.00549   0.02230  -0.06994  -0.01018
  21   35975.7    278.0   0.000769171   0.00019  -0.00310  -0.01284  -0.00382
  22   35983.3    277.9   0.000796059   0.00020  -0.00179   0.01379   0.00157
  23   36228.0    276.0   0.000845587   0.00021  -0.00970  -0.00498   0.00951
  24   36649.5    272.9   0.022744573   0.00570   0.00380   0.06910   0.03014
  25   36976.1    270.4   0.004513874   0.00114  -0.00107   0.02779   0.01916
  26   37098.8    269.6   0.001753179   0.00044  -0.01835  -0.01003   0.00268
  27   37496.0    266.7   0.004042614   0.00104  -0.02997   0.00286   0.01140
  28   37632.1    265.7   0.008558371   0.00220  -0.00449   0.04600   0.00804
  29   37973.1    263.3   0.011173775   0.00290  -0.04387  -0.02015  -0.02385
  30   38330.2    260.9   0.004933852   0.00129  -0.01974  -0.02543  -0.01600
  31   38456.2    260.0   0.004777546   0.00126  -0.02784   0.02071  -0.00721
  32   39074.9    255.9   0.005895835   0.00157   0.03164  -0.00257   0.02380
  33   39430.2    253.6   0.048937045   0.01319   0.01981   0.10905   0.03006
  34   40093.0    249.4   0.018588152   0.00509  -0.06134  -0.01925  -0.03100
  35   40103.6    249.4   0.011035323   0.00302   0.04020   0.02708   0.02599

-------------------------------------------------------------------
                             CD SPECTRUM
-------------------------------------------------------------------
State   Energy Wavelength       R         MX        MY        MZ   
        (cm-1)   (nm)       (1e40*cgs)   (au)      (au)      (au)  
-------------------------------------------------------------------
   0   19632.3    509.4     -1.54325   1.26516   1.12005   0.04837
   1   24150.7    414.1    -17.30494   1.34482   0.68285  -2.80634
   2   24297.7    411.6      4.40842  -0.39585   0.13949  -0.08209
   3   24671.2    405.3      0.66642   0.00537  -0.41258  -0.27165
   4   28377.5    352.4      8.03960  -0.79234  -0.38005   1.56243
   5   28921.5    345.8      0.60057  -0.03053  -0.15556  -0.25547
   6   29594.9    337.9     23.73071  -0.44478  -0.33557   0.79818
   7   29949.2    333.9     15.31539  -0.43830   0.01484   0.89419
   8   30548.1    327.4     18.33291  -0.55917  -0.36770   1.08323
   9   31223.0    320.3     26.31536  -1.34546  -0.66570   3.01449
  10   31650.8    315.9    -32.94672   0.35518   0.32045  -0.39821
  11   32351.1    309.1      3.29404   0.87446   0.46579  -1.70612
  12   32710.7    305.7     -4.77372  -0.17314  -0.09500   0.39144
  13   33159.8    301.6     -8.47324  -0.10548  -0.31443   0.59663
  14   33733.7    296.4    -16.26542  -0.78727  -0.38516   0.61833
  15   34412.9    290.6      4.18887   0.11571  -0.00469  -0.96948
  16   34579.4    289.2     -2.84663   0.02681  -0.14108   0.04205
  17   35064.7    285.2     14.69471  -0.17106  -0.21860  -0.65472
  18   35288.0    283.4      0.92757   0.07960   0.09946   0.49554
  19   35610.3    280.8     -8.86293   0.19827  -0.01392  -0.31433
  20   35832.3    279.1     16.34295   0.44693   0.35832  -0.50235
  21   35975.7    278.0     -3.29262  -0.02884  -0.11969  -0.12120
  22   35983.3    277.9     -3.88157  -0.24545   0.18712   0.05596
  23   36228.0    276.0     -2.60781  -0.15349  -0.12055  -0.04937
  24   36649.5    272.9     -6.69770  -0.62436  -0.31682   0.96285
  25   36976.1    270.4     -8.35408  -0.57035  -0.27955   0.64432
  26   37098.8    269.6      7.42360   0.15103   0.02912  -0.55372
  27   37496.0    266.7     22.55667  -0.02355   0.00098  -1.13490
  28   37632.1    265.7     -0.87799  -0.12464  -0.05383   0.31576
  29   37973.1    263.3      4.02006  -0.35060  -0.31085   0.99826
  30   38330.2    260.9     -3.55619   0.65108   0.51389  -1.58161
  31   38456.2    260.0      1.19003   0.23070   0.10480  -0.43172
  32   39074.9    255.9    -25.88603  -0.83795  -0.50705   1.76308
  33   39430.2    253.6     11.71992  -0.64646  -0.25646   1.13229
  34   40093.0    249.4     -8.43462   0.10823   0.23720  -0.53966
  35   40103.6    249.4    -19.76500  -0.25045   0.15579   0.75453

sTD-DFT done

Total run time:        7.616 sec

           *** ORCA-CIS/TD-DFT FINISHED WITHOUT ERROR ***

-------------------------   --------------------
FINAL SINGLE POINT ENERGY     -5609.172592637910
-------------------------   --------------------


                            ***************************************
                            *     ORCA property calculations      *
                            ***************************************

                                    ---------------------
                                    Active property flags
                                    ---------------------
   (+) Dipole Moment


------------------------------------------------------------------------------
                       ORCA ELECTRIC PROPERTIES CALCULATION
------------------------------------------------------------------------------

Dipole Moment Calculation                       ... on
Quadrupole Moment Calculation                   ... off
Polarizability Calculation                      ... off
GBWName                                         ... IDTT-TBTA.gbw
Electron density file                           ... IDTT-TBTA.scfp
The origin for moment calculation is the CENTER OF MASS  = (-7.827305, 13.504223 -1.802906)

-------------
DIPOLE MOMENT
-------------
                                X             Y             Z
Electronic contribution:    -16.98919      -8.24050       6.60808
Nuclear contribution   :     16.18577       8.04643      -7.06880
                        -----------------------------------------
Total Dipole Moment    :     -0.80342      -0.19408      -0.46072
                        -----------------------------------------
Magnitude (a.u.)       :      0.94626
Magnitude (Debye)      :      2.40521



--------------------
Rotational spectrum 
--------------------
 
Rotational constants in cm-1:     0.001227     0.000236     0.000226 
Rotational constants in MHz :    36.788214     7.088680     6.776668 

 Dipole components along the rotational axes: 
x,y,z [a.u.] :     0.377173    -0.851143    -0.169450 
x,y,z [Debye]:     0.958697    -2.163432    -0.430708 

 

Timings for individual modules:

Sum of individual times         ...     6090.315 sec (= 101.505 min)
GTO integral calculation        ...        5.048 sec (=   0.084 min)   0.1 %
SCF iterations                  ...     6077.576 sec (= 101.293 min)  99.8 %
CIS module                      ...        7.692 sec (=   0.128 min)   0.1 %
                             ****ORCA TERMINATED NORMALLY****
TOTAL RUN TIME: 0 days 1 hours 41 minutes 31 seconds 32 msec
