
                                 *****************
                                 * O   R   C   A *
                                 *****************

           --- An Ab Initio, DFT and Semiempirical electronic structure package ---

                  #######################################################
                  #                        -***-                        #
                  #          Department of theory and spectroscopy      #
                  #               Directorship: Frank Neese             #
                  #        Max Planck Institute fuer Kohlenforschung    #
                  #                Kaiser Wilhelm Platz 1               #
                  #                 D-45470 Muelheim/Ruhr               #
                  #                      Germany                        #
                  #                                                     #
                  #                  All rights reserved                #
                  #                        -***-                        #
                  #######################################################


                         Program Version 4.2.0 -  RELEASE  -


 With contributions from (in alphabetic order):
   Daniel Aravena         : Magnetic Suceptibility
   Michael Atanasov       : Ab Initio Ligand Field Theory (pilot matlab implementation)
   Alexander A. Auer      : GIAO ZORA, VPT2
   Ute Becker             : Parallelization
   Giovanni Bistoni       : ED, misc. LED, open-shell LED, HFLED
   Martin Brehm           : Molecular dynamics
   Dmytro Bykov           : SCF Hessian
   Vijay G. Chilkuri      : MRCI spin determinant printing, contributions to CSF-ICE
   Dipayan Datta          : RHF DLPNO-CCSD density
   Achintya Kumar Dutta   : EOM-CC, STEOM-CC
   Dmitry Ganyushin       : Spin-Orbit,Spin-Spin,Magnetic field MRCI
   Miquel Garcia          : C-PCM Hessian, Gaussian charge scheme
   Yang Guo               : DLPNO-NEVPT2, CIM, IAO-localization
   Andreas Hansen         : Spin unrestricted coupled pair/coupled cluster methods
   Benjamin Helmich-Paris : CASSCF linear response (MC-RPA)
   Lee Huntington         : MR-EOM, pCC
   Robert Izsak           : Overlap fitted RIJCOSX, COSX-SCS-MP3, EOM
   Christian Kollmar      : KDIIS, OOCD, Brueckner-CCSD(T), CCSD density
   Simone Kossmann        : Meta GGA functionals, TD-DFT gradient, OOMP2, MP2 Hessian
   Martin Krupicka        : AUTO-CI
   Lucas Lang             : DCDCAS
   Dagmar Lenk            : GEPOL surface, SMD
   Dimitrios Liakos       : Extrapolation schemes; Compound Job, initial MDCI parallelization
   Dimitrios Manganas     : Further ROCIS development; embedding schemes
   Dimitrios Pantazis     : SARC Basis sets
   Taras Petrenko         : DFT Hessian,TD-DFT gradient, ASA, ECA, R-Raman, ABS, FL, XAS/XES, NRVS
   Peter Pinski           : DLPNO-MP2, DLPNO-MP2 Gradient
   Christoph Reimann      : Effective Core Potentials
   Marius Retegan         : Local ZFS, SOC
   Christoph Riplinger    : Optimizer, TS searches, QM/MM, DLPNO-CCSD(T), (RO)-DLPNO pert. Triples
   Tobias Risthaus        : Range-separated hybrids, TD-DFT gradient, RPA, STAB
   Michael Roemelt        : Original ROCIS implementation
   Masaaki Saitow         : Open-shell DLPNO-CCSD energy and density
   Barbara Sandhoefer     : DKH picture change effects
   Avijit Sen             : IP-ROCIS
   Kantharuban Sivalingam : CASSCF convergence, NEVPT2, FIC-MRCI
   Bernardo de Souza      : ESD, SOC TD-DFT
   Georgi Stoychev        : AutoAux, RI-MP2 NMR
   Willem Van den Heuvel  : Paramagnetic NMR
   Boris Wezisla          : Elementary symmetry handling
   Frank Wennmohs         : Technical directorship


 We gratefully acknowledge several colleagues who have allowed us to
 interface, adapt or use parts of their codes:
   Stefan Grimme, W. Hujo, H. Kruse,             : VdW corrections, initial TS optimization,
                  C. Bannwarth                     DFT functionals, gCP, sTDA/sTD-DF
   Ed Valeev, F. Pavosevic, A. Kumar             : LibInt (2-el integral package), F12 methods
   Garnet Chan, S. Sharma, J. Yang, R. Olivares  : DMRG
   Ulf Ekstrom                                   : XCFun DFT Library
   Mihaly Kallay                                 : mrcc  (arbitrary order and MRCC methods)
   Andreas Klamt, Michael Diedenhofen            : otool_cosmo (COSMO solvation model)
   Jiri Pittner, Ondrej Demel                    : Mk-CCSD
   Frank Weinhold                                : gennbo (NPA and NBO analysis)
   Christopher J. Cramer and Donald G. Truhlar   : smd solvation model
   Lars Goerigk                                  : TD-DFT with DH, B97 family of functionals
   V. Asgeirsson, H. Jonsson                     : NEB implementation
   FAccTs GmbH                                   : IRC, NEB, NEB-TS, Multilevel, MM, QM/MM, CI optimization
   S Lehtola, MJT Oliveira, MAL Marques          : LibXC Library


 Your calculation uses the libint2 library for the computation of 2-el integrals
 For citations please refer to: http://libint.valeyev.net

 Your ORCA version has been built with support for libXC version: 4.2.3
 For citations please refer to: https://tddft.org/programs/libxc/

 This ORCA versions uses:
   CBLAS   interface :  Fast vector & matrix operations
   LAPACKE interface :  Fast linear algebra routines
   SCALAPACK package :  Parallel linear algebra routines


XCFun DFT library Copyright 2009-2010 Ulf Ekstrom and contributors.
See http://admol.org/xcfun for more information. This is free soft-
ware; see the source code for copying conditions. There is ABSOLUTELY
NO WARRANTY; not even for MERCHANTABILITY or FITNESS FOR A PARTICULAR
PURPOSE. For details see the documentation. Scientific users of this 
library should cite U. Ekstrom, L. Visscher, R. Bast, A. J. Thorvald-
sen and K. Ruud; J.Chem.Theor.Comp. 2010, DOI: 10.1021/ct100117s
XCFun Version 0.99 
----- Orbital basis set information -----
Your calculation utilizes the basis: def2-SVP
   F. Weigend and R. Ahlrichs, Phys. Chem. Chem. Phys. 7, 3297 (2005).

----- AuxJ basis set information -----
Your calculation utilizes the auxiliary basis: def2/J
   F. Weigend, Phys. Chem. Chem. Phys. 8, 1057 (2006).

================================================================================
                                        WARNINGS
                       Please study these warnings very carefully!
================================================================================

INFO   : Checking CIS options ...

WARNING: CIS/ROCIS methods need fully converged wavefunctions
  ===> : Setting SCFConvForced true
         You can overwrite this default with %scf ConvForced false 


INFO   : the flag for use of LIBINT has been found!

================================================================================
                                       INPUT FILE
================================================================================
NAME = IT-4F.inp
|  1> # ORCA input file
|  2> # IT-4F.out
|  3> ! CAM-B3LYP def2-SVP def2/J RIJCOSX Grid4 TightSCF
|  4> %maxcore 5000
|  5> %tddft
|  6>     Mode sTDDFT
|  7>     Ethresh 5.0
|  8>     maxcore 5000
|  9> end
| 10> * xyz 0 1
| 11>    C        4.35038         0.98720        -3.06325
| 12>    O        5.25404         1.62410        -2.55495
| 13>    C        3.36203         1.50500        -4.03275
| 14>    C        3.26602         2.77660        -4.56156
| 15>    C        2.24646         3.01948        -5.46775
| 16>    F        2.11540         4.23709        -6.00809
| 17>    C        1.35611         2.00609        -5.82317
| 18>    F        0.38224         2.26758        -6.70196
| 19>    C        1.45304         0.72902        -5.28992
| 20>    C        2.47044         0.47754        -4.38277
| 21>    C        2.84316        -0.73805        -3.65596
| 22>    C        2.18390        -1.93663        -3.74246
| 23>    C        2.52066        -3.11965        -3.05084
| 24>    N        2.72039        -4.12374        -2.52950
| 25>    C        1.04950        -2.15883        -4.55260
| 26>    N        0.12734        -2.40918        -5.18824
| 27>    C        4.00975        -0.42301        -2.85561
| 28>    C        4.69058        -1.30535        -2.05137
| 29>    C        5.83418        -1.12649        -1.26434
| 30>    C        6.39690        -2.18491        -0.54140
| 31>    C        7.53322        -1.80760         0.14164
| 32>    C        7.86493        -0.44405        -0.03184
| 33>    S        6.74944         0.36532        -1.06010
| 34>    C        9.03536        -0.10621         0.64215
| 35>    C        9.86364         1.12875         0.87265
| 36>    C       10.41749         1.75192        -0.39327
| 37>    C       10.84148         3.07574        -0.38704
| 38>    C       11.37876         3.64126        -1.52472
| 39>    C       11.51290         2.91037        -2.70256
| 40>    C       12.09551         3.59678        -3.91013
| 41>    C       12.28216         2.71792        -5.13986
| 42>    C       11.09701         1.58761        -2.69785
| 43>    C       10.56177         1.01383        -1.55662
| 44>    C        8.98810         2.10913         1.63817
| 45>    C        8.01791         2.82231         0.94379
| 46>    C        7.16843         3.68099         1.61291
| 47>    C        7.26072         3.84745         2.98945
| 48>    C        6.36790         4.81767         3.70734
| 49>    C        7.00528         6.20845         3.73584
| 50>    C        8.22856         3.12854         3.67681
| 51>    C        9.07983         2.26265         3.01328
| 52>    C       11.00418         0.55716         1.69536
| 53>    C       10.79674        -0.81819         1.96235
| 54>    C        9.57777        -1.18868         1.31681
| 55>    S        8.67270        -2.65518         1.15502
| 56>    C       11.70420        -1.57136         2.70340
| 57>    C       12.83102        -0.92763         3.15733
| 58>    C       13.98590        -1.50827         3.95453
| 59>    C       13.62861        -1.86373         5.38876
| 60>    C       14.54921        -2.57223         6.15189
| 61>    C       14.28501        -2.86380         7.47523
| 62>    C       13.09947        -2.45318         8.07269
| 63>    C       12.79590        -2.81307         9.49794
| 64>    C       12.12504        -4.18646         9.57029
| 65>    C       12.18666        -1.74253         7.30619
| 66>    C       12.44778        -1.44251         5.98089
| 67>    C       14.55053        -2.70016         3.20596
| 68>    C       15.56536        -2.54710         2.27256
| 69>    C       16.04250        -3.63910         1.57099
| 70>    C       15.51481        -4.90627         1.77688
| 71>    C       16.00207        -6.08319         0.98260
| 72>    C       15.16173        -6.25509        -0.28440
| 73>    C       14.48867        -5.05093         2.70201
| 74>    C       14.01061        -3.96411         3.40807
| 75>    C       14.91162        -0.32342         4.01209
| 76>    C       14.33153         0.77931         3.40502
| 77>    C       13.05698         0.43768         2.85738
| 78>    C       12.14148         1.19528         2.13126
| 79>    S       15.30364         2.20960         3.44873
| 80>    C       16.53098         1.32231         4.30494
| 81>    C       16.16650        -0.02187         4.53230
| 82>    S       17.41480        -0.87159         5.34826
| 83>    C       18.40517         0.58398         5.41776
| 84>    C       17.77760         1.66113         4.80609
| 85>    C       19.69182         0.48706         5.97681
| 86>    C       20.56379         1.46998         6.35519
| 87>    C       20.41308         2.88115         6.61762
| 88>    C       19.28595         3.51700         7.07148
| 89>    C       19.22915         4.88960         7.38808
| 90>    N       19.12399         6.00428         7.64053
| 91>    C       18.07623         2.85145         7.35348
| 92>    N       17.08279         2.34578         7.62693
| 93>    C       21.75237         3.47329         6.58772
| 94>    C       22.16500         4.79503         6.62405
| 95>    C       23.52858         5.05000         6.61302
| 96>    F       23.95026         6.31904         6.63346
| 97>    C       24.46631         4.01750         6.57684
| 98>    F       25.77221         4.31016         6.57424
| 99>    C       24.05991         2.69300         6.53900
|100>    C       22.70285         2.43869         6.53888
|101>    C       22.00574         1.13338         6.47034
|102>    O       22.50007         0.03050         6.46421
|103>    H        3.95770         3.55576        -4.28372
|104>    H        0.73954        -0.01670        -5.59923
|105>    H        4.30738        -2.31781        -2.01211
|106>    H        5.97662        -3.17457        -0.54132
|107>    H       10.73638         3.66932         0.50959
|108>    H       11.69962         4.67335        -1.50413
|109>    H       13.06270         4.02241        -3.62550
|110>    H       11.44425         4.43759        -4.16894
|111>    H       12.94434         1.88274        -4.92265
|112>    H       12.72482         3.30192        -5.94376
|113>    H       11.32803         2.33063        -5.48959
|114>    H       11.18457         0.98332        -3.58658
|115>    H       10.25276        -0.02132        -1.58149
|116>    H        7.93069         2.70666        -0.12664
|117>    H        6.41911         4.22550         1.05711
|118>    H        6.19871         4.47855         4.73128
|119>    H        5.40216         4.87515         3.20147
|120>    H        7.96408         6.17479         4.24843
|121>    H        6.35880         6.91263         4.25414
|122>    H        7.17112         6.56902         2.72314
|123>    H        8.31662         3.24111         4.74806
|124>    H        9.81874         1.70849         3.57358
|125>    H       11.52543        -2.61704         2.90012
|126>    H       15.47515        -2.90138         5.70221
|127>    H       15.01261        -3.41354         8.05446
|128>    H       12.13299        -2.06478         9.93632
|129>    H       13.72026        -2.83346        10.07833
|130>    H       11.19412        -4.18315         9.00748
|131>    H       11.90586        -4.44865        10.60256
|132>    H       12.77670        -4.94876         9.14903
|133>    H       11.25960        -1.41106         7.75176
|134>    H       11.72519        -0.87907         5.40877
|135>    H       15.98906        -1.57007         2.08963
|136>    H       16.83889        -3.50294         0.85339
|137>    H       15.93244        -6.99094         1.58527
|138>    H       17.04744        -5.93624         0.70438
|139>    H       14.11706        -6.41528        -0.02717
|140>    H       15.51281        -7.10787        -0.86046
|141>    H       15.22779        -5.36447        -0.90546
|142>    H       14.06181        -6.02831         2.87585
|143>    H       13.22141        -4.10017         4.13328
|144>    H       12.32966         2.23596         1.91771
|145>    H       18.23326         2.62696         4.68555
|146>    H       20.09559        -0.51873         6.05018
|147>    H       21.47831         5.62545         6.65032
|148>    H       24.78324         1.89381         6.51040
|149> *
|150> 
|151>                          ****END OF INPUT****
================================================================================

                       ****************************
                       * Single Point Calculation *
                       ****************************

---------------------------------
CARTESIAN COORDINATES (ANGSTROEM)
---------------------------------
  C      4.350380    0.987200   -3.063250
  O      5.254040    1.624100   -2.554950
  C      3.362030    1.505000   -4.032750
  C      3.266020    2.776600   -4.561560
  C      2.246460    3.019480   -5.467750
  F      2.115400    4.237090   -6.008090
  C      1.356110    2.006090   -5.823170
  F      0.382240    2.267580   -6.701960
  C      1.453040    0.729020   -5.289920
  C      2.470440    0.477540   -4.382770
  C      2.843160   -0.738050   -3.655960
  C      2.183900   -1.936630   -3.742460
  C      2.520660   -3.119650   -3.050840
  N      2.720390   -4.123740   -2.529500
  C      1.049500   -2.158830   -4.552600
  N      0.127340   -2.409180   -5.188240
  C      4.009750   -0.423010   -2.855610
  C      4.690580   -1.305350   -2.051370
  C      5.834180   -1.126490   -1.264340
  C      6.396900   -2.184910   -0.541400
  C      7.533220   -1.807600    0.141640
  C      7.864930   -0.444050   -0.031840
  S      6.749440    0.365320   -1.060100
  C      9.035360   -0.106210    0.642150
  C      9.863640    1.128750    0.872650
  C     10.417490    1.751920   -0.393270
  C     10.841480    3.075740   -0.387040
  C     11.378760    3.641260   -1.524720
  C     11.512900    2.910370   -2.702560
  C     12.095510    3.596780   -3.910130
  C     12.282160    2.717920   -5.139860
  C     11.097010    1.587610   -2.697850
  C     10.561770    1.013830   -1.556620
  C      8.988100    2.109130    1.638170
  C      8.017910    2.822310    0.943790
  C      7.168430    3.680990    1.612910
  C      7.260720    3.847450    2.989450
  C      6.367900    4.817670    3.707340
  C      7.005280    6.208450    3.735840
  C      8.228560    3.128540    3.676810
  C      9.079830    2.262650    3.013280
  C     11.004180    0.557160    1.695360
  C     10.796740   -0.818190    1.962350
  C      9.577770   -1.188680    1.316810
  S      8.672700   -2.655180    1.155020
  C     11.704200   -1.571360    2.703400
  C     12.831020   -0.927630    3.157330
  C     13.985900   -1.508270    3.954530
  C     13.628610   -1.863730    5.388760
  C     14.549210   -2.572230    6.151890
  C     14.285010   -2.863800    7.475230
  C     13.099470   -2.453180    8.072690
  C     12.795900   -2.813070    9.497940
  C     12.125040   -4.186460    9.570290
  C     12.186660   -1.742530    7.306190
  C     12.447780   -1.442510    5.980890
  C     14.550530   -2.700160    3.205960
  C     15.565360   -2.547100    2.272560
  C     16.042500   -3.639100    1.570990
  C     15.514810   -4.906270    1.776880
  C     16.002070   -6.083190    0.982600
  C     15.161730   -6.255090   -0.284400
  C     14.488670   -5.050930    2.702010
  C     14.010610   -3.964110    3.408070
  C     14.911620   -0.323420    4.012090
  C     14.331530    0.779310    3.405020
  C     13.056980    0.437680    2.857380
  C     12.141480    1.195280    2.131260
  S     15.303640    2.209600    3.448730
  C     16.530980    1.322310    4.304940
  C     16.166500   -0.021870    4.532300
  S     17.414800   -0.871590    5.348260
  C     18.405170    0.583980    5.417760
  C     17.777600    1.661130    4.806090
  C     19.691820    0.487060    5.976810
  C     20.563790    1.469980    6.355190
  C     20.413080    2.881150    6.617620
  C     19.285950    3.517000    7.071480
  C     19.229150    4.889600    7.388080
  N     19.123990    6.004280    7.640530
  C     18.076230    2.851450    7.353480
  N     17.082790    2.345780    7.626930
  C     21.752370    3.473290    6.587720
  C     22.165000    4.795030    6.624050
  C     23.528580    5.050000    6.613020
  F     23.950260    6.319040    6.633460
  C     24.466310    4.017500    6.576840
  F     25.772210    4.310160    6.574240
  C     24.059910    2.693000    6.539000
  C     22.702850    2.438690    6.538880
  C     22.005740    1.133380    6.470340
  O     22.500070    0.030500    6.464210
  H      3.957700    3.555760   -4.283720
  H      0.739540   -0.016700   -5.599230
  H      4.307380   -2.317810   -2.012110
  H      5.976620   -3.174570   -0.541320
  H     10.736380    3.669320    0.509590
  H     11.699620    4.673350   -1.504130
  H     13.062700    4.022410   -3.625500
  H     11.444250    4.437590   -4.168940
  H     12.944340    1.882740   -4.922650
  H     12.724820    3.301920   -5.943760
  H     11.328030    2.330630   -5.489590
  H     11.184570    0.983320   -3.586580
  H     10.252760   -0.021320   -1.581490
  H      7.930690    2.706660   -0.126640
  H      6.419110    4.225500    1.057110
  H      6.198710    4.478550    4.731280
  H      5.402160    4.875150    3.201470
  H      7.964080    6.174790    4.248430
  H      6.358800    6.912630    4.254140
  H      7.171120    6.569020    2.723140
  H      8.316620    3.241110    4.748060
  H      9.818740    1.708490    3.573580
  H     11.525430   -2.617040    2.900120
  H     15.475150   -2.901380    5.702210
  H     15.012610   -3.413540    8.054460
  H     12.132990   -2.064780    9.936320
  H     13.720260   -2.833460   10.078330
  H     11.194120   -4.183150    9.007480
  H     11.905860   -4.448650   10.602560
  H     12.776700   -4.948760    9.149030
  H     11.259600   -1.411060    7.751760
  H     11.725190   -0.879070    5.408770
  H     15.989060   -1.570070    2.089630
  H     16.838890   -3.502940    0.853390
  H     15.932440   -6.990940    1.585270
  H     17.047440   -5.936240    0.704380
  H     14.117060   -6.415280   -0.027170
  H     15.512810   -7.107870   -0.860460
  H     15.227790   -5.364470   -0.905460
  H     14.061810   -6.028310    2.875850
  H     13.221410   -4.100170    4.133280
  H     12.329660    2.235960    1.917710
  H     18.233260    2.626960    4.685550
  H     20.095590   -0.518730    6.050180
  H     21.478310    5.625450    6.650320
  H     24.783240    1.893810    6.510400

----------------------------
CARTESIAN COORDINATES (A.U.)
----------------------------
  NO LB      ZA    FRAG     MASS         X           Y           Z
   0 C     6.0000    0    12.011    8.221027    1.865538   -5.788704
   1 O     8.0000    0    15.999    9.928697    3.069104   -4.828156
   2 C     6.0000    0    12.011    6.353316    2.844038   -7.620793
   3 C     6.0000    0    12.011    6.171883    5.247014   -8.620099
   4 C     6.0000    0    12.011    4.245194    5.705990  -10.332550
   5 F     9.0000    0    18.998    3.997527    8.006940  -11.353645
   6 C     6.0000    0    12.011    2.562677    3.790961  -11.004197
   7 F     9.0000    0    18.998    0.722329    4.285105  -12.664869
   8 C     6.0000    0    12.011    2.745848    1.377648   -9.996500
   9 C     6.0000    0    12.011    4.668455    0.902420   -8.282235
  10 C     6.0000    0    12.011    5.372794   -1.394712   -6.908763
  11 C     6.0000    0    12.011    4.126973   -3.659700   -7.072224
  12 C     6.0000    0    12.011    4.763357   -5.895284   -5.765252
  13 N     7.0000    0    14.007    5.140792   -7.792739   -4.780062
  14 C     6.0000    0    12.011    1.983268   -4.079597   -8.603167
  15 N     7.0000    0    14.007    0.240638   -4.552690   -9.804353
  16 C     6.0000    0    12.011    7.577329   -0.799373   -5.396321
  17 C     6.0000    0    12.011    8.863912   -2.466754   -3.876527
  18 C     6.0000    0    12.011   11.025002   -2.128758   -2.389256
  19 C     6.0000    0    12.011   12.088389   -4.128882   -1.023098
  20 C     6.0000    0    12.011   14.235723   -3.415869    0.267661
  21 C     6.0000    0    12.011   14.862564   -0.839133   -0.060169
  22 S    16.0000    0    32.060   12.754593    0.690355   -2.003299
  23 C     6.0000    0    12.011   17.074356   -0.200708    1.213488
  24 C     6.0000    0    12.011   18.639578    2.133028    1.649070
  25 C     6.0000    0    12.011   19.686203    3.310649   -0.743173
  26 C     6.0000    0    12.011   20.487428    5.812306   -0.731400
  27 C     6.0000    0    12.011   21.502740    6.880984   -2.881303
  28 C     6.0000    0    12.011   21.756228    5.499802   -5.107098
  29 C     6.0000    0    12.011   22.857201    6.796929   -7.389075
  30 C     6.0000    0    12.011   23.209919    5.136124   -9.712928
  31 C     6.0000    0    12.011   20.970310    3.000148   -5.098198
  32 C     6.0000    0    12.011   19.958853    1.915861   -2.941585
  33 C     6.0000    0    12.011   16.985047    3.985678    3.095693
  34 C     6.0000    0    12.011   15.151654    5.333393    1.783505
  35 C     6.0000    0    12.011   13.546370    6.956063    3.047958
  36 C     6.0000    0    12.011   13.720772    7.270627    5.649242
  37 C     6.0000    0    12.011   12.033587    9.104077    7.005857
  38 C     6.0000    0    12.011   13.238061   11.732270    7.059714
  39 C     6.0000    0    12.011   15.549725    5.912084    6.948164
  40 C     6.0000    0    12.011   17.158392    4.275789    5.694274
  41 C     6.0000    0    12.011   20.794887    1.052880    3.203766
  42 C     6.0000    0    12.011   20.402882   -1.546155    3.708304
  43 C     6.0000    0    12.011   18.099362   -2.246280    2.488410
  44 S    16.0000    0    32.060   16.389028   -5.017563    2.182671
  45 C     6.0000    0    12.011   22.117733   -2.969440    5.108686
  46 C     6.0000    0    12.011   24.247114   -1.752967    5.966489
  47 C     6.0000    0    12.011   26.429521   -2.850217    7.472979
  48 C     6.0000    0    12.011   25.754340   -3.521939   10.183281
  49 C     6.0000    0    12.011   27.494022   -4.860810   11.625387
  50 C     6.0000    0    12.011   26.994757   -5.411798   14.126137
  51 C     6.0000    0    12.011   24.754411   -4.635838   15.255173
  52 C     6.0000    0    12.011   24.180747   -5.315932   17.948505
  53 C     6.0000    0    12.011   22.913005   -7.911263   18.085227
  54 C     6.0000    0    12.011   23.029450   -3.292904   13.806698
  55 C     6.0000    0    12.011   23.522895   -2.725949   11.302244
  56 C     6.0000    0    12.011   27.496517   -5.102563    6.058386
  57 C     6.0000    0    12.011   29.414268   -4.813321    4.294516
  58 C     6.0000    0    12.011   30.315932   -6.876902    2.968741
  59 C     6.0000    0    12.011   29.318742   -9.271507    3.357817
  60 C     6.0000    0    12.011   30.239530  -11.495563    1.856845
  61 C     6.0000    0    12.011   28.651517  -11.820407   -0.537438
  62 C     6.0000    0    12.011   27.379618   -9.544874    5.106059
  63 C     6.0000    0    12.011   26.476216   -7.491082    6.440319
  64 C     6.0000    0    12.011   28.178878   -0.611175    7.581751
  65 C     6.0000    0    12.011   27.082667    1.472682    6.434555
  66 C     6.0000    0    12.011   24.674116    0.827095    5.399666
  67 C     6.0000    0    12.011   22.944072    2.258752    4.027498
  68 S    16.0000    0    32.060   28.919688    4.175539    6.517155
  69 C     6.0000    0    12.011   31.239025    2.498804    8.135158
  70 C     6.0000    0    12.011   30.550258   -0.041328    8.564806
  71 S    16.0000    0    32.060   32.909203   -1.647066   10.106747
  72 C     6.0000    0    12.011   34.780731    1.103562   10.238083
  73 C     6.0000    0    12.011   33.594795    3.139081    9.082194
  74 C     6.0000    0    12.011   37.212147    0.920410   11.294534
  75 C     6.0000    0    12.011   38.859931    2.777860   12.009569
  76 C     6.0000    0    12.011   38.575131    5.444584   12.505489
  77 C     6.0000    0    12.011   36.445164    6.646167   13.363161
  78 C     6.0000    0    12.011   36.337827    9.240005   13.961448
  79 N     7.0000    0    14.007   36.139104   11.346445   14.438509
  80 C     6.0000    0    12.011   34.159124    5.388460   13.896063
  81 N     7.0000    0    14.007   32.281795    4.432882   14.412809
  82 C     6.0000    0    12.011   41.106022    6.563567   12.448987
  83 C     6.0000    0    12.011   41.885780    9.061294   12.517640
  84 C     6.0000    0    12.011   44.462573    9.543117   12.496797
  85 F     9.0000    0    18.998   45.259432   11.941255   12.535423
  86 C     6.0000    0    12.011   46.234625    7.591975   12.428426
  87 F     9.0000    0    18.998   48.702419    8.145022   12.423513
  88 C     6.0000    0    12.011   45.466641    5.089032   12.356919
  89 C     6.0000    0    12.011   42.902169    4.608456   12.356692
  90 C     6.0000    0    12.011   41.584822    2.141778   12.227171
  91 O     8.0000    0    15.999   42.518970    0.057637   12.215587
  92 H     1.0000    0     1.008    7.478969    6.719413   -8.095058
  93 H     1.0000    0     1.008    1.397528   -0.031558  -10.581011
  94 H     1.0000    0     1.008    8.139769   -4.380026   -3.802337
  95 H     1.0000    0     1.008   11.294175   -5.999068   -1.022947
  96 H     1.0000    0     1.008   20.288818    6.934010    0.962986
  97 H     1.0000    0     1.008   22.109078    8.831352   -2.842394
  98 H     1.0000    0     1.008   24.684926    7.601253   -6.851202
  99 H     1.0000    0     1.008   21.626498    8.385830   -7.878155
 100 H     1.0000    0     1.008   24.461258    3.557863   -9.302460
 101 H     1.0000    0     1.008   24.046425    6.239725  -11.232079
 102 H     1.0000    0     1.008   21.406874    4.404252  -10.373822
 103 H     1.0000    0     1.008   21.135774    1.858206   -6.777654
 104 H     1.0000    0     1.008   19.374909   -0.040289   -2.988583
 105 H     1.0000    0     1.008   14.986832    5.114846   -0.239315
 106 H     1.0000    0     1.008   12.130360    7.985038    1.997648
 107 H     1.0000    0     1.008   11.713864    8.463233    8.940823
 108 H     1.0000    0     1.008   10.208603    9.212698    6.049902
 109 H     1.0000    0     1.008   15.049930   11.668662    8.028369
 110 H     1.0000    0     1.008   12.016391   13.062978    8.039160
 111 H     1.0000    0     1.008   13.551453   12.413649    5.145989
 112 H     1.0000    0     1.008   15.716134    6.124810    8.972533
 113 H     1.0000    0     1.008   18.554730    3.228578    6.753088
 114 H     1.0000    0     1.008   21.779906   -4.945489    5.480433
 115 H     1.0000    0     1.008   29.243795   -5.482814   10.775615
 116 H     1.0000    0     1.008   28.369721   -6.450656   15.220724
 117 H     1.0000    0     1.008   22.928028   -3.901869   18.776924
 118 H     1.0000    0     1.008   25.927534   -5.354463   19.045284
 119 H     1.0000    0     1.008   21.153821   -7.905008   17.021670
 120 H     1.0000    0     1.008   22.498815   -8.406730   20.035935
 121 H     1.0000    0     1.008   24.144464   -9.351801   17.289161
 122 H     1.0000    0     1.008   21.277560   -2.666517   14.648703
 123 H     1.0000    0     1.008   22.157398   -1.661202   10.221094
 124 H     1.0000    0     1.008   30.214945   -2.967002    3.948828
 125 H     1.0000    0     1.008   31.820890   -6.619597    1.612673
 126 H     1.0000    0     1.008   30.107948  -13.210962    2.995726
 127 H     1.0000    0     1.008   32.214993  -11.217868    1.331085
 128 H     1.0000    0     1.008   26.677377  -12.123122   -0.051344
 129 H     1.0000    0     1.008   29.314962  -13.431928   -1.626034
 130 H     1.0000    0     1.008   28.776353  -10.137379   -1.711071
 131 H     1.0000    0     1.008   26.572970  -11.391855    5.434569
 132 H     1.0000    0     1.008   24.984844   -7.748198    7.810767
 133 H     1.0000    0     1.008   23.299681    4.225352    3.623947
 134 H     1.0000    0     1.008   34.455868    4.964235    8.854406
 135 H     1.0000    0     1.008   37.975162   -0.980258   11.433183
 136 H     1.0000    0     1.008   40.588124   10.630560   12.567284
 137 H     1.0000    0     1.008   46.833536    3.578782   12.302873

--------------------------------
INTERNAL COORDINATES (ANGSTROEM)
--------------------------------
 C      0   0   0     0.000000000000     0.00000000     0.00000000
 O      1   0   0     1.216803967614     0.00000000     0.00000000
 C      1   2   0     1.478134910115   125.95872863     0.00000000
 C      3   1   2     1.380516025333   128.34627721     0.74655093
 C      4   3   1     1.385522863074   117.59233593   179.65751724
 F      5   4   3     1.338550765306   119.70474220   180.09315013
 C      5   4   3     1.394993115037   120.59443821     0.02525652
 F      7   5   4     1.337561834496   119.34577628   180.10030475
 C      7   5   4     1.387320717174   121.74851412     0.03779881
 C      9   7   5     1.386097425472   118.02484167   359.95025815
 C     10   9   7     1.464524503926   131.46708461   180.23977878
 C     11  10   9     1.370656781984   124.89618634   359.10973780
 C     12  11  10     1.411127861818   125.97176767   180.17496838
 N     13  12  11     1.148862131241   175.27799970   179.05089878
 C     12  11  10     1.411581743860   124.08373386     0.08807602
 N     15  12  11     1.147646460239   176.33489162   178.74160800
 C     11  10   9     1.449393856824   107.36573598   179.12998238
 C     17  11  10     1.374356337381   125.61312973   181.72819551
 C     18  17  11     1.399724287315   130.67204062   178.39779421
 C     19  18  17     1.399838897302   121.47995230   181.99124303
 C     20  19  18     1.378451892559   112.35366558   178.57033612
 C     21  20  19     1.413999800919   113.36230083     0.50166237
 S     22  21  20     1.719510501451   112.02963858   359.80605530
 C     22  21  20     1.392230142828   111.82826715   181.57630983
 C     24  22  21     1.504760515830   137.39651952   181.82053267
 C     25  24  22     1.515798178453   114.24240364   299.03737295
 C     26  25  24     1.390073999973   119.94881030   160.59483276
 C     27  26  25     1.379419606646   120.36684855   178.32668788
 C     28  27  26     1.392659612863   121.32494049   359.93699352
 C     29  28  27     1.506259740251   118.43307599   179.39598622
 C     30  29  28     1.522980300267   115.57963262   176.84432114
 C     29  28  27     1.386607620706   117.96214695   359.58426101
 C     32  29  28     1.384958937622   120.92599571     0.15969308
 C     25  24  22     1.521097007557   106.81122137    62.74558519
 C     34  25  24     1.389984867867   118.75341099   282.29839686
 C     35  34  25     1.380821924507   120.42372270   177.37946000
 C     36  35  34     1.389636192426   120.90710790   359.78221469
 C     37  36  35     1.501272944171   120.77036684   177.83698303
 C     38  37  36     1.530141994326   110.40081935   271.66108748
 C     37  36  35     1.387807487838   118.35160756     0.00000000
 C     40  37  36     1.383726188919   121.04369643   359.77438704
 C     25  24  22     1.518024493808   100.81026724   181.80058063
 C     42  25  24     1.416298921909   110.96333437   356.81411059
 C     24  22  21     1.386043298241   112.03171630   359.77946049
 S     44  24  22     1.730881266581   114.30302967   359.79516103
 C     43  42  25     1.392804294580   122.00509072   180.09914169
 C     46  43  42     1.374832378947   117.15985776   359.17431791
 C     47  46  43     1.518689719462   128.13848198   181.38433098
 C     48  47  46     1.520205133724   113.94824313   289.61383133
 C     49  48  47     1.389907913101   118.78474842   171.09281271
 C     50  49  48     1.380595328291   120.47642883   177.22280271
 C     51  50  49     1.389630284500   120.86173121   359.78267576
 C     52  51  50     1.501004037136   120.65959763   177.88785566
 C     53  52  51     1.530192064481   110.41145356   273.46309930
 C     52  51  50     1.387720349566   118.36029959     0.00000000
 C     55  52  51     1.383696406297   121.06027728   359.72988505
 C     48  47  46     1.516497891162   108.93597643    55.04599780
 C     57  48  47     1.387278938246   121.18280514    89.49691614
 C     58  57  48     1.382869134987   120.43920419   181.86093865
 C     59  58  57     1.388008370688   120.96308725     0.39232190
 C     60  59  58     1.501147465241   120.92192041   177.96925673
 C     61  60  59     1.530035922977   110.36268045   269.30658453
 C     60  59  58     1.389156338250   118.33879911     0.31797116
 C     63  60  59     1.381390531168   120.93708167   359.51425964
 C     48  47  46     1.504706015971   100.76964526   175.38329517
 C     65  48  47     1.386020146282   110.62469719     2.96864261
 C     47  46  43     1.416015296598   120.81762190   358.97247602
 C     42  25  24     1.375011721550   128.20725405   174.84238235
 S     66  65  48     1.729924246983   114.30223749   178.70096196
 C     69  66  65     1.739753598588    89.26613381   359.96588447
 C     65  48  47     1.391500866331   137.71069198   180.90792695
 S     71  65  48     1.716411282298   136.57773330     3.79936531
 C     72  71  65     1.761915722105    91.06408692   179.28674857
 C     70  69  66     1.385644882104   133.46991423   180.01604057
 C     73  72  71     1.406200060944   118.23267605   182.87339484
 C     75  73  72     1.367345907845   130.08802424   192.28435544
 C     76  75  73     1.443254578340   133.36137070    16.69023075
 C     77  76  75     1.371392051530   126.82315997    28.64473030
 C     78  77  76     1.409784579289   123.97696301   175.84465709
 N     79  78  77     1.147737396141   177.04330447   160.34133614
 C     78  77  76     1.409220806297   123.55832762     0.00000000
 N     81  78  77     1.147780503842   177.12888334   144.20173891
 C     77  76  75     1.464657466338   107.22354338   196.80013172
 C     83  77  76     1.385128157753   131.12090677   171.67172012
 C     84  83  77     1.387256925807   117.90394113   178.44509985
 F     85  84  83     1.337420778065   118.95927570   179.31085194
 C     85  84  83     1.395242916234   121.65583460   359.52258254
 F     87  85  84     1.338294229831   119.60682802   180.33550405
 C     87  85  84     1.385962869488   120.71919439     0.55617936
 C     89  87  85     1.380682959299   117.66067927     0.00000000
 C     90  89  87     1.481382556870   128.66987708   178.37049389
 O     91  90  89     1.208612435895   127.72141551     3.80300801
 H      4   3   1     1.078288733874   121.48458088   359.73700971
 H      9   7   5     1.077428997429   118.71872572   180.03753520
 H     18  17  11     1.083263051710   116.48794994   359.33165789
 H     20  19  18     1.075203329794   122.60559141   359.06724237
 H     27  26  25     1.080429814148   119.81863206   357.43187195
 H     28  27  26     1.081011034079   119.42710460   179.73449272
 H     30  29  28     1.094363572996   108.09352341    54.37978539
 H     30  29  28     1.094570079894   108.02786648   299.19071265
 H     31  30  29     1.087744532921   110.88206595   300.55502365
 H     31  30  29     1.087777130482   109.68144639   181.13666014
 H     31  30  29     1.087505712123   110.95598390    61.78415785
 H     32  29  28     1.078273699299   120.49498341   180.16312035
 H     33  32  29     1.080574485864   119.23743961   180.42007287
 H     35  34  25     1.080186389379   119.76693339   357.14557326
 H     36  35  34     1.080224625946   119.39842697   180.12458617
 H     38  37  36     1.091824507007   109.86975460   151.12442557
 H     38  37  36     1.091724395120   109.78728597    32.13432489
 H     39  38  37     1.087740292395   110.35419982   300.05552226
 H     39  38  37     1.087400916314   110.47703568   179.90547748
 H     39  38  37     1.087692475151   110.33308952    59.74787323
 H     40  37  36     1.080741935431   119.59078207   180.12959841
 H     41  40  37     1.080285787975   119.54374907   180.53855346
 H     46  43  42     1.078936575383   120.87355233   179.68875706
 H     50  49  48     1.080701951742   119.62283765   356.84995526
 H     51  50  49     1.080334772420   119.50537288   180.13356424
 H     53  52  51     1.091588116736   109.86408391   152.87533975
 H     53  52  51     1.091654576228   109.75847704    33.92998931
 H     54  53  52     1.087831833787   110.36407574   300.07224842
 H     54  53  52     1.087366001584   110.46729552   179.92792649
 H     54  53  52     1.087760099103   110.36667679    59.77926201
 H     55  52  51     1.080668880555   119.57853617   180.17866330
 H     56  55  52     1.080241748915   119.61248328   180.63656273
 H     58  57  48     1.080542778329   120.03387636     1.89035843
 H     59  58  57     1.080613870770   119.45144276   180.48991112
 H     61  60  59     1.091819366150   109.82033151   148.88150597
 H     61  60  59     1.091695519731   109.88477610    29.87500633
 H     62  61  60     1.087733201617   110.37744659   300.23728822
 H     62  61  60     1.087352757112   110.45582093   180.05510998
 H     62  61  60     1.087788321136   110.33114450    59.89092018
 H     63  60  59     1.080602364240   119.54565730   179.84650732
 H     64  63  60     1.080406639974   119.78843174   180.86215389
 H     68  42  25     1.078902302018   121.94866135     0.62667055
 H     74  70  69     1.074701593979   124.09956042   357.00203540
 H     75  73  72     1.086290427970   115.51602940    17.78860975
 H     84  83  77     1.077882482184   123.09412095   357.82084486
 H     89  87  85     1.078299079569   120.81825555   179.96235041

---------------------------
INTERNAL COORDINATES (A.U.)
---------------------------
 C      0   0   0     0.000000000000     0.00000000     0.00000000
 O      1   0   0     2.299426257458     0.00000000     0.00000000
 C      1   2   0     2.793270169105   125.95872863     0.00000000
 C      3   1   2     2.608797211368   128.34627721     0.74655093
 C      4   3   1     2.618258763496   117.59233593   179.65751724
 F      5   4   3     2.529494362778   119.70474220   180.09315013
 C      5   4   3     2.636154946125   120.59443821     0.02525652
 F      7   5   4     2.527625554383   119.34577628   180.10030475
 C      7   5   4     2.621656215374   121.74851412     0.03779881
 C      9   7   5     2.619344529075   118.02484167   359.95025815
 C     10   9   7     2.767550228837   131.46708461   180.23977878
 C     11  10   9     2.590165941552   124.89618634   359.10973780
 C     12  11  10     2.666645198783   125.97176767   180.17496838
 N     13  12  11     2.171034793679   175.27799970   179.05089878
 C     12  11  10     2.667502911539   124.08373386     0.08807602
 N     15  12  11     2.168737508417   176.33489162   178.74160800
 C     11  10   9     2.738957449586   107.36573598   179.12998238
 C     17  11  10     2.597157088070   125.61312973   181.72819551
 C     18  17  11     2.645095566024   130.67204062   178.39779421
 C     19  18  17     2.645312147511   121.47995230   181.99124303
 C     20  19  18     2.604896565722   112.35366558   178.57033612
 C     21  20  19     2.672072377157   113.36230083     0.50166237
 S     22  21  20     3.249403932144   112.02963858   359.80605530
 C     22  21  20     2.630933685336   111.82826715   181.57630983
 C     24  22  21     2.843585272056   137.39651952   181.82053267
 C     25  24  22     2.864443431572   114.24240364   299.03737295
 C     26  25  24     2.626859165833   119.94881030   160.59483276
 C     27  26  25     2.606725280323   120.36684855   178.32668788
 C     28  27  26     2.631745266084   121.32494049   359.93699352
 C     29  28  27     2.846418395625   118.43307599   179.39598622
 C     30  29  28     2.878015674861   115.57963262   176.84432114
 C     29  28  27     2.620308658343   117.96214695   359.58426101
 C     32  29  28     2.617193098833   120.92599571     0.15969308
 C     25  24  22     2.874456767411   106.81122137    62.74558519
 C     34  25  24     2.626690730564   118.75341099   282.29839686
 C     35  34  25     2.609375277033   120.42372270   177.37946000
 C     36  35  34     2.626031829470   120.90710790   359.78221469
 C     37  36  35     2.836994716749   120.77036684   177.83698303
 C     38  37  36     2.891549315288   110.40081935   271.66108748
 C     37  36  35     2.622576078620   118.35160756     0.00000000
 C     40  37  36     2.614863541391   121.04369643   359.77438704
 C     25  24  22     2.868650557881   100.81026724   181.80058063
 C     42  25  24     2.676417086176   110.96333437   356.81411059
 C     24  22  21     2.619242243433   112.03171630   359.77946049
 S     44  24  22     3.270891564172   114.30302967   359.79516103
 C     43  42  25     2.632018674905   122.00509072   180.09914169
 C     46  43  42     2.598056676257   117.15985776   359.17431791
 C     47  46  43     2.869907652185   128.13848198   181.38433098
 C     48  47  46     2.872771370119   113.94824313   289.61383133
 C     49  48  47     2.626545307130   118.78474842   171.09281271
 C     50  49  48     2.608947072242   120.47642883   177.22280271
 C     51  50  49     2.626020665108   120.86173121   359.78267576
 C     52  51  50     2.836486556098   120.65959763   177.88785566
 C     53  52  51     2.891643934168   110.41145356   273.46309930
 C     52  51  50     2.622411411149   118.36029959     0.00000000
 C     55  52  51     2.614807260393   121.06027728   359.72988505
 C     48  47  46     2.865765696966   108.93597643    55.04599780
 C     57  48  47     2.621577264641   121.18280514    89.49691614
 C     58  57  48     2.613243944178   120.43920419   181.86093865
 C     59  58  57     2.622955692191   120.96308725     0.39232190
 C     60  59  58     2.836757595936   120.92192041   177.96925673
 C     61  60  59     2.891348869488   110.36268045   269.30658453
 C     60  59  58     2.625125036493   118.33879911     0.31797116
 C     63  60  59     2.610449787899   120.93708167   359.51425964
 C     48  47  46     2.843482282249   100.76964526   175.38329517
 C     65  48  47     2.619198492571   110.62469719     2.96864261
 C     47  46  43     2.675881112014   120.81762190   358.97247602
 C     42  25  24     2.598395584661   128.20725405   174.84238235
 S     66  65  48     3.269083059228   114.30223749   178.70096196
 C     69  66  65     3.287657841835    89.26613381   359.96588447
 C     65  48  47     2.629555552480   137.71069198   180.90792695
 S     71  65  48     3.243547256716   136.57773330     3.79936531
 C     72  71  65     3.329538185828    91.06408692   179.28674857
 C     70  69  66     2.618489346045   133.46991423   180.01604057
 C     73  72  71     2.657333004688   118.23267605   182.87339484
 C     75  73  72     2.583909296165   130.08802424   192.28435544
 C     76  75  73     2.727355894591   133.36137070    16.69023075
 C     77  76  75     2.591555399628   126.82315997    28.64473030
 C     78  77  76     2.664106762681   123.97696301   175.84465709
 N     79  78  77     2.168909352366   177.04330447   160.34133614
 C     78  77  76     2.663041386125   123.55832762     0.00000000
 N     81  78  77     2.168990814116   177.12888334   144.20173891
 C     77  76  75     2.767801491382   107.22354338   196.80013172
 C     83  77  76     2.617512878536   131.12090677   171.67172012
 C     84  83  77     2.621535667161   117.90394113   178.44509985
 F     85  84  83     2.527358996359   118.95927570   179.31085194
 C     85  84  83     2.636627001975   121.65583460   359.52258254
 F     87  85  84     2.529009580988   119.60682802   180.33550405
 C     87  85  84     2.619090255116   120.71919439     0.55617936
 C     89  87  85     2.609112670848   117.66067927     0.00000000
 C     90  89  87     2.799407332053   128.66987708   178.37049389
 O     91  90  89     2.283946505893   127.72141551     3.80300801
 H      4   3   1     2.037670400315   121.48458088   359.73700971
 H      9   7   5     2.036045733885   118.71872572   180.03753520
 H     18  17  11     2.047070498728   116.48794994   359.33165789
 H     20  19  18     2.031839831591   122.60559141   359.06724237
 H     27  26  25     2.041716455663   119.81863206   357.43187195
 H     28  27  26     2.042814802156   119.42710460   179.73449272
 H     30  29  28     2.068047443901   108.09352341    54.37978539
 H     30  29  28     2.068437685385   108.02786648   299.19071265
 H     31  30  29     2.055539270891   110.88206595   300.55502365
 H     31  30  29     2.055600871354   109.68144639   181.13666014
 H     31  30  29     2.055087964987   110.95598390    61.78415785
 H     32  29  28     2.037641989085   120.49498341   180.16312035
 H     33  32  29     2.041989845586   119.23743961   180.42007287
 H     35  34  25     2.041256449516   119.76693339   357.14557326
 H     36  35  34     2.041328706155   119.39842697   180.12458617
 H     38  37  36     2.063249304546   109.86975460   151.12442557
 H     38  37  36     2.063060120498   109.78728597    32.13432489
 H     39  38  37     2.055531257458   110.35419982   300.05552226
 H     39  38  37     2.054889929608   110.47703568   179.90547748
 H     39  38  37     2.055440895962   110.33308952    59.74787323
 H     40  37  36     2.042306279409   119.59078207   180.12959841
 H     41  40  37     2.041444285639   119.54374907   180.53855346
 H     46  43  42     2.038894643345   120.87355233   179.68875706
 H     50  49  48     2.042230721187   119.62283765   356.84995526
 H     51  50  49     2.041536852826   119.50537288   180.13356424
 H     53  52  51     2.062802591675   109.86408391   152.87533975
 H     53  52  51     2.062928181913   109.75847704    33.92998931
 H     54  53  52     2.055704245618   110.36407574   300.07224842
 H     54  53  52     2.054823950330   110.46729552   179.92792649
 H     54  53  52     2.055568686711   110.36667679    59.77926201
 H     55  52  51     2.042168225700   119.57853617   180.17866330
 H     56  55  52     2.041361063878   119.61248328   180.63656273
 H     58  57  48     2.041929927029   120.03387636     1.89035843
 H     59  58  57     2.042064272271   119.45144276   180.48991112
 H     61  60  59     2.063239589735   109.82033151   148.88150597
 H     61  60  59     2.063005553920   109.88477610    29.87500633
 H     62  61  60     2.055517857830   110.37744659   300.23728822
 H     62  61  60     2.054798921907   110.45582093   180.05510998
 H     62  61  60     2.055622018625   110.33114450    59.89092018
 H     63  60  59     2.042042528080   119.54565730   179.84650732
 H     64  63  60     2.041672662821   119.78843174   180.86215389
 H     68  42  25     2.038829876071   121.94866135     0.62667055
 H     74  70  69     2.030891688308   124.09956042   357.00203540
 H     75  73  72     2.052791410764   115.51602940    17.78860975
 H     84  83  77     2.036902695880   123.09412095   357.82084486
 H     89  87  85     2.037689950845   120.81825555   179.96235041

---------------------
BASIS SET INFORMATION
---------------------
There are 6 groups of distinct atoms

 Group   1 Type C   : 7s4p1d contracted to 3s2p1d pattern {511/31/1}
 Group   2 Type O   : 7s4p1d contracted to 3s2p1d pattern {511/31/1}
 Group   3 Type F   : 7s4p1d contracted to 3s2p1d pattern {511/31/1}
 Group   4 Type N   : 7s4p1d contracted to 3s2p1d pattern {511/31/1}
 Group   5 Type S   : 10s7p1d contracted to 4s3p1d pattern {5311/511/1}
 Group   6 Type H   : 4s1p contracted to 2s1p pattern {31/1}

Atom   0C    basis set group =>   1
Atom   1O    basis set group =>   2
Atom   2C    basis set group =>   1
Atom   3C    basis set group =>   1
Atom   4C    basis set group =>   1
Atom   5F    basis set group =>   3
Atom   6C    basis set group =>   1
Atom   7F    basis set group =>   3
Atom   8C    basis set group =>   1
Atom   9C    basis set group =>   1
Atom  10C    basis set group =>   1
Atom  11C    basis set group =>   1
Atom  12C    basis set group =>   1
Atom  13N    basis set group =>   4
Atom  14C    basis set group =>   1
Atom  15N    basis set group =>   4
Atom  16C    basis set group =>   1
Atom  17C    basis set group =>   1
Atom  18C    basis set group =>   1
Atom  19C    basis set group =>   1
Atom  20C    basis set group =>   1
Atom  21C    basis set group =>   1
Atom  22S    basis set group =>   5
Atom  23C    basis set group =>   1
Atom  24C    basis set group =>   1
Atom  25C    basis set group =>   1
Atom  26C    basis set group =>   1
Atom  27C    basis set group =>   1
Atom  28C    basis set group =>   1
Atom  29C    basis set group =>   1
Atom  30C    basis set group =>   1
Atom  31C    basis set group =>   1
Atom  32C    basis set group =>   1
Atom  33C    basis set group =>   1
Atom  34C    basis set group =>   1
Atom  35C    basis set group =>   1
Atom  36C    basis set group =>   1
Atom  37C    basis set group =>   1
Atom  38C    basis set group =>   1
Atom  39C    basis set group =>   1
Atom  40C    basis set group =>   1
Atom  41C    basis set group =>   1
Atom  42C    basis set group =>   1
Atom  43C    basis set group =>   1
Atom  44S    basis set group =>   5
Atom  45C    basis set group =>   1
Atom  46C    basis set group =>   1
Atom  47C    basis set group =>   1
Atom  48C    basis set group =>   1
Atom  49C    basis set group =>   1
Atom  50C    basis set group =>   1
Atom  51C    basis set group =>   1
Atom  52C    basis set group =>   1
Atom  53C    basis set group =>   1
Atom  54C    basis set group =>   1
Atom  55C    basis set group =>   1
Atom  56C    basis set group =>   1
Atom  57C    basis set group =>   1
Atom  58C    basis set group =>   1
Atom  59C    basis set group =>   1
Atom  60C    basis set group =>   1
Atom  61C    basis set group =>   1
Atom  62C    basis set group =>   1
Atom  63C    basis set group =>   1
Atom  64C    basis set group =>   1
Atom  65C    basis set group =>   1
Atom  66C    basis set group =>   1
Atom  67C    basis set group =>   1
Atom  68S    basis set group =>   5
Atom  69C    basis set group =>   1
Atom  70C    basis set group =>   1
Atom  71S    basis set group =>   5
Atom  72C    basis set group =>   1
Atom  73C    basis set group =>   1
Atom  74C    basis set group =>   1
Atom  75C    basis set group =>   1
Atom  76C    basis set group =>   1
Atom  77C    basis set group =>   1
Atom  78C    basis set group =>   1
Atom  79N    basis set group =>   4
Atom  80C    basis set group =>   1
Atom  81N    basis set group =>   4
Atom  82C    basis set group =>   1
Atom  83C    basis set group =>   1
Atom  84C    basis set group =>   1
Atom  85F    basis set group =>   3
Atom  86C    basis set group =>   1
Atom  87F    basis set group =>   3
Atom  88C    basis set group =>   1
Atom  89C    basis set group =>   1
Atom  90C    basis set group =>   1
Atom  91O    basis set group =>   2
Atom  92H    basis set group =>   6
Atom  93H    basis set group =>   6
Atom  94H    basis set group =>   6
Atom  95H    basis set group =>   6
Atom  96H    basis set group =>   6
Atom  97H    basis set group =>   6
Atom  98H    basis set group =>   6
Atom  99H    basis set group =>   6
Atom 100H    basis set group =>   6
Atom 101H    basis set group =>   6
Atom 102H    basis set group =>   6
Atom 103H    basis set group =>   6
Atom 104H    basis set group =>   6
Atom 105H    basis set group =>   6
Atom 106H    basis set group =>   6
Atom 107H    basis set group =>   6
Atom 108H    basis set group =>   6
Atom 109H    basis set group =>   6
Atom 110H    basis set group =>   6
Atom 111H    basis set group =>   6
Atom 112H    basis set group =>   6
Atom 113H    basis set group =>   6
Atom 114H    basis set group =>   6
Atom 115H    basis set group =>   6
Atom 116H    basis set group =>   6
Atom 117H    basis set group =>   6
Atom 118H    basis set group =>   6
Atom 119H    basis set group =>   6
Atom 120H    basis set group =>   6
Atom 121H    basis set group =>   6
Atom 122H    basis set group =>   6
Atom 123H    basis set group =>   6
Atom 124H    basis set group =>   6
Atom 125H    basis set group =>   6
Atom 126H    basis set group =>   6
Atom 127H    basis set group =>   6
Atom 128H    basis set group =>   6
Atom 129H    basis set group =>   6
Atom 130H    basis set group =>   6
Atom 131H    basis set group =>   6
Atom 132H    basis set group =>   6
Atom 133H    basis set group =>   6
Atom 134H    basis set group =>   6
Atom 135H    basis set group =>   6
Atom 136H    basis set group =>   6
Atom 137H    basis set group =>   6
---------------------------------
AUXILIARY/J BASIS SET INFORMATION
---------------------------------
There are 6 groups of distinct atoms

 Group   1 Type C   : 12s5p4d2f1g contracted to 6s4p3d1f1g pattern {711111/2111/211/2/1}
 Group   2 Type O   : 12s5p4d2f1g contracted to 6s4p3d1f1g pattern {711111/2111/211/2/1}
 Group   3 Type F   : 12s5p4d2f1g contracted to 6s4p3d1f1g pattern {711111/2111/211/2/1}
 Group   4 Type N   : 12s5p4d2f1g contracted to 6s4p3d1f1g pattern {711111/2111/211/2/1}
 Group   5 Type S   : 14s5p5d2f1g contracted to 8s4p3d1f1g pattern {71111111/2111/311/2/1}
 Group   6 Type H   : 5s2p1d contracted to 3s1p1d pattern {311/2/1}

Atom   0C    basis set group =>   1
Atom   1O    basis set group =>   2
Atom   2C    basis set group =>   1
Atom   3C    basis set group =>   1
Atom   4C    basis set group =>   1
Atom   5F    basis set group =>   3
Atom   6C    basis set group =>   1
Atom   7F    basis set group =>   3
Atom   8C    basis set group =>   1
Atom   9C    basis set group =>   1
Atom  10C    basis set group =>   1
Atom  11C    basis set group =>   1
Atom  12C    basis set group =>   1
Atom  13N    basis set group =>   4
Atom  14C    basis set group =>   1
Atom  15N    basis set group =>   4
Atom  16C    basis set group =>   1
Atom  17C    basis set group =>   1
Atom  18C    basis set group =>   1
Atom  19C    basis set group =>   1
Atom  20C    basis set group =>   1
Atom  21C    basis set group =>   1
Atom  22S    basis set group =>   5
Atom  23C    basis set group =>   1
Atom  24C    basis set group =>   1
Atom  25C    basis set group =>   1
Atom  26C    basis set group =>   1
Atom  27C    basis set group =>   1
Atom  28C    basis set group =>   1
Atom  29C    basis set group =>   1
Atom  30C    basis set group =>   1
Atom  31C    basis set group =>   1
Atom  32C    basis set group =>   1
Atom  33C    basis set group =>   1
Atom  34C    basis set group =>   1
Atom  35C    basis set group =>   1
Atom  36C    basis set group =>   1
Atom  37C    basis set group =>   1
Atom  38C    basis set group =>   1
Atom  39C    basis set group =>   1
Atom  40C    basis set group =>   1
Atom  41C    basis set group =>   1
Atom  42C    basis set group =>   1
Atom  43C    basis set group =>   1
Atom  44S    basis set group =>   5
Atom  45C    basis set group =>   1
Atom  46C    basis set group =>   1
Atom  47C    basis set group =>   1
Atom  48C    basis set group =>   1
Atom  49C    basis set group =>   1
Atom  50C    basis set group =>   1
Atom  51C    basis set group =>   1
Atom  52C    basis set group =>   1
Atom  53C    basis set group =>   1
Atom  54C    basis set group =>   1
Atom  55C    basis set group =>   1
Atom  56C    basis set group =>   1
Atom  57C    basis set group =>   1
Atom  58C    basis set group =>   1
Atom  59C    basis set group =>   1
Atom  60C    basis set group =>   1
Atom  61C    basis set group =>   1
Atom  62C    basis set group =>   1
Atom  63C    basis set group =>   1
Atom  64C    basis set group =>   1
Atom  65C    basis set group =>   1
Atom  66C    basis set group =>   1
Atom  67C    basis set group =>   1
Atom  68S    basis set group =>   5
Atom  69C    basis set group =>   1
Atom  70C    basis set group =>   1
Atom  71S    basis set group =>   5
Atom  72C    basis set group =>   1
Atom  73C    basis set group =>   1
Atom  74C    basis set group =>   1
Atom  75C    basis set group =>   1
Atom  76C    basis set group =>   1
Atom  77C    basis set group =>   1
Atom  78C    basis set group =>   1
Atom  79N    basis set group =>   4
Atom  80C    basis set group =>   1
Atom  81N    basis set group =>   4
Atom  82C    basis set group =>   1
Atom  83C    basis set group =>   1
Atom  84C    basis set group =>   1
Atom  85F    basis set group =>   3
Atom  86C    basis set group =>   1
Atom  87F    basis set group =>   3
Atom  88C    basis set group =>   1
Atom  89C    basis set group =>   1
Atom  90C    basis set group =>   1
Atom  91O    basis set group =>   2
Atom  92H    basis set group =>   6
Atom  93H    basis set group =>   6
Atom  94H    basis set group =>   6
Atom  95H    basis set group =>   6
Atom  96H    basis set group =>   6
Atom  97H    basis set group =>   6
Atom  98H    basis set group =>   6
Atom  99H    basis set group =>   6
Atom 100H    basis set group =>   6
Atom 101H    basis set group =>   6
Atom 102H    basis set group =>   6
Atom 103H    basis set group =>   6
Atom 104H    basis set group =>   6
Atom 105H    basis set group =>   6
Atom 106H    basis set group =>   6
Atom 107H    basis set group =>   6
Atom 108H    basis set group =>   6
Atom 109H    basis set group =>   6
Atom 110H    basis set group =>   6
Atom 111H    basis set group =>   6
Atom 112H    basis set group =>   6
Atom 113H    basis set group =>   6
Atom 114H    basis set group =>   6
Atom 115H    basis set group =>   6
Atom 116H    basis set group =>   6
Atom 117H    basis set group =>   6
Atom 118H    basis set group =>   6
Atom 119H    basis set group =>   6
Atom 120H    basis set group =>   6
Atom 121H    basis set group =>   6
Atom 122H    basis set group =>   6
Atom 123H    basis set group =>   6
Atom 124H    basis set group =>   6
Atom 125H    basis set group =>   6
Atom 126H    basis set group =>   6
Atom 127H    basis set group =>   6
Atom 128H    basis set group =>   6
Atom 129H    basis set group =>   6
Atom 130H    basis set group =>   6
Atom 131H    basis set group =>   6
Atom 132H    basis set group =>   6
Atom 133H    basis set group =>   6
Atom 134H    basis set group =>   6
Atom 135H    basis set group =>   6
Atom 136H    basis set group =>   6
Atom 137H    basis set group =>   6
------------------------------------------------------------------------------
                           ORCA GTO INTEGRAL CALCULATION
                           -- RI-GTO INTEGRALS CHOSEN --
------------------------------------------------------------------------------

                         BASIS SET STATISTICS AND STARTUP INFO

Gaussian basis set:
 # of primitive gaussian shells          ... 1358
 # of primitive gaussian functions       ... 2578
 # of contracted shells                  ...  698
 # of contracted basis functions         ... 1534
 Highest angular momentum                ...    2
 Maximum contraction depth               ...    5
Auxiliary gaussian basis set:
 # of primitive gaussian shells          ... 2588
 # of primitive gaussian functions       ... 7204
 # of contracted shells                  ... 1618
 # of contracted aux-basis functions     ... 5022
 Highest angular momentum                ...    4
 Maximum contraction depth               ...    7
Ratio of auxiliary to basis functions    ...  3.27
Integral package used                  ... LIBINT
 One Electron integrals                  ... done
 Ordering auxiliary basis shells         ... done
 Integral threshhold             Thresh  ...  2.500e-11
 Primitive cut-off               TCut    ...  2.500e-12
 Pre-screening matrix                    ... done
 Shell pair data                         ... 
 Ordering of the shell pairs             ... done (   0.016 sec) 73693 of 243951 pairs
 Determination of significant pairs      ... done (   0.000 sec)
 Creation of shell pair data             ... done (   0.010 sec)
 Storage of shell pair data              ... done (   0.016 sec)
 Shell pair data done in (   0.043 sec)
 Computing two index integrals           ... done
 Cholesky decomposition of the V-matrix  ... done


Timings:
 Total evaluation time                   ...   3.915 sec (  0.065 min)
 One electron matrix time                ...   1.112 sec (  0.019 min) = 28.4%
 Schwartz matrix evaluation time         ...   1.102 sec (  0.018 min) = 28.1%
 Two index repulsion integral time       ...   0.625 sec (  0.010 min) = 16.0%
 Cholesky decomposition of V             ...   1.015 sec (  0.017 min) = 25.9%
 Three index repulsion integral time     ...   0.000 sec (  0.000 min) =  0.0%

-------------------------------------------------------------------------------
                                 ORCA SCF
-------------------------------------------------------------------------------

------------
SCF SETTINGS
------------
Hamiltonian:
 Density Functional     Method          .... DFT(GTOs)
 Exchange Functional    Exchange        .... WB88
 Correlation Functional Correlation     .... LYP
 LDA part of GGA corr.  LDAOpt          .... VWN-5
 Gradients option       PostSCFGGA      .... off
 Hybrid DFT is turned on
   Fraction HF Exchange ScalHFX         ....  0.190000
   Scaling of DF-GGA-X  ScalDFX         ....  0.350000
   Scaling of DF-GGA-C  ScalDFC         ....  0.810000
   Scaling of DF-LDA-C  ScalLDAC        ....  1.000000
   Perturbative correction              ....  0.000000
   Density functional embedding theory  .... OFF
 Long-range corrected/Screened/Range-Separated Hybrid DFT is turned on
   Amount of maximum screened exact exchange              ....  0.460000
   Range separation parameter mu (erf(mu*r12)/r12)        ....  0.330000
 RI-approximation to the Coulomb term is turned on
   Number of auxiliary basis functions  .... 5022
   RIJ-COSX (HFX calculated with COS-X)).... on


General Settings:
 Integral files         IntName         .... IT-4F
 Hartree-Fock type      HFTyp           .... RHF
 Total Charge           Charge          ....    0
 Multiplicity           Mult            ....    1
 Number of Electrons    NEL             ....  658
 Basis Dimension        Dim             .... 1534
 Nuclear Repulsion      ENuc            ....  15972.0584865891 Eh

Convergence Acceleration:
 DIIS                   CNVDIIS         .... on
   Start iteration      DIISMaxIt       ....    12
   Startup error        DIISStart       ....  0.200000
   # of expansion vecs  DIISMaxEq       ....     5
   Bias factor          DIISBfac        ....   1.050
   Max. coefficient     DIISMaxC        ....  10.000
 Newton-Raphson         CNVNR           .... off
 SOSCF                  CNVSOSCF        .... on
   Start iteration      SOSCFMaxIt      ....   150
   Startup grad/error   SOSCFStart      ....  0.003300
 Level Shifting         CNVShift        .... on
   Level shift para.    LevelShift      ....    0.2500
   Turn off err/grad.   ShiftErr        ....    0.0010
 Zerner damping         CNVZerner       .... off
 Static damping         CNVDamp         .... on
   Fraction old density DampFac         ....    0.7000
   Max. Damping (<1)    DampMax         ....    0.9800
   Min. Damping (>=0)   DampMin         ....    0.0000
   Turn off err/grad.   DampErr         ....    0.1000
 Fernandez-Rico         CNVRico         .... off

SCF Procedure:
 Maximum # iterations   MaxIter         ....   125
 SCF integral mode      SCFMode         .... Direct
   Integral package                     .... LIBINT
 Reset frequency        DirectResetFreq ....    20
 Integral Threshold     Thresh          ....  2.500e-11 Eh
 Primitive CutOff       TCut            ....  2.500e-12 Eh

Convergence Tolerance:
 Convergence Check Mode ConvCheckMode   .... Total+1el-Energy
 Convergence forced     ConvForced      .... 1
 Energy Change          TolE            ....  1.000e-08 Eh
 1-El. energy change                    ....  1.000e-05 Eh
 Orbital Gradient       TolG            ....  1.000e-05
 Orbital Rotation angle TolX            ....  1.000e-05
 DIIS Error             TolErr          ....  5.000e-07


Diagonalization of the overlap matrix:
Smallest eigenvalue                        ... 1.833e-04
Time for diagonalization                   ...    0.930 sec
Threshold for overlap eigenvalues          ... 1.000e-08
Number of eigenvalues below threshold      ... 0
Time for construction of square roots      ...    0.307 sec
Total time needed                          ...    1.245 sec

-------------------
DFT GRID GENERATION
-------------------

General Integration Accuracy     IntAcc      ...  4.670
Radial Grid Type                 RadialGrid  ... Gauss-Chebyshev
Angular Grid (max. acc.)         AngularGrid ... Lebedev-302
Angular grid pruning method      GridPruning ... 3 (G Style)
Weight generation scheme         WeightScheme... Becke
Basis function cutoff            BFCut       ...    1.0000e-11
Integration weight cutoff        WCut        ...    1.0000e-14
Grids for H and He will be reduced by one unit

# of grid points (after initial pruning)     ... 730404 (   1.9 sec)
# of grid points (after weights+screening)   ... 613952 (  52.2 sec)
nearest neighbour list constructed           ...    0.0 sec
Grid point re-assignment to atoms done       ...    0.1 sec
Grid point division into batches done        ...    2.2 sec
Reduced shell lists constructed in   12.3 sec

Total number of grid points                  ...   613952
Total number of batches                      ...     9660
Average number of points per batch           ...       63
Average number of grid points per atom       ...     4449
Average number of shells per batch           ...   107.57 (15.41%)
Average number of basis functions per batch  ...   219.01 (14.28%)
Average number of large shells per batch     ...    61.50 (57.17%)
Average number of large basis fcns per batch ...   127.72 (58.32%)
Maximum spatial batch extension              ...  18.41, 21.50, 21.72 au
Average spatial batch extension              ...   2.07,  2.05,  2.14 au

Time for grid setup =   66.438 sec

------------------------------
INITIAL GUESS: MODEL POTENTIAL
------------------------------
Loading Hartree-Fock densities                     ... done
Calculating cut-offs                               ... done
Setting up the integral package                    ... done
Initializing the effective Hamiltonian             ... done
Starting the Coulomb interaction                   ... done (  17.0 sec)
Reading the grid                                   ... done
Mapping shells                                     ... done
Starting the XC term evaluation                    ... done (  12.8 sec)
  promolecular density results
     # of electrons  =    657.977977637
     EX              =   -594.959980657
     EC              =    -22.664157364
     EX+EC           =   -617.624138021
Transforming the Hamiltonian                       ... done (   0.3 sec)
Diagonalizing the Hamiltonian                      ... done (   0.7 sec)
Back transforming the eigenvectors                 ... done (   0.1 sec)
Now organizing SCF variables                       ... done
                      ------------------
                      INITIAL GUESS DONE (  97.8 sec)
                      ------------------
--------------------
COSX GRID GENERATION
--------------------

General Integration Accuracy     IntAcc      ...  3.340
Radial Grid Type                 RadialGrid  ... Gauss-Chebyshev
Angular Grid (max. acc.)         AngularGrid ... Lebedev-50
Angular grid pruning method      GridPruning ... 3 (G Style)
Weight generation scheme         WeightScheme... Becke
Basis function cutoff            BFCut       ...    1.0000e-11
Integration weight cutoff        WCut        ...    1.0000e-14
Grids for H and He will be reduced by one unit

# of grid points (after initial pruning)     ...  68528 (   0.1 sec)
# of grid points (after weights+screening)   ...  60569 (   4.9 sec)
nearest neighbour list constructed           ...    0.0 sec
Grid point re-assignment to atoms done       ...    0.0 sec
Grid point division into batches done        ...    0.0 sec
Reduced shell lists constructed in    1.4 sec

Total number of grid points                  ...    60569
Total number of batches                      ...     1025
Average number of points per batch           ...       59
Average number of grid points per atom       ...      439
Average number of shells per batch           ...   132.67 (19.01%)
Average number of basis functions per batch  ...   272.01 (17.73%)
Average number of large shells per batch     ...    75.05 (56.57%)
Average number of large basis fcns per batch ...   158.09 (58.12%)
Maximum spatial batch extension              ...  19.12, 20.00, 30.36 au
Average spatial batch extension              ...   4.28,  4.18,  4.73 au

Overlap Fitting                  UseSFitting ... on
Constructing numerical overlap ... done (      0.9 sec)
Inverting numerical overlap    ... done (      0.1 sec)
Obtaining analytic overlap     ... done (      0.0 sec)
Final contraction and storage  ... done (      0.1 sec)


General Integration Accuracy     IntAcc      ...  3.670
Radial Grid Type                 RadialGrid  ... Gauss-Chebyshev
Angular Grid (max. acc.)         AngularGrid ... Lebedev-50
Angular grid pruning method      GridPruning ... 3 (G Style)
Weight generation scheme         WeightScheme... Becke
Basis function cutoff            BFCut       ...    1.0000e-11
Integration weight cutoff        WCut        ...    1.0000e-14
Grids for H and He will be reduced by one unit

# of grid points (after initial pruning)     ...  85712 (   0.1 sec)
# of grid points (after weights+screening)   ...  75347 (   6.1 sec)
nearest neighbour list constructed           ...    0.0 sec
Grid point re-assignment to atoms done       ...    0.0 sec
Grid point division into batches done        ...    0.0 sec
Reduced shell lists constructed in    1.7 sec

Total number of grid points                  ...    75347
Total number of batches                      ...     1241
Average number of points per batch           ...       60
Average number of grid points per atom       ...      546
Average number of shells per batch           ...   129.58 (18.57%)
Average number of basis functions per batch  ...   265.54 (17.31%)
Average number of large shells per batch     ...    73.31 (56.58%)
Average number of large basis fcns per batch ...   154.14 (58.05%)
Maximum spatial batch extension              ...  22.74, 21.95, 22.01 au
Average spatial batch extension              ...   4.08,  3.95,  4.39 au

Overlap Fitting                  UseSFitting ... on
Constructing numerical overlap ... done (      1.2 sec)
Inverting numerical overlap    ... done (      0.1 sec)
Obtaining analytic overlap     ... done (      0.0 sec)
Final contraction and storage  ... done (      0.1 sec)


General Integration Accuracy     IntAcc      ...  4.010
Radial Grid Type                 RadialGrid  ... Gauss-Chebyshev
Angular Grid (max. acc.)         AngularGrid ... Lebedev-110
Angular grid pruning method      GridPruning ... 3 (G Style)
Weight generation scheme         WeightScheme... Becke
Basis function cutoff            BFCut       ...    1.0000e-11
Integration weight cutoff        WCut        ...    1.0000e-14
Grids for H and He will be reduced by one unit

# of grid points (after initial pruning)     ... 166260 (   0.3 sec)
# of grid points (after weights+screening)   ... 144511 (  11.8 sec)
nearest neighbour list constructed           ...    0.0 sec
Grid point re-assignment to atoms done       ...    0.0 sec
Grid point division into batches done        ...    0.1 sec
Reduced shell lists constructed in    3.2 sec

Total number of grid points                  ...   144511
Total number of batches                      ...     2332
Average number of points per batch           ...       61
Average number of grid points per atom       ...     1047
Average number of shells per batch           ...   122.44 (17.54%)
Average number of basis functions per batch  ...   250.74 (16.35%)
Average number of large shells per batch     ...    70.12 (57.26%)
Average number of large basis fcns per batch ...   147.06 (58.65%)
Maximum spatial batch extension              ...  25.50, 19.84, 24.31 au
Average spatial batch extension              ...   3.34,  3.25,  3.56 au

Overlap Fitting                  UseSFitting ... on
Constructing numerical overlap ... done (      2.0 sec)
Inverting numerical overlap    ... done (      0.1 sec)
Obtaining analytic overlap     ... done (      0.0 sec)
Final contraction and storage  ... done (      0.1 sec)

Time for X-Grid setup             =   34.452 sec
--------------
SCF ITERATIONS
--------------
ITER       Energy         Delta-E        Max-DP      RMS-DP      [F,P]     Damp
               ***  Starting incremental Fock matrix formation  ***
  0  -5354.6796271336   0.000000000000 0.16978151  0.00084813  0.2323441 0.7000
  1  -5355.3826436946  -0.703016561016 0.10541257  0.00060842  0.1001259 0.7000
                               ***Turning on DIIS***
  2  -5355.7021824499  -0.319538755306 0.18917978  0.00114629  0.0434349 0.0000
  3  -5356.2227187777  -0.520536327815 0.05293262  0.00041011  0.0539452 0.0000
  4  -5356.3126198282  -0.089901050444 0.01645011  0.00012767  0.0230713 0.0000
  5  -5356.3187312926  -0.006111464425 0.00669094  0.00004868  0.0096861 0.0000
                      *** Initiating the SOSCF procedure ***
                           *** Shutting down DIIS ***
                      *** Re-Reading the Fockian *** 
                      *** Removing any level shift *** 
ITER      Energy       Delta-E        Grad      Rot      Max-DP    RMS-DP
  6  -5356.31983525  -0.0011039592  0.002670  0.002670  0.002454  0.000025
               *** Restarting incremental Fock matrix formation ***
  7  -5356.32005559  -0.0002203364  0.001785  0.011413  0.002140  0.000025
  8  -5356.32023385  -0.0001782626  0.000734  0.011249  0.001998  0.000027
  9  -5356.32023789  -0.0000040399  0.000750  0.003871  0.001410  0.000011
 10  -5356.32028362  -0.0000457271  0.000183  0.001372  0.000512  0.000006
 11  -5356.32028220   0.0000014174  0.000170  0.001023  0.000312  0.000003
 12  -5356.32028649  -0.0000042880  0.000019  0.000100  0.000138  0.000001
 13  -5356.32028649  -0.0000000041  0.000022  0.000051  0.000093  0.000001
 14  -5356.32028660  -0.0000001050  0.000005  0.000034  0.000021  0.000000
 15  -5356.32028661  -0.0000000129  0.000006  0.000015  0.000016  0.000000
                  ***Gradient check signals convergence***
              ***Rediagonalizing the Fockian in SOSCF/NRSCF***

               *****************************************************
               *                     SUCCESS                       *
               *           SCF CONVERGED AFTER  16 CYCLES          *
               *****************************************************

Setting up the final grid:

General Integration Accuracy     IntAcc      ...  5.010
Radial Grid Type                 RadialGrid  ... Gauss-Chebyshev
Angular Grid (max. acc.)         AngularGrid ... Lebedev-434
Angular grid pruning method      GridPruning ... 3 (G Style)
Weight generation scheme         WeightScheme... Becke
Basis function cutoff            BFCut       ...    1.0000e-11
Integration weight cutoff        WCut        ...    1.0000e-14
Grids for H and He will be reduced by one unit

# of grid points (after initial pruning)     ... 1296552 (   2.6 sec)
# of grid points (after weights+screening)   ... 1086194 (  90.8 sec)
nearest neighbour list constructed           ...    0.0 sec
Grid point re-assignment to atoms done       ...    0.2 sec
Grid point division into batches done        ...    6.9 sec
Reduced shell lists constructed in   23.1 sec

Total number of grid points                  ...  1086194
Total number of batches                      ...    17047
Average number of points per batch           ...       63
Average number of grid points per atom       ...     7871
Average number of shells per batch           ...   103.36 (14.81%)
Average number of basis functions per batch  ...   209.79 (13.68%)
Average number of large shells per batch     ...    59.10 (57.18%)
Average number of large basis fcns per batch ...   122.42 (58.36%)
Maximum spatial batch extension              ...  22.27, 22.29, 21.05 au
Average spatial batch extension              ...   1.69,  1.67,  1.73 au

Final grid set up in  116.6 sec
Final integration                            ... done (  27.8 sec)
Change in XC energy                          ...    -0.000017567
Integrated number of electrons               ...   658.000043382
Previous integrated no of electrons          ...   658.000383221
Old exchange energy                            =   -166.360749941 Eh
New exchange energy                            =   -166.357631262 Eh
Exchange energy change after final integration =      0.003118680 Eh
Total energy after final integration           =  -5356.317185469 Eh
Final COS-X integration done in                =   671.156 sec

----------------
TOTAL SCF ENERGY
----------------

Total Energy       :        -5356.31718547 Eh         -145752.80055 eV

Components:
Nuclear Repulsion  :        15972.05848659 Eh          434621.80717 eV
Electronic Energy  :       -21328.37567206 Eh         -580374.60771 eV
One Electron Energy:       -39153.21411101 Eh        -1065413.12052 eV
Two Electron Energy:        17824.83843895 Eh          485038.51281 eV

[...]
  10   3.728     332.6   0.034525   0.029281   9.449324  20.971540     0.25 ( 117-> 124)    0.12 ( 119-> 124)    0.11 ( 107-> 124)
  11   3.763     329.5   0.027261   0.023755  -10.697056  -8.819727     0.27 ( 107-> 124)    0.14 ( 107-> 126)    0.14 ( 107-> 125)
  12   3.780     328.0   0.151998   0.147189  -32.768619  -44.900202     0.16 ( 113-> 124)    0.11 ( 113-> 125)    0.07 ( 106-> 124)
  13   3.849     322.1   0.023956   0.019569  -37.651563  -32.315524     0.51 ( 116-> 124)    0.12 ( 117-> 125)    0.09 ( 118-> 124)
  14   3.923     316.0   0.167198   0.150330  68.455057  62.137287     0.24 ( 115-> 124)    0.11 ( 115-> 125)    0.11 ( 113-> 124)
  15   3.969     312.4   0.166307   0.151171   3.904926   6.638186     0.35 ( 123-> 128)    0.13 ( 106-> 124)    0.10 ( 106-> 125)
  16   4.006     309.5   0.011053   0.009931  -82.037724  -81.818021     0.24 ( 123-> 128)    0.21 ( 106-> 124)    0.14 ( 106-> 125)
  17   4.012     309.1   0.003924   0.003541  12.461083  12.409101     0.43 ( 107-> 126)    0.20 ( 107-> 125)    0.14 ( 107-> 124)
  18   4.055     305.7   0.038687   0.033506  -20.427321  -17.061462     0.49 ( 114-> 124)    0.09 ( 114-> 125)    0.08 ( 113-> 124)
  19   4.080     303.9   0.063110   0.057359  -4.754317  -22.306434     0.35 ( 106-> 127)    0.16 ( 106-> 126)    0.06 ( 106-> 125)
  20   4.116     301.2   0.002200   0.001569   1.672033  -1.220332     0.54 ( 112-> 124)    0.11 ( 112-> 125)    0.06 ( 115-> 124)
  21   4.140     299.5   0.001894   0.001507   1.180748   1.278238     0.69 ( 121-> 125)    0.06 ( 121-> 124)    0.04 ( 120-> 124)
  22   4.188     296.1   0.005135   0.004275  -10.414058  -10.604157     0.62 ( 120-> 125)    0.06 ( 112-> 124)    0.04 ( 120-> 124)
  23   4.213     294.3   0.085590   0.077065  218.218829  212.188023     0.28 ( 122-> 126)    0.09 ( 123-> 127)    0.07 ( 119-> 126)
  24   4.260     291.0   0.044642   0.037123  40.417392  36.401115     0.22 ( 111-> 124)    0.09 ( 118-> 125)    0.08 ( 123-> 130)
  25   4.276     290.0   0.029001   0.023714  51.985650  47.125234     0.47 ( 111-> 124)    0.10 ( 122-> 126)    0.08 ( 111-> 125)
  26   4.294     288.8   0.009251   0.008115  -2.227995  -0.770135     0.14 ( 123-> 130)    0.13 ( 108-> 124)    0.08 ( 119-> 125)
  27   4.322     286.8   0.046479   0.040370  -25.826535  -29.154733     0.40 ( 119-> 125)    0.12 ( 118-> 124)    0.08 ( 118-> 125)
  28   4.358     284.5   0.003900   0.003142   9.926090   8.507356     0.76 ( 110-> 124)    0.12 ( 110-> 125)    0.02 ( 110-> 128)
  29   4.390     282.4   0.034492   0.032616  -3.995560  -9.709745     0.14 ( 118-> 125)    0.07 ( 119-> 125)    0.06 ( 118-> 126)
  30   4.419     280.6   0.150388   0.127254  -63.620139  -77.706627     0.40 ( 122-> 127)    0.10 ( 123-> 128)    0.08 ( 123-> 126)
  31   4.459     278.1   0.017126   0.012552  18.616286  15.336320     0.30 ( 109-> 124)    0.12 ( 117-> 125)    0.08 ( 116-> 124)
  32   4.501     275.4   0.011074   0.011089  -62.962013  -64.966124     0.24 ( 117-> 125)    0.13 ( 118-> 125)    0.06 ( 116-> 124)
  33   4.546     272.7   0.208151   0.171961  701.717297  636.527302     0.19 ( 116-> 125)    0.07 ( 117-> 125)    0.06 ( 118-> 127)
  34   4.563     271.7   0.193470   0.172533  672.413641  635.027999     0.10 ( 115-> 125)    0.08 ( 113-> 126)    0.06 ( 105-> 124)
  35   4.589     270.2   0.011708   0.009859  -88.385060  -83.266438     0.44 ( 121-> 126)    0.08 ( 118-> 126)    0.08 ( 121-> 127)
  36   4.605     269.2   0.335143   0.291394  -1377.450636  -1283.951718     0.10 ( 104-> 124)    0.09 ( 113-> 127)    0.08 ( 115-> 126)
  37   4.626     268.0   0.010887   0.009544  -45.306763  -38.428727     0.16 ( 123-> 129)    0.16 ( 116-> 125)    0.07 ( 122-> 128)
  38   4.657     266.2   0.005160   0.004476  -15.983994  -19.083563     0.28 ( 123-> 129)    0.13 ( 104-> 125)    0.11 ( 105-> 124)
  39   4.731     262.1   0.213437   0.168234  -230.055166  -214.127924     0.34 ( 114-> 125)    0.08 ( 115-> 125)    0.06 ( 109-> 125)
  40   4.771     259.9   0.225731   0.171084  127.344115  129.185636     0.13 ( 112-> 125)    0.09 ( 113-> 127)    0.09 ( 123-> 129)
  41   4.776     259.6   0.033443   0.026184  -28.158266  -21.298932     0.14 ( 112-> 125)    0.10 ( 114-> 125)    0.10 ( 108-> 124)
  42   4.786     259.0   0.088675   0.068654  102.293251  89.194287     0.15 ( 119-> 126)    0.13 ( 117-> 126)    0.08 ( 112-> 125)
  43   4.801     258.2   0.143147   0.107530  87.786919  70.119275     0.14 ( 114-> 125)    0.08 ( 109-> 125)    0.07 ( 105-> 124)
  44   4.840     256.2   0.035396   0.027134  207.395877  194.198270     0.14 ( 120-> 127)    0.09 ( 120-> 126)    0.07 ( 117-> 126)
  45   4.851     255.6   0.009741   0.006821   7.849884  14.012725     0.27 ( 108-> 124)    0.26 ( 112-> 125)    0.10 ( 123-> 130)
  46   4.879     254.1   0.054401   0.045971  21.478864  19.425360     0.10 ( 109-> 125)    0.10 ( 108-> 124)    0.10 ( 103-> 124)
  47   4.953     250.3   0.000256   0.000263   0.375193   0.372897     0.76 ( 111-> 125)    0.13 ( 111-> 124)    0.02 ( 111-> 127)
  48   4.989     248.5   0.019294   0.015756  -11.229665  -10.145988     0.22 ( 121-> 127)    0.08 ( 121-> 128)    0.06 ( 122-> 128)

-----------------------------------------------------------------------------
         ABSORPTION SPECTRUM VIA TRANSITION ELECTRIC DIPOLE MOMENTS
-----------------------------------------------------------------------------
State   Energy  Wavelength   fosc         T2         TX        TY        TZ  
        (cm-1)    (nm)                  (au**2)     (au)      (au)      (au) 
-----------------------------------------------------------------------------
   0   17050.0    586.5   2.366642840  45.69648  -5.68264  -1.11060  -3.48865
   1   20195.5    495.2   0.270253386   4.40546  -1.59663   0.78591  -1.11292
   2   24546.7    407.4   0.163083750   2.18723   1.17090  -0.66989   0.60619
   3   25713.4    388.9   0.089404874   1.14466  -1.01494  -0.33572  -0.04302
   4   26220.8    381.4   0.014078467   0.17676  -0.03575   0.41710  -0.03881
   5   27482.8    363.9   0.050669887   0.60697   0.46315   0.59078   0.20842
   6   27631.4    361.9   0.083771533   0.99809   0.17778   0.97691   0.11015
   7   28224.5    354.3   0.085894991   1.00188   0.72397   0.24790   0.64521
   8   28756.7    347.7   0.011800400   0.13509  -0.02907   0.05350   0.36247
   9   28884.6    346.2   0.023214191   0.26458  -0.24207   0.20088  -0.40698
  10   30068.2    332.6   0.034525263   0.37801   0.54911  -0.27165   0.05191
  11   30346.7    329.5   0.027260518   0.29573  -0.52990   0.03938  -0.11570
  12   30483.8    328.0   0.151997813   1.64151  -1.25191  -0.27130   0.02504
  13   31043.6    322.1   0.023955718   0.25405   0.17819  -0.46352   0.08626
  14   31643.4    316.0   0.167198133   1.73950  -0.12031   1.16001  -0.61596
  15   32012.2    312.4   0.166306877   1.71029   1.21230   0.42960   0.23680
  16   32306.5    309.5   0.011053296   0.11264   0.17513  -0.08973  -0.27187
  17   32355.3    309.1   0.003923529   0.03992   0.04658  -0.06159   0.18428
  18   32707.0    305.7   0.038687411   0.38941   0.55244  -0.16376   0.23958
  19   32907.8    303.9   0.063110093   0.63136   0.75580  -0.09161  -0.22743
  20   33200.6    301.2   0.002200470   0.02182   0.03869   0.01302   0.14196
  21   33392.5    299.5   0.001893703   0.01867   0.03345  -0.01011   0.13209
  22   33774.9    296.1   0.005135156   0.05005   0.21479  -0.00847   0.06202
  23   33978.5    294.3   0.085590470   0.82927   0.10037   0.74457  -0.51460
  24   34360.9    291.0   0.044642112   0.42772  -0.63229  -0.15124  -0.07105
  25   34488.5    290.0   0.029000655   0.27683   0.49070   0.18836   0.02364
  26   34629.9    288.8   0.009250841   0.08794   0.19512   0.00407   0.22328
  27   34861.7    286.8   0.046478696   0.43892  -0.65710  -0.04220  -0.07316
  28   35150.9    284.5   0.003900204   0.03653  -0.05207  -0.12806   0.13198
  29   35408.7    282.4   0.034492433   0.32069  -0.56331   0.01190   0.05682
  30   35638.6    280.6   0.150387794   1.38921   0.58456  -0.88012   0.52239
  31   35961.6    278.1   0.017126298   0.15678  -0.19565  -0.33386  -0.08391
  32   36305.7    275.4   0.011073817   0.10042   0.29119  -0.11413   0.05099
  33   36668.8    272.7   0.208150643   1.86877   0.86701   0.98998  -0.37015
  34   36801.9    271.7   0.193469895   1.73069   0.89774   0.94541  -0.17595
  35   37011.7    270.2   0.011708414   0.10414   0.00945   0.27241   0.17277
  36   37143.9    269.2   0.335143411   2.97043  -1.35005   1.07133   0.00582
  37   37314.5    268.0   0.010887119   0.09605   0.19636  -0.23006  -0.06758
  38   37559.8    266.2   0.005160275   0.04523   0.13585  -0.10291   0.12722
  39   38158.9    262.1   0.213437091   1.84141   0.23016   1.33606  -0.05816
  40   38482.4    259.9   0.225731498   1.93111   1.27116  -0.55221  -0.10162
  41   38523.3    259.6   0.033443496   0.28580  -0.14260  -0.40118  -0.32329
  42   38602.8    259.0   0.088674533   0.75623   0.79143   0.30706   0.18865
  43   38724.7    258.2   0.143147239   1.21694   0.73593   0.79885   0.19285
  44   39038.7    256.2   0.035396278   0.29850  -0.50686  -0.11774   0.16651
  45   39128.6    255.6   0.009741016   0.08196   0.21641  -0.08856  -0.16517
  46   39348.6    254.1   0.054401117   0.45515   0.43104  -0.32066   0.40808
  47   39948.6    250.3   0.000256186   0.00211  -0.04380  -0.01049  -0.00912
  48   40236.4    248.5   0.019294472   0.15787  -0.36348   0.14717  -0.06395

-----------------------------------------------------------------------------
         ABSORPTION SPECTRUM VIA TRANSITION VELOCITY DIPOLE MOMENTS
-----------------------------------------------------------------------------
State   Energy  Wavelength   fosc         P2         PX        PY        PZ  
        (cm-1)    (nm)                  (au**2)     (au)      (au)      (au) 
-----------------------------------------------------------------------------
   0   17050.0    586.5   2.747998006   0.32022  -0.47521  -0.09725  -0.29144
   1   20195.5    495.2   0.298067057   0.04114  -0.15443   0.07534  -0.10779
   2   24546.7    407.4   0.158624834   0.02661   0.12824  -0.07648   0.06572
   3   25713.4    388.9   0.084419529   0.01484  -0.11554  -0.03841  -0.00323
   4   26220.8    381.4   0.013489475   0.00242  -0.00750   0.04817  -0.00639
   5   27482.8    363.9   0.042758943   0.00803   0.05652   0.06414   0.02688
   6   27631.4    361.9   0.070755222   0.01336   0.01996   0.11261   0.01683
   7   28224.5    354.3   0.086093732   0.01661   0.09345   0.02632   0.08475
   8   28756.7    347.7   0.012772595   0.00251   0.00081   0.01311   0.04835
   9   28884.6    346.2   0.024196816   0.00478  -0.04072   0.01484  -0.05384
  10   30068.2    332.6   0.029280916   0.00602   0.06968  -0.03404   0.00156
  11   30346.7    329.5   0.023755190   0.00493  -0.06857   0.00396  -0.01449
  12   30483.8    328.0   0.147189028   0.03067  -0.17226  -0.03148   0.00026
  13   31043.6    322.1   0.019568950   0.00415   0.02085  -0.06015   0.00998
  14   31643.4    316.0   0.150329887   0.03251  -0.01754   0.15831  -0.08450
  15   32012.2    312.4   0.151171232   0.03307   0.16762   0.06256   0.03260
  16   32306.5    309.5   0.009930980   0.00219   0.02036  -0.01413  -0.03973
  17   32355.3    309.1   0.003540580   0.00078   0.00826  -0.00808   0.02548
  18   32707.0    305.7   0.033506333   0.00749   0.07818  -0.01813   0.03240
  19   32907.8    303.9   0.057359232   0.01290   0.10774  -0.01678  -0.03180
  20   33200.6    301.2   0.001569052   0.00036   0.00424   0.00399   0.01795
  21   33392.5    299.5   0.001506639   0.00034   0.00394  -0.00173   0.01804
  22   33774.9    296.1   0.004275409   0.00099   0.02975  -0.00455   0.00901
  23   33978.5    294.3   0.077064768   0.01790   0.01586   0.11043  -0.07383
  24   34360.9    291.0   0.037123281   0.00872  -0.09052  -0.02073  -0.00976
  25   34488.5    290.0   0.023713701   0.00559   0.06985   0.02650   0.00286
  26   34629.9    288.8   0.008115394   0.00192   0.02946  -0.00026   0.03245
  27   34861.7    286.8   0.040370362   0.00962  -0.09720  -0.00131  -0.01299
  28   35150.9    284.5   0.003141798   0.00075  -0.00802  -0.01795   0.01919
  29   35408.7    282.4   0.032616200   0.00789  -0.08854   0.00431   0.00590
  30   35638.6    280.6   0.127254046   0.03100   0.09550  -0.12391   0.08076
  31   35961.6    278.1   0.012551510   0.00308  -0.02572  -0.04804  -0.01076
  32   36305.7    275.4   0.011088624   0.00275   0.04683  -0.02195   0.00874
  33   36668.8    272.7   0.171961183   0.04310   0.13132   0.15017  -0.05743
  34   36801.9    271.7   0.172533130   0.04340   0.14168   0.15004  -0.02848
  35   37011.7    270.2   0.009859153   0.00249   0.00084   0.04295   0.02547
  36   37143.9    269.2   0.291393767   0.07397  -0.21502   0.16654  -0.00194
  37   37314.5    268.0   0.009544242   0.00243   0.03158  -0.03587  -0.01225
  38   37559.8    266.2   0.004475942   0.00115   0.01745  -0.01973   0.02134
  39   38158.9    262.1   0.168233808   0.04387   0.03297   0.20657  -0.01083
  40   38482.4    259.9   0.171083808   0.04500   0.19486  -0.08214  -0.01672
  41   38523.3    259.6   0.026184474   0.00689  -0.02378  -0.06132  -0.05069
  42   38602.8    259.0   0.068653826   0.01811   0.12223   0.04791   0.02965
  43   38724.7    258.2   0.107530425   0.02846   0.10999   0.12497   0.02731
  44   39038.7    256.2   0.027133517   0.00724  -0.07699  -0.02221   0.02861
  45   39128.6    255.6   0.006821110   0.00182   0.03050  -0.01065  -0.02793
  46   39348.6    254.1   0.045971284   0.01236   0.07219  -0.05171   0.06692
  47   39948.6    250.3   0.000262631   0.00007  -0.00817  -0.00127  -0.00182
  48   40236.4    248.5   0.015755738   0.00433  -0.06054   0.02306  -0.01165

-------------------------------------------------------------------
                             CD SPECTRUM
-------------------------------------------------------------------
State   Energy Wavelength       R         MX        MY        MZ   
        (cm-1)   (nm)       (1e40*cgs)   (au)      (au)      (au)  
-------------------------------------------------------------------
   0   17050.0    586.5    146.04655  -1.30503  -4.50148   3.73638
   1   20195.5    495.2    -271.02008   0.39816  -0.88794  -2.23134
   2   24546.7    407.4    -153.42580   0.14875   0.34142   1.16370
   3   25713.4    388.9    152.02931   0.50217   0.42878  -0.20148
   4   26220.8    381.4    -45.01883   0.30366   0.34950  -1.44466
   5   27482.8    363.9      6.77178   0.35464   0.22224  -1.55588
   6   27631.4    361.9    -93.00622   0.94289   0.66219  -3.81277
   7   28224.5    354.3     33.69590   0.33058   1.46232  -1.15433
   8   28756.7    347.7     86.13224   0.33022   1.58110  -1.21496
   9   28884.6    346.2     48.56862  -0.04782  -1.07402   0.00460
  10   30068.2    332.6      9.44932  -0.56437  -0.73517   1.35050
  11   30346.7    329.5    -10.69706   0.05625   0.39426  -0.51565
  12   30483.8    328.0    -32.76862  -0.48599   1.82786   1.05830
  13   31043.6    322.1    -37.65156   0.39167  -0.12611   0.36497
  14   31643.4    316.0     68.45506  -1.02763  -0.93039  -1.07996
  15   32012.2    312.4      3.90493   0.36518  -0.61079  -0.83144
  16   32306.5    309.5    -82.03772   0.40476  -2.30660  -0.25810
  17   32355.3    309.1     12.46108  -0.36698   0.49717  -0.02794
  18   32707.0    305.7    -20.42732  -0.31748   0.04289   1.12311
  19   32907.8    303.9     -4.75432  -0.00006  -2.86452   1.06494
  20   33200.6    301.2      1.67203  -0.06423   0.69803  -0.09647
  21   33392.5    299.5      1.18075   0.00877   0.39128  -0.01019
  22   33774.9    296.1    -10.41406   0.32271  -0.29331  -0.44534
  23   33978.5    294.3    218.21883  -0.79503  -1.49408  -0.51788
  24   34360.9    291.0     40.41739   0.17652   0.51557  -0.25516
  25   34488.5    290.0     51.98565  -0.34995  -0.28722   0.22345
  26   34629.9    288.8     -2.22799  -0.23449   0.70601   0.23439
  27   34861.7    286.8    -25.82654  -0.24678   0.80814   0.25275
  28   35150.9    284.5      9.92609   0.00864   0.52050   0.18939
  29   35408.7    282.4     -3.99556  -0.03527   1.24214  -0.31149
  30   35638.6    280.6    -63.62014   0.44312   0.78454   1.34257
  31   35961.6    278.1     18.61629  -0.73826   0.19173   1.89978
  32   36305.7    275.4    -62.96201   0.67666  -0.79033  -0.39488
  33   36668.8    272.7    701.71730  -0.98501  -2.20889  -0.17258
  34   36801.9    271.7    672.41364  -2.17380  -0.70785   1.31781
  35   37011.7    270.2    -88.38506  -0.75025   1.38936   0.02066
  36   37143.9    269.2    -1377.45064  -1.02307   4.18082  -2.87018
  37   37314.5    268.0    -45.30676   0.05058  -1.18824   1.34799
  38   37559.8    266.2    -15.98399  -0.76937   0.65700   1.88594
  39   38158.9    262.1    -230.05517  -0.43464   0.66571  -3.20795
  40   38482.4    259.9    127.34412  -1.24818  -2.87068   5.30242
  41   38523.3    259.6    -28.15827   0.01512  -1.80082   1.85852
  42   38602.8    259.0    102.29325  -0.77131   0.04186   0.86737
  43   38724.7    258.2     87.78692  -0.70560   0.36522  -0.75138
  44   39038.7    256.2    207.39588   0.78390   1.65073  -1.73056
  45   39128.6    255.6      7.84988  -0.15620  -1.36711   0.72998
  46   39348.6    254.1     21.47886  -0.64779   1.29983   1.48231
  47   39948.6    250.3      0.37519   0.01979   0.02216   0.05400
  48   40236.4    248.5    -11.22967  -0.02642   0.17030  -0.20290

sTD-DFT done

Total run time:        7.927 sec

           *** ORCA-CIS/TD-DFT FINISHED WITHOUT ERROR ***

-------------------------   --------------------
FINAL SINGLE POINT ENERGY     -5356.317185468705
-------------------------   --------------------


                            ***************************************
                            *     ORCA property calculations      *
                            ***************************************

                                    ---------------------
                                    Active property flags
                                    ---------------------
   (+) Dipole Moment


------------------------------------------------------------------------------
                       ORCA ELECTRIC PROPERTIES CALCULATION
------------------------------------------------------------------------------

Dipole Moment Calculation                       ... on
Quadrupole Moment Calculation                   ... off
Polarizability Calculation                      ... off
GBWName                                         ... IT-4F.gbw
Electron density file                           ... IT-4F.scfp
The origin for moment calculation is the CENTER OF MASS  = (22.632129,  1.069005  3.653548)

-------------
DIPOLE MOMENT
-------------
                                X             Y             Z
Electronic contribution:      8.69594      38.47190     -17.71367
Nuclear contribution   :     -7.16721     -38.68926      17.53427
                        -----------------------------------------
Total Dipole Moment    :      1.52873      -0.21736      -0.17940
                        -----------------------------------------
Magnitude (a.u.)       :      1.55449
Magnitude (Debye)      :      3.95120



--------------------
Rotational spectrum 
--------------------
 
Rotational constants in cm-1:     0.001024     0.000216     0.000202 
Rotational constants in MHz :    30.707515     6.463105     6.068136 

 Dipole components along the rotational axes: 
x,y,z [a.u.] :    -1.208242     0.024594    -0.977748 
x,y,z [Debye]:    -3.071106     0.062512    -2.485239 

 

Timings for individual modules:

Sum of individual times         ...     6261.497 sec (= 104.358 min)
GTO integral calculation        ...        5.183 sec (=   0.086 min)   0.1 %
SCF iterations                  ...     6248.315 sec (= 104.139 min)  99.8 %
CIS module                      ...        7.999 sec (=   0.133 min)   0.1 %
                             ****ORCA TERMINATED NORMALLY****
TOTAL RUN TIME: 0 days 1 hours 44 minutes 22 seconds 227 msec
