
                                 *****************
                                 * O   R   C   A *
                                 *****************

           --- An Ab Initio, DFT and Semiempirical electronic structure package ---

                  #######################################################
                  #                        -***-                        #
                  #          Department of theory and spectroscopy      #
                  #               Directorship: Frank Neese             #
                  #        Max Planck Institute fuer Kohlenforschung    #
                  #                Kaiser Wilhelm Platz 1               #
                  #                 D-45470 Muelheim/Ruhr               #
                  #                      Germany                        #
                  #                                                     #
                  #                  All rights reserved                #
                  #                        -***-                        #
                  #######################################################


                         Program Version 4.2.0 -  RELEASE  -


 With contributions from (in alphabetic order):
   Daniel Aravena         : Magnetic Suceptibility
   Michael Atanasov       : Ab Initio Ligand Field Theory (pilot matlab implementation)
   Alexander A. Auer      : GIAO ZORA, VPT2
   Ute Becker             : Parallelization
   Giovanni Bistoni       : ED, misc. LED, open-shell LED, HFLED
   Martin Brehm           : Molecular dynamics
   Dmytro Bykov           : SCF Hessian
   Vijay G. Chilkuri      : MRCI spin determinant printing, contributions to CSF-ICE
   Dipayan Datta          : RHF DLPNO-CCSD density
   Achintya Kumar Dutta   : EOM-CC, STEOM-CC
   Dmitry Ganyushin       : Spin-Orbit,Spin-Spin,Magnetic field MRCI
   Miquel Garcia          : C-PCM Hessian, Gaussian charge scheme
   Yang Guo               : DLPNO-NEVPT2, CIM, IAO-localization
   Andreas Hansen         : Spin unrestricted coupled pair/coupled cluster methods
   Benjamin Helmich-Paris : CASSCF linear response (MC-RPA)
   Lee Huntington         : MR-EOM, pCC
   Robert Izsak           : Overlap fitted RIJCOSX, COSX-SCS-MP3, EOM
   Christian Kollmar      : KDIIS, OOCD, Brueckner-CCSD(T), CCSD density
   Simone Kossmann        : Meta GGA functionals, TD-DFT gradient, OOMP2, MP2 Hessian
   Martin Krupicka        : AUTO-CI
   Lucas Lang             : DCDCAS
   Dagmar Lenk            : GEPOL surface, SMD
   Dimitrios Liakos       : Extrapolation schemes; Compound Job, initial MDCI parallelization
   Dimitrios Manganas     : Further ROCIS development; embedding schemes
   Dimitrios Pantazis     : SARC Basis sets
   Taras Petrenko         : DFT Hessian,TD-DFT gradient, ASA, ECA, R-Raman, ABS, FL, XAS/XES, NRVS
   Peter Pinski           : DLPNO-MP2, DLPNO-MP2 Gradient
   Christoph Reimann      : Effective Core Potentials
   Marius Retegan         : Local ZFS, SOC
   Christoph Riplinger    : Optimizer, TS searches, QM/MM, DLPNO-CCSD(T), (RO)-DLPNO pert. Triples
   Tobias Risthaus        : Range-separated hybrids, TD-DFT gradient, RPA, STAB
   Michael Roemelt        : Original ROCIS implementation
   Masaaki Saitow         : Open-shell DLPNO-CCSD energy and density
   Barbara Sandhoefer     : DKH picture change effects
   Avijit Sen             : IP-ROCIS
   Kantharuban Sivalingam : CASSCF convergence, NEVPT2, FIC-MRCI
   Bernardo de Souza      : ESD, SOC TD-DFT
   Georgi Stoychev        : AutoAux, RI-MP2 NMR
   Willem Van den Heuvel  : Paramagnetic NMR
   Boris Wezisla          : Elementary symmetry handling
   Frank Wennmohs         : Technical directorship


 We gratefully acknowledge several colleagues who have allowed us to
 interface, adapt or use parts of their codes:
   Stefan Grimme, W. Hujo, H. Kruse,             : VdW corrections, initial TS optimization,
                  C. Bannwarth                     DFT functionals, gCP, sTDA/sTD-DF
   Ed Valeev, F. Pavosevic, A. Kumar             : LibInt (2-el integral package), F12 methods
   Garnet Chan, S. Sharma, J. Yang, R. Olivares  : DMRG
   Ulf Ekstrom                                   : XCFun DFT Library
   Mihaly Kallay                                 : mrcc  (arbitrary order and MRCC methods)
   Andreas Klamt, Michael Diedenhofen            : otool_cosmo (COSMO solvation model)
   Jiri Pittner, Ondrej Demel                    : Mk-CCSD
   Frank Weinhold                                : gennbo (NPA and NBO analysis)
   Christopher J. Cramer and Donald G. Truhlar   : smd solvation model
   Lars Goerigk                                  : TD-DFT with DH, B97 family of functionals
   V. Asgeirsson, H. Jonsson                     : NEB implementation
   FAccTs GmbH                                   : IRC, NEB, NEB-TS, Multilevel, MM, QM/MM, CI optimization
   S Lehtola, MJT Oliveira, MAL Marques          : LibXC Library


 Your calculation uses the libint2 library for the computation of 2-el integrals
 For citations please refer to: http://libint.valeyev.net

 Your ORCA version has been built with support for libXC version: 4.2.3
 For citations please refer to: https://tddft.org/programs/libxc/

 This ORCA versions uses:
   CBLAS   interface :  Fast vector & matrix operations
   LAPACKE interface :  Fast linear algebra routines
   SCALAPACK package :  Parallel linear algebra routines


XCFun DFT library Copyright 2009-2010 Ulf Ekstrom and contributors.
See http://admol.org/xcfun for more information. This is free soft-
ware; see the source code for copying conditions. There is ABSOLUTELY
NO WARRANTY; not even for MERCHANTABILITY or FITNESS FOR A PARTICULAR
PURPOSE. For details see the documentation. Scientific users of this 
library should cite U. Ekstrom, L. Visscher, R. Bast, A. J. Thorvald-
sen and K. Ruud; J.Chem.Theor.Comp. 2010, DOI: 10.1021/ct100117s
XCFun Version 0.99 
----- Orbital basis set information -----
Your calculation utilizes the basis: def2-SVP
   F. Weigend and R. Ahlrichs, Phys. Chem. Chem. Phys. 7, 3297 (2005).

----- AuxJ basis set information -----
Your calculation utilizes the auxiliary basis: def2/J
   F. Weigend, Phys. Chem. Chem. Phys. 8, 1057 (2006).

================================================================================
                                        WARNINGS
                       Please study these warnings very carefully!
================================================================================

INFO   : Checking CIS options ...

WARNING: CIS/ROCIS methods need fully converged wavefunctions
  ===> : Setting SCFConvForced true
         You can overwrite this default with %scf ConvForced false 


INFO   : the flag for use of LIBINT has been found!

================================================================================
                                       INPUT FILE
================================================================================
NAME = ITCC.inp
|  1> # ORCA input file
|  2> # ITCC.out: Geometry 31
|  3> ! CAM-B3LYP def2-SVP def2/J RIJCOSX Grid4 TightSCF
|  4> %maxcore 5000
|  5> %tddft
|  6>     Mode sTDDFT
|  7>     Ethresh 5.0
|  8>     maxcore 5000
|  9> end
| 10> * xyz 0 1
| 11>    C        0.92865        -1.19299         0.56682
| 12>    O        1.15839        -2.34321         0.89326
| 13>    C       -0.37541        -0.50830         0.62713
| 14>    C       -0.28666         0.80272         0.18491
| 15>    C        1.10633         1.07905        -0.20259
| 16>    C        1.53047         2.30805        -0.67516
| 17>    C        0.60328         3.38194        -0.86136
| 18>    N       -0.16264         4.24204        -1.01681
| 19>    C        2.88186         2.61997        -1.01832
| 20>    N        3.97601         2.89168        -1.30206
| 21>    C        1.87396        -0.16016         0.01819
| 22>    C        3.21024        -0.32112        -0.28290
| 23>    C        4.11132        -1.41760        -0.17596
| 24>    C        3.97539        -2.72490         0.31015
| 25>    C        5.15626        -3.46145         0.15748
| 26>    C        6.22373        -2.74662        -0.44676
| 27>    S        5.75392        -1.12856        -0.81258
| 28>    C        7.37203        -3.54308        -0.63497
| 29>    C        8.71725        -3.40855        -1.33712
| 30>    C        9.69995        -2.49671        -0.58999
| 31>    C        9.45620        -2.06912         0.71972
| 32>    C       10.36408        -1.23924         1.38102
| 33>    C       11.54643        -0.81584         0.76063
| 34>    C       12.54142         0.04545         1.50051
| 35>    C       13.51000        -0.78314         2.35621
| 36>    C       11.79075        -1.25414        -0.54964
| 37>    C       10.88462        -2.07861        -1.21483
| 38>    C        8.42356        -2.90796        -2.75944
| 39>    C        8.06691        -3.78882        -3.78700
| 40>    C        7.63042        -3.30300        -5.02213
| 41>    C        7.53935        -1.92689        -5.27204
| 42>    C        6.97450        -1.38607        -6.56346
| 43>    C        5.50604        -0.95961        -6.40622
| 44>    C        7.91531        -1.05111        -4.24421
| 45>    C        8.34398        -1.52972        -3.00816
| 46>    C        9.21418        -4.86927        -1.26475
| 47>    C        8.29861        -5.68037        -0.53650
| 48>    C        7.17203        -4.84134        -0.18947
| 49>    S        5.59741        -5.13011         0.49864
| 50>    C        8.52720        -7.04932        -0.32870
| 51>    C        9.66572        -7.60922        -0.88566
| 52>    C       10.11681        -9.08402        -0.86641
| 53>    C       10.71216        -9.55300         0.47937
| 54>    C       10.74077       -10.91658         0.80702
| 55>    C       11.49038       -11.37645         1.88996
| 56>    C       12.25293       -10.49961         2.67343
| 57>    C       13.12107       -11.02380         3.79484
| 58>    C       12.35241       -11.79950         4.86972
| 59>    C       12.20034        -9.13503         2.35561
| 60>    C       11.44549        -8.66770         1.27884
| 61>    C        9.00230        -9.99467        -1.37826
| 62>    C        8.98924       -10.46449        -2.69669
| 63>    C        7.96249       -11.29604        -3.14716
| 64>    C        6.91399       -11.68285        -2.30208
| 65>    C        5.78843       -12.54637        -2.82057
| 66>    C        4.73345       -11.73330        -3.58304
| 67>    C        6.92562       -11.20208        -0.98449
| 68>    C        7.95228       -10.37481        -0.52917
| 69>    C       11.32519        -9.00278        -1.78253
| 70>    C       11.59274        -7.69600        -2.15730
| 71>    C       10.56550        -6.80696        -1.64971
| 72>    C       10.35587        -5.42857        -1.82194
| 73>    S       13.09873        -7.50857        -3.02186
| 74>    C       13.39747        -9.23660        -2.86857
| 75>    C       12.34757        -9.88094        -2.17583
| 76>    S       12.64217       -11.56693        -1.98182
| 77>    C       14.20701       -11.41408        -2.79065
| 78>    C       14.43802       -10.11016        -3.23664
| 79>    C       15.05177       -12.54732        -2.98713
| 80>    C       15.07250       -13.74339        -2.32146
| 81>    C       14.50151       -14.19097        -1.04818
| 82>    C       14.29240       -13.45821         0.10485
| 83>    C       13.73008       -14.06490         1.27031
| 84>    N       13.24858       -14.54822         2.21155
| 85>    C       14.68759       -12.09337         0.26147
| 86>    N       15.04152       -11.00291         0.44945
| 87>    C       14.41827       -15.65871        -1.12215
| 88>    C       15.09834       -16.09483        -2.25525
| 89>    C       15.62075       -14.95641        -3.04152
| 90>    O       16.27633       -14.96133        -4.06036
| 91>    S       -1.95704        -0.94085         1.12285
| 92>    C       -2.52435         0.65966         0.73606
| 93>    C       -1.53879         1.48649         0.24769
| 94>    S       15.11922       -17.80425        -2.39082
| 95>    C       14.20305       -17.94748        -0.91852
| 96>    C       13.90317       -16.73388        -0.34094
| 97>    H        3.69047         0.56065        -0.70951
| 98>    H        3.03544        -3.07813         0.72764
| 99>    H        8.54161        -2.37815         1.22790
|100>    H       10.13909        -0.89806         2.39535
|101>    H       11.99584         0.75328         2.14687
|102>    H       13.11340         0.65456         0.78080
|103>    H       12.95854        -1.40740         3.07712
|104>    H       14.19927        -0.13475         2.92095
|105>    H       14.11405        -1.45835         1.72851
|106>    H       12.69887        -0.92676        -1.06366
|107>    H       11.08490        -2.37342        -2.24646
|108>    H        8.11414        -4.86637        -3.61618
|109>    H        7.34475        -4.01025        -5.80560
|110>    H        7.06540        -2.14711        -7.35635
|111>    H        7.57278        -0.52050        -6.89362
|112>    H        4.88272        -1.81202        -6.09207
|113>    H        5.09636        -0.55814        -7.34704
|114>    H        5.40343        -0.18061        -5.63393
|115>    H        7.85883         0.02858        -4.40892
|116>    H        8.61259        -0.81941        -2.22532
|117>    H        7.80952        -7.65658         0.22445
|118>    H       10.19008       -11.63428         0.19799
|119>    H       11.50478       -12.44547         2.11228
|120>    H       13.66517       -10.18308         4.25530
|121>    H       13.89412       -11.68057         3.35892
|122>    H       11.59935       -11.16057         5.35890
|123>    H       13.03723       -12.17706         5.64509
|124>    H       11.83248       -12.66925         4.44008
|125>    H       12.78558        -8.42512         2.94650
|126>    H       11.45997        -7.60300         1.03483
|127>    H        9.79473       -10.18719        -3.37877
|128>    H        7.98386       -11.66415        -4.17648
|129>    H        5.31150       -13.07935        -1.98164
|130>    H        6.20390       -13.32127        -3.48687
|131>    H        4.24590       -10.99945        -2.92166
|132>    H        3.95254       -12.38606        -4.00425
|133>    H        5.19566       -11.17442        -4.41216
|134>    H        6.12535       -11.49380        -0.29840
|135>    H        7.95742       -10.04759         0.51211
|136>    H       11.05493        -4.82615        -2.40416
|137>    H       15.34659        -9.82658        -3.76786
|138>    H       15.71545       -12.50874        -3.86036
|139>    H       -3.57201         0.91344         0.89551
|140>    H       -1.71916         2.51580        -0.05239
|141>    H       13.92756       -18.93477        -0.54900
|142>    H       13.34501       -16.63082         0.58710
|143> *
|144> 
|145>                          ****END OF INPUT****
================================================================================

                       ****************************
                       * Single Point Calculation *
                       ****************************

---------------------------------
CARTESIAN COORDINATES (ANGSTROEM)
---------------------------------
  C      0.928650   -1.192990    0.566820
  O      1.158390   -2.343210    0.893260
  C     -0.375410   -0.508300    0.627130
  C     -0.286660    0.802720    0.184910
  C      1.106330    1.079050   -0.202590
  C      1.530470    2.308050   -0.675160
  C      0.603280    3.381940   -0.861360
  N     -0.162640    4.242040   -1.016810
  C      2.881860    2.619970   -1.018320
  N      3.976010    2.891680   -1.302060
  C      1.873960   -0.160160    0.018190
  C      3.210240   -0.321120   -0.282900
  C      4.111320   -1.417600   -0.175960
  C      3.975390   -2.724900    0.310150
  C      5.156260   -3.461450    0.157480
  C      6.223730   -2.746620   -0.446760
  S      5.753920   -1.128560   -0.812580
  C      7.372030   -3.543080   -0.634970
  C      8.717250   -3.408550   -1.337120
  C      9.699950   -2.496710   -0.589990
  C      9.456200   -2.069120    0.719720
  C     10.364080   -1.239240    1.381020
  C     11.546430   -0.815840    0.760630
  C     12.541420    0.045450    1.500510
  C     13.510000   -0.783140    2.356210
  C     11.790750   -1.254140   -0.549640
  C     10.884620   -2.078610   -1.214830
  C      8.423560   -2.907960   -2.759440
  C      8.066910   -3.788820   -3.787000
  C      7.630420   -3.303000   -5.022130
  C      7.539350   -1.926890   -5.272040
  C      6.974500   -1.386070   -6.563460
  C      5.506040   -0.959610   -6.406220
  C      7.915310   -1.051110   -4.244210
  C      8.343980   -1.529720   -3.008160
  C      9.214180   -4.869270   -1.264750
  C      8.298610   -5.680370   -0.536500
  C      7.172030   -4.841340   -0.189470
  S      5.597410   -5.130110    0.498640
  C      8.527200   -7.049320   -0.328700
  C      9.665720   -7.609220   -0.885660
  C     10.116810   -9.084020   -0.866410
  C     10.712160   -9.553000    0.479370
  C     10.740770  -10.916580    0.807020
  C     11.490380  -11.376450    1.889960
  C     12.252930  -10.499610    2.673430
  C     13.121070  -11.023800    3.794840
  C     12.352410  -11.799500    4.869720
  C     12.200340   -9.135030    2.355610
  C     11.445490   -8.667700    1.278840
  C      9.002300   -9.994670   -1.378260
  C      8.989240  -10.464490   -2.696690
  C      7.962490  -11.296040   -3.147160
  C      6.913990  -11.682850   -2.302080
  C      5.788430  -12.546370   -2.820570
  C      4.733450  -11.733300   -3.583040
  C      6.925620  -11.202080   -0.984490
  C      7.952280  -10.374810   -0.529170
  C     11.325190   -9.002780   -1.782530
  C     11.592740   -7.696000   -2.157300
  C     10.565500   -6.806960   -1.649710
  C     10.355870   -5.428570   -1.821940
  S     13.098730   -7.508570   -3.021860
  C     13.397470   -9.236600   -2.868570
  C     12.347570   -9.880940   -2.175830
  S     12.642170  -11.566930   -1.981820
  C     14.207010  -11.414080   -2.790650
  C     14.438020  -10.110160   -3.236640
  C     15.051770  -12.547320   -2.987130
  C     15.072500  -13.743390   -2.321460
  C     14.501510  -14.190970   -1.048180
  C     14.292400  -13.458210    0.104850
  C     13.730080  -14.064900    1.270310
  N     13.248580  -14.548220    2.211550
  C     14.687590  -12.093370    0.261470
  N     15.041520  -11.002910    0.449450
  C     14.418270  -15.658710   -1.122150
  C     15.098340  -16.094830   -2.255250
  C     15.620750  -14.956410   -3.041520
  O     16.276330  -14.961330   -4.060360
  S     -1.957040   -0.940850    1.122850
  C     -2.524350    0.659660    0.736060
  C     -1.538790    1.486490    0.247690
  S     15.119220  -17.804250   -2.390820
  C     14.203050  -17.947480   -0.918520
  C     13.903170  -16.733880   -0.340940
  H      3.690470    0.560650   -0.709510
  H      3.035440   -3.078130    0.727640
  H      8.541610   -2.378150    1.227900
  H     10.139090   -0.898060    2.395350
  H     11.995840    0.753280    2.146870
  H     13.113400    0.654560    0.780800
  H     12.958540   -1.407400    3.077120
  H     14.199270   -0.134750    2.920950
  H     14.114050   -1.458350    1.728510
  H     12.698870   -0.926760   -1.063660
  H     11.084900   -2.373420   -2.246460
  H      8.114140   -4.866370   -3.616180
  H      7.344750   -4.010250   -5.805600
  H      7.065400   -2.147110   -7.356350
  H      7.572780   -0.520500   -6.893620
  H      4.882720   -1.812020   -6.092070
  H      5.096360   -0.558140   -7.347040
  H      5.403430   -0.180610   -5.633930
  H      7.858830    0.028580   -4.408920
  H      8.612590   -0.819410   -2.225320
  H      7.809520   -7.656580    0.224450
  H     10.190080  -11.634280    0.197990
  H     11.504780  -12.445470    2.112280
  H     13.665170  -10.183080    4.255300
  H     13.894120  -11.680570    3.358920
  H     11.599350  -11.160570    5.358900
  H     13.037230  -12.177060    5.645090
  H     11.832480  -12.669250    4.440080
  H     12.785580   -8.425120    2.946500
  H     11.459970   -7.603000    1.034830
  H      9.794730  -10.187190   -3.378770
  H      7.983860  -11.664150   -4.176480
  H      5.311500  -13.079350   -1.981640
  H      6.203900  -13.321270   -3.486870
  H      4.245900  -10.999450   -2.921660
  H      3.952540  -12.386060   -4.004250
  H      5.195660  -11.174420   -4.412160
  H      6.125350  -11.493800   -0.298400
  H      7.957420  -10.047590    0.512110
  H     11.054930   -4.826150   -2.404160
  H     15.346590   -9.826580   -3.767860
  H     15.715450  -12.508740   -3.860360
  H     -3.572010    0.913440    0.895510
  H     -1.719160    2.515800   -0.052390
  H     13.927560  -18.934770   -0.549000
  H     13.345010  -16.630820    0.587100

----------------------------
CARTESIAN COORDINATES (A.U.)
----------------------------
  NO LB      ZA    FRAG     MASS         X           Y           Z
   0 C     6.0000    0    12.011    1.754894   -2.254424    1.071135
   1 O     8.0000    0    15.999    2.189040   -4.428025    1.688017
   2 C     6.0000    0    12.011   -0.709422   -0.960548    1.185104
   3 C     6.0000    0    12.011   -0.541709    1.516921    0.349429
   4 C     6.0000    0    12.011    2.090661    2.039109   -0.382840
   5 C     6.0000    0    12.011    2.892169    4.361582   -1.275867
   6 C     6.0000    0    12.011    1.140034    6.390940   -1.627735
   7 N     7.0000    0    14.007   -0.307345    8.016294   -1.921492
   8 C     6.0000    0    12.011    5.445926    4.951026   -1.924346
   9 N     7.0000    0    14.007    7.513570    5.464483   -2.460537
  10 C     6.0000    0    12.011    3.541271   -0.302659    0.034374
  11 C     6.0000    0    12.011    6.066474   -0.606829   -0.534604
  12 C     6.0000    0    12.011    7.769269   -2.678876   -0.332516
  13 C     6.0000    0    12.011    7.512398   -5.149315    0.586099
  14 C     6.0000    0    12.011    9.743919   -6.541193    0.297594
  15 C     6.0000    0    12.011   11.761145   -5.190360   -0.844254
  16 S    16.0000    0    32.060   10.873333   -2.132669   -1.535554
  17 C     6.0000    0    12.011   13.931118   -6.695451   -1.199919
  18 C     6.0000    0    12.011   16.473215   -6.441226   -2.526791
  19 C     6.0000    0    12.011   18.330249   -4.718098   -1.114920
  20 C     6.0000    0    12.011   17.869628   -3.910070    1.360074
  21 C     6.0000    0    12.011   19.585273   -2.341824    2.609750
  22 C     6.0000    0    12.011   21.819591   -1.541714    1.437382
  23 C     6.0000    0    12.011   23.699849    0.085888    2.835553
  24 C     6.0000    0    12.011   25.530200   -1.479920    4.452592
  25 C     6.0000    0    12.011   22.281288   -2.369981   -1.038669
  26 C     6.0000    0    12.011   20.568951   -3.928004   -2.295696
  27 C     6.0000    0    12.011   15.918221   -5.495248   -5.214586
  28 C     6.0000    0    12.011   15.244251   -7.159832   -7.156393
  29 C     6.0000    0    12.011   14.419404   -6.241765   -9.490450
  30 C     6.0000    0    12.011   14.247307   -3.641294   -9.962712
  31 C     6.0000    0    12.011   13.179895   -2.619293  -12.403142
  32 C     6.0000    0    12.011   10.404908   -1.813400  -12.106001
  33 C     6.0000    0    12.011   14.957768   -1.986310   -8.020395
  34 C     6.0000    0    12.011   15.767837   -2.890752   -5.684599
  35 C     6.0000    0    12.011   17.412277   -9.201587   -2.390031
  36 C     6.0000    0    12.011   15.682100  -10.734344   -1.013838
  37 C     6.0000    0    12.011   13.553173   -9.148807   -0.358046
  38 S    16.0000    0    32.060   10.577572   -9.694503    0.942293
  39 C     6.0000    0    12.011   16.114073  -13.321284   -0.621153
  40 C     6.0000    0    12.011   18.265564  -14.379342   -1.673655
  41 C     6.0000    0    12.011   19.118000  -17.166310   -1.637278
  42 C     6.0000    0    12.011   20.243049  -18.052554    0.905878
  43 C     6.0000    0    12.011   20.297114  -20.629347    1.525047
  44 C     6.0000    0    12.011   21.713671  -21.498375    3.571507
  45 C     6.0000    0    12.011   23.154682  -19.841387    5.052051
  46 C     6.0000    0    12.011   24.795229  -20.831963    7.171208
  47 C     6.0000    0    12.011   23.342672  -22.297824    9.202437
  48 C     6.0000    0    12.011   23.055301  -17.262705    4.451458
  49 C     6.0000    0    12.011   21.628842  -16.379579    2.416657
  50 C     6.0000    0    12.011   17.011882  -18.887189   -2.604534
  51 C     6.0000    0    12.011   16.987202  -19.775020   -5.096006
  52 C     6.0000    0    12.011   15.046925  -21.346422   -5.947270
  53 C     6.0000    0    12.011   13.065548  -22.077387   -4.350301
  54 C     6.0000    0    12.011   10.938547  -23.709203   -5.330105
  55 C     6.0000    0    12.011    8.944924  -22.172724   -6.770964
  56 C     6.0000    0    12.011   13.087525  -21.168863   -1.860416
  57 C     6.0000    0    12.011   15.027631  -19.605550   -0.999986
  58 C     6.0000    0    12.011   21.401508  -17.012789   -3.368494
  59 C     6.0000    0    12.011   21.907104  -14.543332   -4.076706
  60 C     6.0000    0    12.011   19.965901  -12.863290   -3.117500
  61 C     6.0000    0    12.011   19.569758  -10.258511   -3.442968
  62 S    16.0000    0    32.060   24.753012  -14.189141   -5.710488
  63 C     6.0000    0    12.011   25.317549  -17.454644   -5.420812
  64 C     6.0000    0    12.011   23.333526  -18.672271   -4.111723
  65 S    16.0000    0    32.060   23.890239  -21.858330   -3.745097
  66 C     6.0000    0    12.011   26.847358  -21.569485   -5.273564
  67 C     6.0000    0    12.011   27.283904  -19.105434   -6.116363
  68 C     6.0000    0    12.011   28.443723  -23.710999   -5.644858
  69 C     6.0000    0    12.011   28.482897  -25.971243   -4.386924
  70 C     6.0000    0    12.011   27.403882  -26.817047   -1.980773
  71 C     6.0000    0    12.011   27.008722  -25.432331    0.198138
  72 C     6.0000    0    12.011   25.946091  -26.578809    2.400538
  73 N     7.0000    0    14.007   25.036188  -27.492152    4.179224
  74 C     6.0000    0    12.011   27.755523  -22.853157    0.494107
  75 N     7.0000    0    14.007   28.424353  -20.792487    0.849337
  76 C     6.0000    0    12.011   27.246582  -29.590674   -2.120556
  77 C     6.0000    0    12.011   28.531728  -30.414821   -4.261805
  78 C     6.0000    0    12.011   29.518940  -28.263519   -5.747640
  79 O     8.0000    0    15.999   30.757806  -28.272816   -7.672968
  80 S    16.0000    0    32.060   -3.698270   -1.777949    2.121879
  81 C     6.0000    0    12.011   -4.770330    1.246577    1.390952
  82 C     6.0000    0    12.011   -2.907892    2.809059    0.468066
  83 S    16.0000    0    32.060   28.571185  -33.645157   -4.517995
  84 C     6.0000    0    12.011   26.839875  -33.915822   -1.735751
  85 C     6.0000    0    12.011   26.273184  -31.622450   -0.644283
  86 H     1.0000    0     1.008    6.973978    1.059475   -1.340780
  87 H     1.0000    0     1.008    5.736150   -5.816823    1.375040
  88 H     1.0000    0     1.008   16.141304   -4.494052    2.320395
  89 H     1.0000    0     1.008   19.160103   -1.697087    4.526555
  90 H     1.0000    0     1.008   22.668852    1.423493    4.056996
  91 H     1.0000    0     1.008   24.780735    1.236939    1.475498
  92 H     1.0000    0     1.008   24.488092   -2.659601    5.814914
  93 H     1.0000    0     1.008   26.832732   -0.254641    5.519796
  94 H     1.0000    0     1.008   26.671689   -2.755882    3.266411
  95 H     1.0000    0     1.008   23.997387   -1.751323   -2.010026
  96 H     1.0000    0     1.008   20.947425   -4.485114   -4.245194
  97 H     1.0000    0     1.008   15.333502   -9.196107   -6.833590
  98 H     1.0000    0     1.008   13.879566   -7.578274  -10.970994
  99 H     1.0000    0     1.008   13.351671   -4.057450  -13.901487
 100 H     1.0000    0     1.008   14.310480   -0.983602  -13.027054
 101 H     1.0000    0     1.008    9.227004   -3.424222  -11.512344
 102 H     1.0000    0     1.008    9.630725   -1.054732  -13.883893
 103 H     1.0000    0     1.008   10.211003   -0.341303  -10.646585
 104 H     1.0000    0     1.008   14.851036    0.054008   -8.331651
 105 H     1.0000    0     1.008   16.275436   -1.548460   -4.205245
 106 H     1.0000    0     1.008   14.757854  -14.468839    0.424149
 107 H     1.0000    0     1.008   19.256460  -21.985603    0.374147
 108 H     1.0000    0     1.008   21.740883  -23.518530    3.991631
 109 H     1.0000    0     1.008   25.823429  -19.243232    8.041352
 110 H     1.0000    0     1.008   26.256082  -22.073078    6.347439
 111 H     1.0000    0     1.008   21.919595  -21.090421   10.126853
 112 H     1.0000    0     1.008   24.636794  -23.011309   10.667674
 113 H     1.0000    0     1.008   22.360147  -23.941413    8.390535
 114 H     1.0000    0     1.008   24.161245  -15.921169    5.568078
 115 H     1.0000    0     1.008   21.656205  -14.367588    1.955545
 116 H     1.0000    0     1.008   18.509357  -19.250999   -6.384950
 117 H     1.0000    0     1.008   15.087309  -22.042049   -7.892403
 118 H     1.0000    0     1.008   10.037280  -24.716390   -3.744757
 119 H     1.0000    0     1.008   11.723672  -25.173552   -6.589229
 120 H     1.0000    0     1.008    8.023588  -20.785948   -5.521137
 121 H     1.0000    0     1.008    7.469218  -23.406261   -7.566936
 122 H     1.0000    0     1.008    9.818374  -21.116594   -8.337774
 123 H     1.0000    0     1.008   11.575234  -21.720134   -0.563894
 124 H     1.0000    0     1.008   15.037345  -18.987193    0.967748
 125 H     1.0000    0     1.008   20.890790   -9.120102   -4.543204
 126 H     1.0000    0     1.008   29.000852  -18.569545   -7.120224
 127 H     1.0000    0     1.008   29.697897  -23.638093   -7.295023
 128 H     1.0000    0     1.008   -6.750121    1.726151    1.692269
 129 H     1.0000    0     1.008   -3.248742    4.754173   -0.099003
 130 H     1.0000    0     1.008   26.319274  -35.781530   -1.037460
 131 H     1.0000    0     1.008   25.218414  -31.427695    1.109458

--------------------------------
INTERNAL COORDINATES (ANGSTROEM)
--------------------------------
 C      0   0   0     0.000000000000     0.00000000     0.00000000
 O      1   0   0     1.217517798474     0.00000000     0.00000000
 C      1   2   0     1.474113352426   126.49553574     0.00000000
 C      3   1   2     1.386437352101   111.68675144   179.73778079
 C      4   3   1     1.472051513705   108.78659285   359.91872182
 C      5   4   3     1.383350333249   123.15010646   180.69167116
 C      6   5   4     1.430940763344   120.83235583   357.61963501
 N      7   6   5     1.162140335287   179.10466192   327.52096674
 C      6   5   4     1.428743435365   124.47257505   177.89068056
 N      9   6   5     1.162539863489   179.05100201   180.78398068
 C      5   4   3     1.474327320984   107.18747558     0.56414753
 C     11   5   4     1.379205404608   124.74059279   177.05223632
 C     12  11   5     1.423253217246   133.38641305   181.48581482
 C     13  12  11     1.401361190771   133.10571088   357.91754757
 C     14  13  12     1.400095706836   111.78500708   177.83243121
 C     15  14  13     1.419711276070   114.56291630   359.93818867
 S     16  15  14     1.724141488423   110.97407253     0.67039584
 C     16  15  14     1.410093764861   112.62590381   182.65450195
 C     18  16  15     1.523394168231   136.94833032   171.66319758
 C     19  18  16     1.534716492548   113.17314334    74.59751832
 C     20  19  18     1.399138147111   121.71722553    11.91219198
 C     21  20  19     1.396518742731   120.77172781   180.00470888
 C     22  21  20     1.400750811030   121.24068326   359.63682181
 C     23  22  21     1.509717847348   120.77621059   181.95173156
 C     24  23  22     1.535229980980   112.39880243    84.76742752
 C     23  22  21     1.403070427776   117.78550007   359.95086102
 C     26  23  22     1.394022989014   121.14325448     0.28484189
 C     19  18  16     1.536176534972   106.66081659   310.60777560
 C     28  19  18     1.399640352269   121.55916897   276.48951697
 C     29  28  19     1.397172397881   120.64952865   171.35069407
 C     30  29  28     1.401580352709   121.28686086     0.16681481
 C     31  30  29     1.509737530599   121.90708715   184.57507602
 C     32  31  30     1.537194626845   111.67186914    98.82510155
 C     31  30  29     1.401702906789   117.72759354     0.67447725
 C     34  31  30     1.393070387131   121.23152218   358.95535477
 C     19  18  16     1.544629327768   100.31037270   191.09151873
 C     36  19  18     1.423551789504   110.84708057   356.50822510
 C     18  16  15     1.387064986798   111.61552882     0.44907421
 S     38  18  16     1.742501543586   114.34580206   358.90588318
 C     37  36  19     1.403373909762   121.78839921   180.12388544
 C     40  37  36     1.385611865567   117.93630780   358.40298688
 C     41  40  37     1.542364350794   128.43858881   183.11347369
 C     42  41  40     1.544508877054   114.45333196   283.64164329
 C     43  42  41     1.402684380394   120.43583225   158.19854381
 C     44  43  42     1.395046455356   120.84673351   167.93046439
 C     45  44  43     1.401483545747   121.33786720   359.07603152
 C     46  45  44     1.511953241274   120.67269221   183.48015094
 C     47  46  45     1.532290997167   114.06452229   301.08970437
 C     46  45  44     1.402089097347   117.50247025     2.04162450
 C     49  46  45     1.395574965489   121.40533728   358.37926258
 C     42  41  40     1.527549143268   110.63838046    52.81355491
 C     51  42  41     1.399699632385   121.50239133    98.81632124
 C     52  51  42     1.395927715141   120.71575690   180.00074534
 C     53  52  51     1.401118992984   121.34831738     0.22182424
 C     54  53  52     1.510425100460   120.55991829   177.99246404
 C     55  54  53     1.534739758461   112.32813976   279.00421016
 C     54  53  52     1.402611299648   117.75892181     0.23612647
 C     57  54  53     1.394891648444   121.06577235   359.53565906
 C     42  41  40     1.518571044239   100.02292984   173.59880116
 C     59  42  41     1.385535825520   111.54882451     4.82244048
 C     41  40  37     1.427234233929   120.40163814   359.71890670
 C     36  19  18     1.388068169147   128.81805445   174.91609508
 S     60  59  42     1.746596655957   113.67843943   171.74236202
 C     63  60  59     1.760349707473    89.87861827   359.48697433
 C     59  42  41     1.403962513745   135.64319129   172.86775334
 S     65  59  42     1.722495666235   134.84768199     9.78796561
 C     66  65  59     1.768132720414    90.87251077   183.16445856
 C     67  66  65     1.397311728499   111.90030447   357.35776270
 C     67  66  65     1.427044759494   121.21405314   180.22147100
 C     69  67  66     1.368988578002   129.48129919   338.47654962
 C     70  69  67     1.465469001685   133.11149208   344.23909400
 C     71  70  69     1.382079010260   128.45387924   328.00630001
 C     72  71  70     1.429186324487   120.98344572   180.58227492
 N     73  72  71     1.162485789160   178.66831279   261.11588666
 C     72  71  70     1.429508022398   123.76441638   356.42057209
 N     75  72  71     1.161768452360   176.47453498   231.51505086
 C     71  70  69     1.471958275937   106.43418076   158.73920711
 C     77  71  70     1.391621884457   109.01243394     9.53030188
 C     78  77  71     1.478895810191   111.36324064   357.29138112
 O     79  78  77     1.211546238655   129.42835412   178.40805873
 S      3   1   2     1.713006502556   135.34479590     0.40321643
 C     81   3   1     1.741573828553    90.25417137   179.30330637
 C     82  81   3     1.376038378607   113.43580673     0.00000000
 S     78  77  71     1.714914556385   112.50123788   177.36557698
 C     84  78  77     1.739985514825    90.50137383     0.18528734
 C     85  84  78     1.377080836698   113.39171017   359.50919815
 H     12  11   5     1.090933214225   114.67939985     0.22356995
 H     14  13  12     1.087462797295   121.33438205   358.95925458
 H     21  20  19     1.090972649245   119.70358081   359.35227394
 H     22  21  20     1.093567392253   119.39780203   178.47183939
 H     24  23  22     1.102933404563   109.10628517   323.26167682
 H     24  23  22     1.102795809114   109.70008250   206.90894218
 H     25  24  23     1.101598795978   110.77990942   302.75493317
 H     25  24  23     1.102013608174   111.26536910   182.43626059
 H     25  24  23     1.102176136831   111.03728685    62.06997152
 H     26  23  22     1.093652668446   119.34037033   179.08832390
 H     27  26  23     1.091460247283   119.43856410   177.78044237
 H     29  28  19     1.092027539854   119.67914025   352.38974536
 H     30  29  28     1.093451028762   119.34879069   180.78946503
 H     32  31  30     1.102777966637   109.69239012   336.47507231
 H     32  31  30     1.102794635868   109.52881167   220.09090096
 H     33  32  31     1.101735382476   110.79261775   300.46473120
 H     33  32  31     1.101888440678   111.64873836   179.58506741
 H     33  32  31     1.101726670368   110.90600177    59.29711488
 H     34  31  30     1.093640649665   119.50762457   179.80183453
 H     35  34  31     1.090655809043   119.26820821   181.04491933
 H     40  37  36     1.090781468719   120.72928793   180.55003935
 H     44  43  42     1.090536705939   119.93506078   349.31392021
 H     45  44  43     1.091987775939   119.19876213   180.86638122
 H     47  46  45     1.102215196774   109.19879313   177.67986955
 H     47  46  45     1.104073992901   108.38651924    62.81908629
 H     48  47  46     1.102101620042   111.13992641   298.86910514
 H     48  47  46     1.101239584695   110.82524015   178.60360093
 H     48  47  46     1.100628364617   111.29584402    59.25667919
 H     49  46  45     1.093448241939   119.29470829   180.13354483
 H     50  49  46     1.092399487596   119.44243283   182.50121457
 H     52  51  42     1.091303146014   119.77181693     0.62185976
 H     53  52  51     1.093371534018   119.33915471   181.06282678
 H     55  54  53     1.102421629958   109.72812874   156.72175712
 H     55  54  53     1.103195821647   109.16309797    40.43586496
 H     56  55  54     1.101664345161   111.03003712   297.10997525
 H     56  55  54     1.101514371127   111.30636155   176.63993494
 H     56  55  54     1.101555678529   110.75001791    56.37874469
 H     57  54  53     1.093733111595   119.45751036   180.54090498
 H     58  57  54     1.091495939708   119.51590914   182.43097984
 H     62  36  19     1.091134670148   121.24404480     0.17245379
 H     68  67  66     1.090005389757   122.42083424   180.65051776
 H     69  67  66     1.097492684121   116.07890389   151.39222368
 H     82  81   3     1.089688059263   119.65079839   180.27266438
 H     83  82  81     1.087226020384   123.23016559   179.43126193
 H     85  84  78     1.089578503184   119.64900039   179.46050754
 H     86  85  84     1.087852099690   123.57511938   180.55181303

---------------------------
INTERNAL COORDINATES (A.U.)
---------------------------
 C      0   0   0     0.000000000000     0.00000000     0.00000000
 O      1   0   0     2.300775202290     0.00000000     0.00000000
 C      1   2   0     2.785670526441   126.49553574     0.00000000
 C      3   1   2     2.619986897309   111.68675144   179.73778079
 C      4   3   1     2.781774215926   108.78659285   359.91872182
 C      5   4   3     2.614153277109   123.15010646   180.69167116
 C      6   5   4     2.704086156585   120.83235583   357.61963501
 N      7   6   5     2.196126962875   179.10466192   327.52096674
 C      6   5   4     2.699933808479   124.47257505   177.89068056
 N      9   6   5     2.196881961760   179.05100201   180.78398068
 C      5   4   3     2.786074868418   107.18747558     0.56414753
 C     11   5   4     2.606320497133   124.74059279   177.05223632
 C     12  11   5     2.689558799817   133.38641305   181.48581482
 C     13  12  11     2.648188865264   133.10571088   357.91754757
 C     14  13  12     2.645797447199   111.78500708   177.83243121
 C     15  14  13     2.682865501012   114.56291630   359.93818867
 S     16  15  14     3.258155229250   110.97407253     0.67039584
 C     16  15  14     2.664691038737   112.62590381   182.65450195
 C     18  16  15     2.878797771969   136.94833032   171.66319758
 C     19  18  16     2.900193864129   113.17314334    74.59751832
 C     20  19  18     2.643987921561   121.71722553    11.91219198
 C     21  20  19     2.639037964650   120.77172781   180.00470888
 C     22  21  20     2.647035414714   121.24068326   359.63682181
 C     23  22  21     2.852953270980   120.77621059   181.95173156
 C     24  23  22     2.901164216637   112.39880243    84.76742752
 C     23  22  21     2.651418855101   117.78550007   359.95086102
 C     26  23  22     2.634321673627   121.14325448     0.28484189
 C     19  18  16     2.902952944454   106.66081659   310.60777560
 C     28  19  18     2.644936951774   121.55916897   276.48951697
 C     29  28  19     2.640273193869   120.64952865   171.35069407
 C     30  29  28     2.648603021305   121.28686086     0.16681481
 C     31  30  29     2.852990466935   121.90708715   184.57507602
 C     32  31  30     2.904876859272   111.67186914    98.82510155
 C     31  30  29     2.648834614952   117.72759354     0.67447725
 C     34  31  30     2.632521516952   121.23152218   358.95535477
 C     19  18  16     2.918926407904   100.31037270   191.09151873
 C     36  19  18     2.690123019616   110.84708057   356.50822510
 C     18  16  15     2.621172954999   111.61552882     0.44907421
 S     38  18  16     3.292850705313   114.34580206   358.90588318
 C     37  36  19     2.651992352940   121.78839921   180.12388544
 C     40  37  36     2.618426953833   117.93630780   358.40298688
 C     41  40  37     2.914646221724   128.43858881   183.11347369
 C     42  41  40     2.918698789043   114.45333196   283.64164329
 C     43  42  41     2.650689331273   120.43583225   158.19854381
 C     44  43  42     2.636255744720   120.84673351   167.93046439
 C     45  44  43     2.648420082659   121.33786720   359.07603152
 C     46  45  44     2.857177553303   120.67269221   183.48015094
 C     47  46  45     2.895610342119   114.06452229   301.08970437
 C     46  45  44     2.649564409343   117.50247025     2.04162450
 C     49  46  45     2.637254484131   121.40533728   358.37926258
 C     42  41  40     2.886649536883   110.63838046    52.81355491
 C     51  42  41     2.645048974959   121.50239133    98.81632124
 C     52  51  42     2.637921084368   120.71575690   180.00074534
 C     53  52  51     2.647731177775   121.34831738     0.22182424
 C     54  53  52     2.854289785670   120.55991829   177.99246404
 C     55  54  53     2.900237830331   112.32813976   279.00421016
 C     54  53  52     2.650551228678   117.75892181     0.23612647
 C     57  54  53     2.635963202054   121.06577235   359.53565906
 C     42  41  40     2.869683388514   100.02292984   173.59880116
 C     59  42  41     2.618283258970   111.54882451     4.82244048
 C     41  40  37     2.697081831083   120.40163814   359.71890670
 C     36  19  18     2.623068694902   128.81805445   174.91609508
 S     60  59  42     3.300589346181   113.67843943   171.74236202
 C     63  60  59     3.326578847052    89.87861827   359.48697433
 C     59  42  41     2.653104653269   135.64319129   172.86775334
 S     65  59  42     3.255045076051   134.84768199     9.78796561
 C     66  65  59     3.341286610008    90.87251077   183.16445856
 C     67  66  65     2.640536490579   111.90030447   357.35776270
 C     67  66  65     2.696723776292   121.21405314   180.22147100
 C     69  67  66     2.587013492890   129.48129919   338.47654962
 C     70  69  67     2.769335070936   133.11149208   344.23909400
 C     71  70  69     2.611750824831   128.45387924   328.00630001
 C     72  71  70     2.700770747626   120.98344572   180.58227492
 N     73  72  71     2.196779776089   178.66831279   261.11588666
 C     72  71  70     2.701378668575   123.76441638   356.42057209
 N     75  72  71     2.195424205991   176.47453498   231.51505086
 C     71  70  69     2.781598022080   106.43418076   158.73920711
 C     77  71  70     2.629784243595   109.01243394     9.53030188
 C     78  77  71     2.794708061864   111.36324064   357.29138112
 O     79  78  77     2.289490589641   129.42835412   178.40805873
 S      3   1   2     3.237113155458   135.34479590     0.40321643
 C     81   3   1     3.291097577969    90.25417137   179.30330637
 C     82  81   3     2.600335685333   113.43580673     0.00000000
 S     78  77  71     3.240718854642   112.50123788   177.36557698
 C     84  78  77     3.288096100009    90.50137383     0.18528734
 C     85  84  78     2.602305645630   113.39171017   359.50919815
 H     12  11   5     2.061565005284   114.67939985     0.22356995
 H     14  13  12     2.055006867715   121.33438205   358.95925458
 H     21  20  19     2.061639526671   119.70358081   359.35227394
 H     22  21  20     2.066542880345   119.39780203   178.47183939
 H     24  23  22     2.084242078577   109.10628517   323.26167682
 H     24  23  22     2.083982060862   109.70008250   206.90894218
 H     25  24  23     2.081720033856   110.77990942   302.75493317
 H     25  24  23     2.082503915303   111.26536910   182.43626059
 H     25  24  23     2.082811049954   111.03728685    62.06997152
 H     26  23  22     2.066704028996   119.34037033   179.08832390
 H     27  26  23     2.062560953428   119.43856410   177.78044237
 H     29  28  19     2.063632981024   119.67914025   352.38974536
 H     30  29  28     2.066322985214   119.34879069   180.78946503
 H     32  31  30     2.083948343466   109.69239012   336.47507231
 H     32  31  30     2.083979843749   109.52881167   220.09090096
 H     33  32  31     2.081978144931   110.79261775   300.46473120
 H     33  32  31     2.082267383015   111.64873836   179.58506741
 H     33  32  31     2.081961681432   110.90600177    59.29711488
 H     34  31  30     2.066681316791   119.50762457   179.80183453
 H     35  34  31     2.061040785462   119.26820821   181.04491933
 H     40  37  36     2.061278247835   120.72928793   180.55003935
 H     44  43  42     2.060815713213   119.93506078   349.31392021
 H     45  44  43     2.063557838114   119.19876213   180.86638122
 H     47  46  45     2.082884862549   109.19879313   177.67986955
 H     47  46  45     2.086397478167   108.38651924    62.81908629
 H     48  47  46     2.082670233631   111.13992641   298.86910514
 H     48  47  46     2.081041222907   110.82524015   178.60360093
 H     48  47  46     2.079886184352   111.29584402    59.25667919
 H     49  46  45     2.066317718883   119.29470829   180.13354483
 H     50  49  46     2.064335860392   119.44243283   182.50121457
 H     52  51  42     2.062264075053   119.77181693     0.62185976
 H     53  52  51     2.066172761919   119.33915471   181.06282678
 H     55  54  53     2.083274964732   109.72812874   156.72175712
 H     55  54  53     2.084737975000   109.16309797    40.43586496
 H     56  55  54     2.081843903861   111.03003712   297.10997525
 H     56  55  54     2.081560494009   111.30636155   176.63993494
 H     56  55  54     2.081638553686   110.75001791    56.37874469
 H     57  54  53     2.066856044517   119.45751036   180.54090498
 H     58  57  54     2.062628402336   119.51590914   182.43097984
 H     62  36  19     2.061945701807   121.24404480     0.17245379
 H     68  67  66     2.059811671139   122.42083424   180.65051776
 H     69  67  66     2.073960606972   116.07890389   151.39222368
 H     82  81   3     2.059212003411   119.65079839   180.27266438
 H     83  82  81     2.054559424199   123.23016559   179.43126193
 H     85  84  78     2.059004972425   119.64900039   179.46050754
 H     86  85  84     2.055742542625   123.57511938   180.55181303

---------------------
BASIS SET INFORMATION
---------------------
There are 5 groups of distinct atoms

 Group   1 Type C   : 7s4p1d contracted to 3s2p1d pattern {511/31/1}
 Group   2 Type O   : 7s4p1d contracted to 3s2p1d pattern {511/31/1}
 Group   3 Type N   : 7s4p1d contracted to 3s2p1d pattern {511/31/1}
 Group   4 Type S   : 10s7p1d contracted to 4s3p1d pattern {5311/511/1}
 Group   5 Type H   : 4s1p contracted to 2s1p pattern {31/1}

Atom   0C    basis set group =>   1
Atom   1O    basis set group =>   2
Atom   2C    basis set group =>   1
Atom   3C    basis set group =>   1
Atom   4C    basis set group =>   1
Atom   5C    basis set group =>   1
Atom   6C    basis set group =>   1
Atom   7N    basis set group =>   3
Atom   8C    basis set group =>   1
Atom   9N    basis set group =>   3
Atom  10C    basis set group =>   1
Atom  11C    basis set group =>   1
Atom  12C    basis set group =>   1
Atom  13C    basis set group =>   1
Atom  14C    basis set group =>   1
Atom  15C    basis set group =>   1
Atom  16S    basis set group =>   4
Atom  17C    basis set group =>   1
Atom  18C    basis set group =>   1
Atom  19C    basis set group =>   1
Atom  20C    basis set group =>   1
Atom  21C    basis set group =>   1
Atom  22C    basis set group =>   1
Atom  23C    basis set group =>   1
Atom  24C    basis set group =>   1
Atom  25C    basis set group =>   1
Atom  26C    basis set group =>   1
Atom  27C    basis set group =>   1
Atom  28C    basis set group =>   1
Atom  29C    basis set group =>   1
Atom  30C    basis set group =>   1
Atom  31C    basis set group =>   1
Atom  32C    basis set group =>   1
Atom  33C    basis set group =>   1
Atom  34C    basis set group =>   1
Atom  35C    basis set group =>   1
Atom  36C    basis set group =>   1
Atom  37C    basis set group =>   1
Atom  38S    basis set group =>   4
Atom  39C    basis set group =>   1
Atom  40C    basis set group =>   1
Atom  41C    basis set group =>   1
Atom  42C    basis set group =>   1
Atom  43C    basis set group =>   1
Atom  44C    basis set group =>   1
Atom  45C    basis set group =>   1
Atom  46C    basis set group =>   1
Atom  47C    basis set group =>   1
Atom  48C    basis set group =>   1
Atom  49C    basis set group =>   1
Atom  50C    basis set group =>   1
Atom  51C    basis set group =>   1
Atom  52C    basis set group =>   1
Atom  53C    basis set group =>   1
Atom  54C    basis set group =>   1
Atom  55C    basis set group =>   1
Atom  56C    basis set group =>   1
Atom  57C    basis set group =>   1
Atom  58C    basis set group =>   1
Atom  59C    basis set group =>   1
Atom  60C    basis set group =>   1
Atom  61C    basis set group =>   1
Atom  62S    basis set group =>   4
Atom  63C    basis set group =>   1
Atom  64C    basis set group =>   1
Atom  65S    basis set group =>   4
Atom  66C    basis set group =>   1
Atom  67C    basis set group =>   1
Atom  68C    basis set group =>   1
Atom  69C    basis set group =>   1
Atom  70C    basis set group =>   1
Atom  71C    basis set group =>   1
Atom  72C    basis set group =>   1
Atom  73N    basis set group =>   3
Atom  74C    basis set group =>   1
Atom  75N    basis set group =>   3
Atom  76C    basis set group =>   1
Atom  77C    basis set group =>   1
Atom  78C    basis set group =>   1
Atom  79O    basis set group =>   2
Atom  80S    basis set group =>   4
Atom  81C    basis set group =>   1
Atom  82C    basis set group =>   1
Atom  83S    basis set group =>   4
Atom  84C    basis set group =>   1
Atom  85C    basis set group =>   1
Atom  86H    basis set group =>   5
Atom  87H    basis set group =>   5
Atom  88H    basis set group =>   5
Atom  89H    basis set group =>   5
Atom  90H    basis set group =>   5
Atom  91H    basis set group =>   5
Atom  92H    basis set group =>   5
Atom  93H    basis set group =>   5
Atom  94H    basis set group =>   5
Atom  95H    basis set group =>   5
Atom  96H    basis set group =>   5
Atom  97H    basis set group =>   5
Atom  98H    basis set group =>   5
Atom  99H    basis set group =>   5
Atom 100H    basis set group =>   5
Atom 101H    basis set group =>   5
Atom 102H    basis set group =>   5
Atom 103H    basis set group =>   5
Atom 104H    basis set group =>   5
Atom 105H    basis set group =>   5
Atom 106H    basis set group =>   5
Atom 107H    basis set group =>   5
Atom 108H    basis set group =>   5
Atom 109H    basis set group =>   5
Atom 110H    basis set group =>   5
Atom 111H    basis set group =>   5
Atom 112H    basis set group =>   5
Atom 113H    basis set group =>   5
Atom 114H    basis set group =>   5
Atom 115H    basis set group =>   5
Atom 116H    basis set group =>   5
Atom 117H    basis set group =>   5
Atom 118H    basis set group =>   5
Atom 119H    basis set group =>   5
Atom 120H    basis set group =>   5
Atom 121H    basis set group =>   5
Atom 122H    basis set group =>   5
Atom 123H    basis set group =>   5
Atom 124H    basis set group =>   5
Atom 125H    basis set group =>   5
Atom 126H    basis set group =>   5
Atom 127H    basis set group =>   5
Atom 128H    basis set group =>   5
Atom 129H    basis set group =>   5
Atom 130H    basis set group =>   5
Atom 131H    basis set group =>   5
---------------------------------
AUXILIARY/J BASIS SET INFORMATION
---------------------------------
There are 5 groups of distinct atoms

 Group   1 Type C   : 12s5p4d2f1g contracted to 6s4p3d1f1g pattern {711111/2111/211/2/1}
 Group   2 Type O   : 12s5p4d2f1g contracted to 6s4p3d1f1g pattern {711111/2111/211/2/1}
 Group   3 Type N   : 12s5p4d2f1g contracted to 6s4p3d1f1g pattern {711111/2111/211/2/1}
 Group   4 Type S   : 14s5p5d2f1g contracted to 8s4p3d1f1g pattern {71111111/2111/311/2/1}
 Group   5 Type H   : 5s2p1d contracted to 3s1p1d pattern {311/2/1}

Atom   0C    basis set group =>   1
Atom   1O    basis set group =>   2
Atom   2C    basis set group =>   1
Atom   3C    basis set group =>   1
Atom   4C    basis set group =>   1
Atom   5C    basis set group =>   1
Atom   6C    basis set group =>   1
Atom   7N    basis set group =>   3
Atom   8C    basis set group =>   1
Atom   9N    basis set group =>   3
Atom  10C    basis set group =>   1
Atom  11C    basis set group =>   1
Atom  12C    basis set group =>   1
Atom  13C    basis set group =>   1
Atom  14C    basis set group =>   1
Atom  15C    basis set group =>   1
Atom  16S    basis set group =>   4
Atom  17C    basis set group =>   1
Atom  18C    basis set group =>   1
Atom  19C    basis set group =>   1
Atom  20C    basis set group =>   1
Atom  21C    basis set group =>   1
Atom  22C    basis set group =>   1
Atom  23C    basis set group =>   1
Atom  24C    basis set group =>   1
Atom  25C    basis set group =>   1
Atom  26C    basis set group =>   1
Atom  27C    basis set group =>   1
Atom  28C    basis set group =>   1
Atom  29C    basis set group =>   1
Atom  30C    basis set group =>   1
Atom  31C    basis set group =>   1
Atom  32C    basis set group =>   1
Atom  33C    basis set group =>   1
Atom  34C    basis set group =>   1
Atom  35C    basis set group =>   1
Atom  36C    basis set group =>   1
Atom  37C    basis set group =>   1
Atom  38S    basis set group =>   4
Atom  39C    basis set group =>   1
Atom  40C    basis set group =>   1
Atom  41C    basis set group =>   1
Atom  42C    basis set group =>   1
Atom  43C    basis set group =>   1
Atom  44C    basis set group =>   1
Atom  45C    basis set group =>   1
Atom  46C    basis set group =>   1
Atom  47C    basis set group =>   1
Atom  48C    basis set group =>   1
Atom  49C    basis set group =>   1
Atom  50C    basis set group =>   1
Atom  51C    basis set group =>   1
Atom  52C    basis set group =>   1
Atom  53C    basis set group =>   1
Atom  54C    basis set group =>   1
Atom  55C    basis set group =>   1
Atom  56C    basis set group =>   1
Atom  57C    basis set group =>   1
Atom  58C    basis set group =>   1
Atom  59C    basis set group =>   1
Atom  60C    basis set group =>   1
Atom  61C    basis set group =>   1
Atom  62S    basis set group =>   4
Atom  63C    basis set group =>   1
Atom  64C    basis set group =>   1
Atom  65S    basis set group =>   4
Atom  66C    basis set group =>   1
Atom  67C    basis set group =>   1
Atom  68C    basis set group =>   1
Atom  69C    basis set group =>   1
Atom  70C    basis set group =>   1
Atom  71C    basis set group =>   1
Atom  72C    basis set group =>   1
Atom  73N    basis set group =>   3
Atom  74C    basis set group =>   1
Atom  75N    basis set group =>   3
Atom  76C    basis set group =>   1
Atom  77C    basis set group =>   1
Atom  78C    basis set group =>   1
Atom  79O    basis set group =>   2
Atom  80S    basis set group =>   4
Atom  81C    basis set group =>   1
Atom  82C    basis set group =>   1
Atom  83S    basis set group =>   4
Atom  84C    basis set group =>   1
Atom  85C    basis set group =>   1
Atom  86H    basis set group =>   5
Atom  87H    basis set group =>   5
Atom  88H    basis set group =>   5
Atom  89H    basis set group =>   5
Atom  90H    basis set group =>   5
Atom  91H    basis set group =>   5
Atom  92H    basis set group =>   5
Atom  93H    basis set group =>   5
Atom  94H    basis set group =>   5
Atom  95H    basis set group =>   5
Atom  96H    basis set group =>   5
Atom  97H    basis set group =>   5
Atom  98H    basis set group =>   5
Atom  99H    basis set group =>   5
Atom 100H    basis set group =>   5
Atom 101H    basis set group =>   5
Atom 102H    basis set group =>   5
Atom 103H    basis set group =>   5
Atom 104H    basis set group =>   5
Atom 105H    basis set group =>   5
Atom 106H    basis set group =>   5
Atom 107H    basis set group =>   5
Atom 108H    basis set group =>   5
Atom 109H    basis set group =>   5
Atom 110H    basis set group =>   5
Atom 111H    basis set group =>   5
Atom 112H    basis set group =>   5
Atom 113H    basis set group =>   5
Atom 114H    basis set group =>   5
Atom 115H    basis set group =>   5
Atom 116H    basis set group =>   5
Atom 117H    basis set group =>   5
Atom 118H    basis set group =>   5
Atom 119H    basis set group =>   5
Atom 120H    basis set group =>   5
Atom 121H    basis set group =>   5
Atom 122H    basis set group =>   5
Atom 123H    basis set group =>   5
Atom 124H    basis set group =>   5
Atom 125H    basis set group =>   5
Atom 126H    basis set group =>   5
Atom 127H    basis set group =>   5
Atom 128H    basis set group =>   5
Atom 129H    basis set group =>   5
Atom 130H    basis set group =>   5
Atom 131H    basis set group =>   5
------------------------------------------------------------------------------
                           ORCA GTO INTEGRAL CALCULATION
                           -- RI-GTO INTEGRALS CHOSEN --
------------------------------------------------------------------------------

                         BASIS SET STATISTICS AND STARTUP INFO

Gaussian basis set:
 # of primitive gaussian shells          ... 1298
 # of primitive gaussian functions       ... 2458
 # of contracted shells                  ...  666
 # of contracted basis functions         ... 1458
 Highest angular momentum                ...    2
 Maximum contraction depth               ...    5
Auxiliary gaussian basis set:
 # of primitive gaussian shells          ... 2450
 # of primitive gaussian functions       ... 6798
 # of contracted shells                  ... 1532
 # of contracted aux-basis functions     ... 4732
 Highest angular momentum                ...    4
 Maximum contraction depth               ...    7
Ratio of auxiliary to basis functions    ...  3.25
Integral package used                  ... LIBINT
 One Electron integrals                  ... done
 Ordering auxiliary basis shells         ... done
 Integral threshhold             Thresh  ...  2.500e-11
 Primitive cut-off               TCut    ...  2.500e-12
 Pre-screening matrix                    ... done
 Shell pair data                         ... 
 Ordering of the shell pairs             ... done (   0.017 sec) 72988 of 222111 pairs
 Determination of significant pairs      ... done (   0.000 sec)
 Creation of shell pair data             ... done (   0.010 sec)
 Storage of shell pair data              ... done (   0.016 sec)
 Shell pair data done in (   0.043 sec)
 Computing two index integrals           ... done
 Cholesky decomposition of the V-matrix  ... done


Timings:
 Total evaluation time                   ...   3.888 sec (  0.065 min)
 One electron matrix time                ...   1.051 sec (  0.018 min) = 27.0%
 Schwartz matrix evaluation time         ...   1.061 sec (  0.018 min) = 27.3%
 Two index repulsion integral time       ...   0.738 sec (  0.012 min) = 19.0%
 Cholesky decomposition of V             ...   0.976 sec (  0.016 min) = 25.1%
 Three index repulsion integral time     ...   0.000 sec (  0.000 min) =  0.0%

-------------------------------------------------------------------------------
                                 ORCA SCF
-------------------------------------------------------------------------------

------------
SCF SETTINGS
------------
Hamiltonian:
 Density Functional     Method          .... DFT(GTOs)
 Exchange Functional    Exchange        .... WB88
 Correlation Functional Correlation     .... LYP
 LDA part of GGA corr.  LDAOpt          .... VWN-5
 Gradients option       PostSCFGGA      .... off
 Hybrid DFT is turned on
   Fraction HF Exchange ScalHFX         ....  0.190000
   Scaling of DF-GGA-X  ScalDFX         ....  0.350000
   Scaling of DF-GGA-C  ScalDFC         ....  0.810000
   Scaling of DF-LDA-C  ScalLDAC        ....  1.000000
   Perturbative correction              ....  0.000000
   Density functional embedding theory  .... OFF
 Long-range corrected/Screened/Range-Separated Hybrid DFT is turned on
   Amount of maximum screened exact exchange              ....  0.460000
   Range separation parameter mu (erf(mu*r12)/r12)        ....  0.330000
 RI-approximation to the Coulomb term is turned on
   Number of auxiliary basis functions  .... 4732
   RIJ-COSX (HFX calculated with COS-X)).... on


General Settings:
 Integral files         IntName         .... ITCC
 Hartree-Fock type      HFTyp           .... RHF
 Total Charge           Charge          ....    0
 Multiplicity           Mult            ....    1
 Number of Electrons    NEL             ....  630
 Basis Dimension        Dim             .... 1458
 Nuclear Repulsion      ENuc            ....  15117.9458988638 Eh

Convergence Acceleration:
 DIIS                   CNVDIIS         .... on
   Start iteration      DIISMaxIt       ....    12
   Startup error        DIISStart       ....  0.200000
   # of expansion vecs  DIISMaxEq       ....     5
   Bias factor          DIISBfac        ....   1.050
   Max. coefficient     DIISMaxC        ....  10.000
 Newton-Raphson         CNVNR           .... off
 SOSCF                  CNVSOSCF        .... on
   Start iteration      SOSCFMaxIt      ....   150
   Startup grad/error   SOSCFStart      ....  0.003300
 Level Shifting         CNVShift        .... on
   Level shift para.    LevelShift      ....    0.2500
   Turn off err/grad.   ShiftErr        ....    0.0010
 Zerner damping         CNVZerner       .... off
 Static damping         CNVDamp         .... on
   Fraction old density DampFac         ....    0.7000
   Max. Damping (<1)    DampMax         ....    0.9800
   Min. Damping (>=0)   DampMin         ....    0.0000
   Turn off err/grad.   DampErr         ....    0.1000
 Fernandez-Rico         CNVRico         .... off

SCF Procedure:
 Maximum # iterations   MaxIter         ....   125
 SCF integral mode      SCFMode         .... Direct
   Integral package                     .... LIBINT
 Reset frequency        DirectResetFreq ....    20
 Integral Threshold     Thresh          ....  2.500e-11 Eh
 Primitive CutOff       TCut            ....  2.500e-12 Eh

Convergence Tolerance:
 Convergence Check Mode ConvCheckMode   .... Total+1el-Energy
 Convergence forced     ConvForced      .... 1
 Energy Change          TolE            ....  1.000e-08 Eh
 1-El. energy change                    ....  1.000e-05 Eh
 Orbital Gradient       TolG            ....  1.000e-05
 Orbital Rotation angle TolX            ....  1.000e-05
 DIIS Error             TolErr          ....  5.000e-07


Diagonalization of the overlap matrix:
Smallest eigenvalue                        ... 2.102e-04
Time for diagonalization                   ...    0.643 sec
Threshold for overlap eigenvalues          ... 1.000e-08
Number of eigenvalues below threshold      ... 0
Time for construction of square roots      ...    0.285 sec
Total time needed                          ...    0.940 sec

-------------------
DFT GRID GENERATION
-------------------

General Integration Accuracy     IntAcc      ...  4.670
Radial Grid Type                 RadialGrid  ... Gauss-Chebyshev
Angular Grid (max. acc.)         AngularGrid ... Lebedev-302
Angular grid pruning method      GridPruning ... 3 (G Style)
Weight generation scheme         WeightScheme... Becke
Basis function cutoff            BFCut       ...    1.0000e-11
Integration weight cutoff        WCut        ...    1.0000e-14
Grids for H and He will be reduced by one unit

# of grid points (after initial pruning)     ... 694160 (   2.6 sec)
# of grid points (after weights+screening)   ... 582432 (  42.7 sec)
nearest neighbour list constructed           ...    0.0 sec
Grid point re-assignment to atoms done       ...    0.1 sec
Grid point division into batches done        ...    2.0 sec
Reduced shell lists constructed in   13.3 sec

Total number of grid points                  ...   582432
Total number of batches                      ...     9171
Average number of points per batch           ...       63
Average number of grid points per atom       ...     4412
Average number of shells per batch           ...   111.38 (16.72%)
Average number of basis functions per batch  ...   225.25 (15.45%)
Average number of large shells per batch     ...    62.52 (56.13%)
Average number of large basis fcns per batch ...   129.24 (57.38%)
Maximum spatial batch extension              ...  23.43, 21.00, 22.07 au
Average spatial batch extension              ...   2.10,  2.05,  2.12 au

Time for grid setup =   58.709 sec

------------------------------
INITIAL GUESS: MODEL POTENTIAL
------------------------------
Loading Hartree-Fock densities                     ... done
Calculating cut-offs                               ... done
Setting up the integral package                    ... done
Initializing the effective Hamiltonian             ... done
Starting the Coulomb interaction                   ... done (  16.1 sec)
Reading the grid                                   ... done
Mapping shells                                     ... done
Starting the XC term evaluation                    ... done (  12.5 sec)
  promolecular density results
     # of electrons  =    629.979163235
     EX              =   -583.784728304
     EC              =    -21.748800122
     EX+EC           =   -605.533528426
Transforming the Hamiltonian                       ... done (   0.2 sec)
Diagonalizing the Hamiltonian                      ... done (   0.6 sec)
Back transforming the eigenvectors                 ... done (   0.1 sec)
Now organizing SCF variables                       ... done
                      ------------------
                      INITIAL GUESS DONE (  88.7 sec)
                      ------------------
--------------------
COSX GRID GENERATION
--------------------

General Integration Accuracy     IntAcc      ...  3.340
Radial Grid Type                 RadialGrid  ... Gauss-Chebyshev
Angular Grid (max. acc.)         AngularGrid ... Lebedev-50
Angular grid pruning method      GridPruning ... 3 (G Style)
Weight generation scheme         WeightScheme... Becke
Basis function cutoff            BFCut       ...    1.0000e-11
Integration weight cutoff        WCut        ...    1.0000e-14
Grids for H and He will be reduced by one unit

# of grid points (after initial pruning)     ...  65300 (   0.1 sec)
# of grid points (after weights+screening)   ...  57526 (   4.0 sec)
nearest neighbour list constructed           ...    0.0 sec
Grid point re-assignment to atoms done       ...    0.0 sec
Grid point division into batches done        ...    0.0 sec
Reduced shell lists constructed in    1.3 sec

Total number of grid points                  ...    57526
Total number of batches                      ...      964
Average number of points per batch           ...       59
Average number of grid points per atom       ...      436
Average number of shells per batch           ...   137.82 (20.69%)
Average number of basis functions per batch  ...   281.18 (19.29%)
Average number of large shells per batch     ...    76.78 (55.71%)
Average number of large basis fcns per batch ...   160.77 (57.18%)
Maximum spatial batch extension              ...  19.46, 17.81, 23.12 au
Average spatial batch extension              ...   4.27,  4.12,  4.56 au

Overlap Fitting                  UseSFitting ... on
Constructing numerical overlap ... done (      0.9 sec)
Inverting numerical overlap    ... done (      0.1 sec)
Obtaining analytic overlap     ... done (      0.0 sec)
Final contraction and storage  ... done (      2.4 sec)


General Integration Accuracy     IntAcc      ...  3.670
Radial Grid Type                 RadialGrid  ... Gauss-Chebyshev
Angular Grid (max. acc.)         AngularGrid ... Lebedev-50
Angular grid pruning method      GridPruning ... 3 (G Style)
Weight generation scheme         WeightScheme... Becke
Basis function cutoff            BFCut       ...    1.0000e-11
Integration weight cutoff        WCut        ...    1.0000e-14
Grids for H and He will be reduced by one unit

# of grid points (after initial pruning)     ...  81804 (   0.1 sec)
# of grid points (after weights+screening)   ...  71717 (   5.0 sec)
nearest neighbour list constructed           ...    0.0 sec
Grid point re-assignment to atoms done       ...    0.0 sec
Grid point division into batches done        ...    0.0 sec
Reduced shell lists constructed in    1.6 sec

Total number of grid points                  ...    71717
Total number of batches                      ...     1184
Average number of points per batch           ...       60
Average number of grid points per atom       ...      543
Average number of shells per batch           ...   133.93 (20.11%)
Average number of basis functions per batch  ...   272.98 (18.72%)
Average number of large shells per batch     ...    74.66 (55.75%)
Average number of large basis fcns per batch ...   156.19 (57.22%)
Maximum spatial batch extension              ...  24.83, 18.18, 27.36 au
Average spatial batch extension              ...   3.99,  3.83,  4.20 au

Overlap Fitting                  UseSFitting ... on
Constructing numerical overlap ... done (      1.1 sec)
Inverting numerical overlap    ... done (      0.1 sec)
Obtaining analytic overlap     ... done (      0.0 sec)
Final contraction and storage  ... done (      0.1 sec)


General Integration Accuracy     IntAcc      ...  4.010
Radial Grid Type                 RadialGrid  ... Gauss-Chebyshev
Angular Grid (max. acc.)         AngularGrid ... Lebedev-110
Angular grid pruning method      GridPruning ... 3 (G Style)
Weight generation scheme         WeightScheme... Becke
Basis function cutoff            BFCut       ...    1.0000e-11
Integration weight cutoff        WCut        ...    1.0000e-14
Grids for H and He will be reduced by one unit

# of grid points (after initial pruning)     ... 157868 (   0.3 sec)
# of grid points (after weights+screening)   ... 136916 (   9.7 sec)
nearest neighbour list constructed           ...    0.0 sec
Grid point re-assignment to atoms done       ...    0.0 sec
Grid point division into batches done        ...    0.1 sec
Reduced shell lists constructed in    2.8 sec

Total number of grid points                  ...   136916
Total number of batches                      ...     2206
Average number of points per batch           ...       62
Average number of grid points per atom       ...     1037
Average number of shells per batch           ...   126.93 (19.06%)
Average number of basis functions per batch  ...   258.42 (17.72%)
Average number of large shells per batch     ...    71.36 (56.22%)
Average number of large basis fcns per batch ...   148.82 (57.59%)
Maximum spatial batch extension              ...  22.11, 19.59, 37.97 au
Average spatial batch extension              ...   3.29,  3.20,  3.48 au

Overlap Fitting                  UseSFitting ... on
Constructing numerical overlap ... done (      1.9 sec)
Inverting numerical overlap    ... done (      0.1 sec)
Obtaining analytic overlap     ... done (      0.0 sec)
Final contraction and storage  ... done (      0.1 sec)

Time for X-Grid setup             =   31.784 sec
--------------
SCF ITERATIONS
--------------
ITER       Energy         Delta-E        Max-DP      RMS-DP      [F,P]     Damp
               ***  Starting incremental Fock matrix formation  ***
  0  -5599.6445773593   0.000000000000 0.14260109  0.00084267  0.2428888 0.7000
  1  -5600.3473684177  -0.702791058422 0.08901820  0.00060090  0.0977248 0.7000
                               ***Turning on DIIS***
  2  -5600.6583437666  -0.310975348886 0.15907461  0.00110925  0.0406119 0.0000
  3  -5601.1597796976  -0.501435931008 0.05304623  0.00043493  0.0562957 0.0000
  4  -5601.2528776514  -0.093097953737 0.01797339  0.00013825  0.0267961 0.0000
  5  -5601.2595606417  -0.006682990328 0.00711222  0.00005296  0.0109648 0.0000
                      *** Initiating the SOSCF procedure ***
                           *** Shutting down DIIS ***
                      *** Re-Reading the Fockian *** 
                      *** Removing any level shift *** 
ITER      Energy       Delta-E        Grad      Rot      Max-DP    RMS-DP
  6  -5601.26072529  -0.0011646486  0.002017  0.002017  0.002677  0.000027
               *** Restarting incremental Fock matrix formation ***
  7  -5601.26098186  -0.0002565666  0.001352  0.008352  0.002319  0.000025
  8  -5601.26115514  -0.0001732811  0.000691  0.008822  0.002664  0.000029
  9  -5601.26116026  -0.0000051210  0.000681  0.003153  0.001481  0.000012
 10  -5601.26120721  -0.0000469470  0.000150  0.001196  0.000772  0.000006
 11  -5601.26120497   0.0000022364  0.000166  0.000932  0.000414  0.000004
 12  -5601.26121052  -0.0000055481  0.000016  0.000084  0.000126  0.000001
 13  -5601.26121045   0.0000000653  0.000021  0.000053  0.000068  0.000001
 14  -5601.26121061  -0.0000001561  0.000006  0.000035  0.000037  0.000000
 15  -5601.26121064  -0.0000000272  0.000010  0.000017  0.000018  0.000000
                  ***Gradient check signals convergence***
              ***Rediagonalizing the Fockian in SOSCF/NRSCF***

               *****************************************************
               *                     SUCCESS                       *
               *           SCF CONVERGED AFTER  16 CYCLES          *
               *****************************************************

Setting up the final grid:

General Integration Accuracy     IntAcc      ...  5.010
Radial Grid Type                 RadialGrid  ... Gauss-Chebyshev
Angular Grid (max. acc.)         AngularGrid ... Lebedev-434
Angular grid pruning method      GridPruning ... 3 (G Style)
Weight generation scheme         WeightScheme... Becke
Basis function cutoff            BFCut       ...    1.0000e-11
Integration weight cutoff        WCut        ...    1.0000e-14
Grids for H and He will be reduced by one unit

# of grid points (after initial pruning)     ... 1233968 (   2.4 sec)
# of grid points (after weights+screening)   ... 1032161 (  75.8 sec)
nearest neighbour list constructed           ...    0.0 sec
Grid point re-assignment to atoms done       ...    0.2 sec
Grid point division into batches done        ...    6.6 sec
Reduced shell lists constructed in   23.7 sec

Total number of grid points                  ...  1032161
Total number of batches                      ...    16189
Average number of points per batch           ...       63
Average number of grid points per atom       ...     7819
Average number of shells per batch           ...   106.82 (16.04%)
Average number of basis functions per batch  ...   215.41 (14.77%)
Average number of large shells per batch     ...    59.97 (56.14%)
Average number of large basis fcns per batch ...   123.63 (57.39%)
Maximum spatial batch extension              ...  24.46, 21.61, 22.90 au
Average spatial batch extension              ...   1.70,  1.68,  1.73 au

Final grid set up in  102.1 sec
Final integration                            ... done (  30.6 sec)
Change in XC energy                          ...     0.000020668
Integrated number of electrons               ...   630.000138084
Previous integrated no of electrons          ...   630.000791174
Old exchange energy                            =   -161.825081359 Eh
New exchange energy                            =   -161.821823189 Eh
Exchange energy change after final integration =      0.003258170 Eh
Total energy after final integration           =  -5601.257931788 Eh
Final COS-X integration done in                =   672.313 sec

----------------
TOTAL SCF ENERGY
----------------

Total Energy       :        -5601.25793179 Eh         -152417.97710 eV

Components:
Nuclear Repulsion  :        15117.94589886 Eh          411380.22207 eV
Electronic Energy  :       -20719.20383065 Eh         -563798.19918 eV
One Electron Energy:       -37790.15618527 Eh        -1028322.42870 eV
Two Electron Energy:        17070.95235462 Eh          464524.22952 eV

Virial components:
Potential Energy   :       -11162.06335606 Eh         -303735.18552 eV
Kinetic Energy     :         5560.80542428 Eh          151317.20841 eV
Virial Ratio       :            2.00727458


DFT components:
N(Alpha)           :      315.000069042028 electrons
N(Beta)            :      315.000069042028 electrons
N(Total)           :      630.000138084057 electrons
E(XC)              :     -453.378523367473 Eh       
DFET-embed. en.    :        0.000000000000 Eh       

---------------
SCF CONVERGENCE
---------------

  Last Energy change         ...    8.5893e-09  Tolerance :   1.0000e-08
  Last MAX-Density change    ...    7.1054e-15  Tolerance :   1.0000e-07
  Last RMS-Density change    ...    3.3927e-17  Tolerance :   5.0000e-09
  Last Orbital Gradient      ...    2.0326e-06  Tolerance :   1.0000e-05
  Last Orbital Rotation      ...    8.4946e-06  Tolerance :   1.0000e-05

             **** THE GBW FILE WAS UPDATED (ITCC.gbw) ****
             **** DENSITY FILE WAS UPDATED (ITCC.scfp) ****
             **** ENERGY FILE WAS UPDATED (ITCC.en.tmp) ****
             **** THE GBW FILE WAS UPDATED (ITCC.gbw) ****
             **** DENSITY FILE WAS UPDATED (ITCC.scfp) ****
----------------
ORBITAL ENERGIES
----------------

  NO   OCC          E(Eh)            E(eV) 
   0   2.0000     -88.986608     -2421.4487 
   1   2.0000     -88.984127     -2421.3812 
   2   2.0000     -88.969364     -2420.9795 
   3   2.0000     -88.967908     -2420.9399 
   4   2.0000     -88.967357     -2420.9249 
   5   2.0000     -88.965206     -2420.8663 
   6   2.0000     -19.219797      -522.9973 
   7   2.0000     -19.217686      -522.9398 
   8   2.0000     -14.423389      -392.4804 
   9   2.0000     -14.420267      -392.3954 
  10   2.0000     -14.416562      -392.2946 
  11   2.0000     -14.414482      -392.2380 
  12   2.0000     -10.379209      -282.4326 
  13   2.0000     -10.378367      -282.4097 
  14   2.0000     -10.350182      -281.6428 
  15   2.0000     -10.349657      -281.6285 
  16   2.0000     -10.347798      -281.5779 
  17   2.0000     -10.346545      -281.5438 
  18   2.0000     -10.327329      -281.0209 
  19   2.0000     -10.324849      -280.9534 
  20   2.0000     -10.323903      -280.9277 
  21   2.0000     -10.323269      -280.9104 
  22   2.0000     -10.322098      -280.8786 
  23   2.0000     -10.320945      -280.8472 
[...]
  13   3.943     314.5   0.086381   0.075469  -16.705503  -15.664972     0.11 ( 109-> 119)    0.11 ( 109-> 120)    0.08 ( 108-> 119)
  14   3.967     312.5   0.080767   0.073012  134.396763  150.956718     0.28 ( 111-> 119)    0.12 ( 112-> 120)    0.07 ( 116-> 121)
  15   4.013     308.9   0.067110   0.059400  170.122930  149.196310     0.20 ( 111-> 119)    0.15 ( 116-> 121)    0.13 ( 116-> 120)
  16   4.066     305.0   0.040667   0.034869  -73.221066  -67.427862     0.48 ( 118-> 123)    0.11 ( 117-> 122)    0.05 ( 116-> 120)
  17   4.100     302.4   0.093797   0.086412  -278.837046  -255.528503     0.17 (  99-> 120)    0.17 ( 100-> 119)    0.12 ( 117-> 121)
  18   4.154     298.5   0.151201   0.128382  -133.180806  -122.585671     0.30 ( 117-> 121)    0.09 (  99-> 120)    0.07 ( 100-> 119)
  19   4.208     294.6   0.047760   0.040026  14.151312  14.230578     0.22 ( 107-> 119)    0.10 ( 115-> 121)    0.10 ( 107-> 120)
  20   4.219     293.9   0.015449   0.013575  -33.356822  -30.614322     0.32 ( 100-> 120)    0.26 (  99-> 119)    0.09 (  99-> 120)
  21   4.235     292.8   0.078514   0.063877  178.361269  149.899875     0.17 ( 107-> 119)    0.12 ( 113-> 122)    0.07 ( 113-> 120)
  22   4.242     292.3   0.024466   0.019306  -60.510449  -51.709575     0.15 ( 113-> 121)    0.14 ( 107-> 119)    0.07 ( 115-> 121)
  23   4.286     289.3   0.018304   0.015018  23.343725  22.609720     0.27 ( 118-> 125)    0.13 ( 103-> 119)    0.09 ( 117-> 122)
  24   4.332     286.2   0.123297   0.110794  85.543997  84.916582     0.34 ( 106-> 119)    0.14 ( 117-> 122)    0.09 ( 115-> 120)
  25   4.336     285.9   0.004199   0.003045  -1.864441  -1.273070     0.27 ( 106-> 119)    0.22 ( 115-> 120)    0.09 ( 115-> 119)
  26   4.357     284.5   0.023178   0.022635  -27.469208  -23.945304     0.24 ( 116-> 122)    0.17 ( 116-> 120)    0.08 ( 106-> 119)
  27   4.363     284.1   0.117249   0.105830  108.606288  105.725860     0.20 ( 117-> 122)    0.12 ( 115-> 120)    0.08 ( 118-> 123)
  28   4.430     279.9   0.002123   0.002264  -19.852083  -19.207975     0.37 ( 114-> 120)    0.08 ( 113-> 119)    0.06 ( 112-> 120)
  29   4.444     279.0   0.001749   0.001520  -1.084604  -0.639624     0.57 ( 105-> 119)    0.17 ( 105-> 120)    0.05 ( 107-> 119)
  30   4.488     276.3   0.035229   0.032548  16.807813  24.676787     0.24 ( 104-> 119)    0.18 ( 102-> 120)    0.11 ( 101-> 119)
  31   4.522     274.2   0.075685   0.061397  234.106976  197.719233     0.21 ( 113-> 120)    0.10 ( 114-> 119)    0.08 ( 113-> 122)
  32   4.537     273.3   0.161170   0.134718  -502.421216  -458.662063     0.23 ( 102-> 119)    0.19 ( 101-> 120)    0.08 ( 102-> 120)
  33   4.556     272.1   0.411611   0.336657  847.585780  713.889989     0.20 ( 108-> 122)    0.10 ( 108-> 121)    0.10 ( 110-> 121)
  34   4.584     270.5   0.044097   0.037439   5.589102   9.605854     0.17 ( 112-> 120)    0.09 ( 109-> 121)    0.07 ( 111-> 119)
  35   4.594     269.9   0.489278   0.396620  -1040.759357  -949.042570     0.17 ( 109-> 121)    0.14 ( 108-> 121)    0.10 ( 110-> 121)
  36   4.614     268.7   0.044740   0.036808  70.889721  64.464655     0.27 ( 111-> 120)    0.11 ( 115-> 121)    0.10 ( 109-> 121)
  37   4.647     266.8   0.004347   0.002977  -9.541058  -8.731551     0.10 ( 113-> 122)    0.09 ( 114-> 122)    0.08 ( 113-> 120)
  38   4.672     265.4   0.245738   0.199701  144.421087  122.328045     0.13 ( 101-> 119)    0.10 ( 115-> 121)    0.09 ( 104-> 119)
  39   4.696     264.0   0.023016   0.017859   8.893576   8.201462     0.13 ( 115-> 121)    0.09 ( 112-> 122)    0.06 ( 104-> 119)
  40   4.775     259.6   0.006600   0.005604  -1.797294   0.143213     0.13 ( 112-> 122)    0.11 ( 111-> 122)    0.11 ( 103-> 119)
  41   4.803     258.1   0.004550   0.003484   7.545663   7.610165     0.14 ( 114-> 121)    0.07 ( 117-> 121)    0.06 ( 111-> 121)
  42   4.869     254.7   0.035206   0.028572  -19.048146  -16.909097     0.37 ( 107-> 120)    0.14 ( 107-> 119)    0.08 ( 103-> 119)
  43   4.891     253.5   0.012882   0.010721  22.427509  18.042419     0.25 ( 118-> 124)    0.15 ( 117-> 123)    0.11 ( 118-> 125)
  44   4.895     253.3   0.017616   0.013222  33.161090  31.932532     0.10 ( 114-> 122)    0.10 ( 111-> 121)    0.09 ( 103-> 119)
  45   4.915     252.3   0.013378   0.010720  -21.628486  -16.925156     0.40 ( 116-> 121)    0.24 ( 116-> 122)    0.13 ( 116-> 120)
  46   4.945     250.7   0.029181   0.024611  -16.847531  -12.920577     0.11 ( 107-> 120)    0.10 ( 104-> 120)    0.10 ( 118-> 124)
  47   4.959     250.0   0.016825   0.014045  -7.618956  -4.657063     0.20 ( 103-> 119)    0.10 ( 107-> 120)    0.09 ( 109-> 120)
  48   4.974     249.3   0.116056   0.095511  -242.540196  -217.982222     0.18 ( 102-> 122)    0.12 ( 101-> 121)    0.09 ( 104-> 121)
  49   4.997     248.1   0.002563   0.002116  -17.274603  -14.608165     0.41 ( 106-> 120)    0.14 ( 106-> 121)    0.07 ( 105-> 120)

-----------------------------------------------------------------------------
         ABSORPTION SPECTRUM VIA TRANSITION ELECTRIC DIPOLE MOMENTS
-----------------------------------------------------------------------------
State   Energy  Wavelength   fosc         T2         TX        TY        TZ  
        (cm-1)    (nm)                  (au**2)     (au)      (au)      (au) 
-----------------------------------------------------------------------------
   0   18283.3    546.9   1.809113013  32.57510  -3.54778   4.46927  -0.11800
   1   20977.3    476.7   0.472970378   7.42268   2.05952  -1.69536  -0.55391
   2   23529.3    425.0   0.349963431   4.89654  -1.78483   1.13481   0.65050
   3   25078.2    398.8   0.046095230   0.60511  -0.31793  -0.70541  -0.08022
   4   25545.9    391.5   0.024809141   0.31972   0.32651  -0.43162   0.16376
   5   27456.1    364.2   0.016121120   0.19330  -0.23586   0.08503   0.36116
   6   27865.3    358.9   0.014448936   0.17071   0.35596   0.16131  -0.13407
   7   29091.7    343.7   0.099013739   1.12047  -0.96535   0.37117   0.22538
   8   29798.4    335.6   0.125607123   1.38770  -0.07107   0.87137  -0.78953
   9   30201.2    331.1   0.043579896   0.47505  -0.39741   0.35404   0.43791
  10   30414.5    328.8   0.019419042   0.21019  -0.25559  -0.29881   0.23576
  11   30711.7    325.6   0.113509845   1.21676   0.01677  -1.08106  -0.21862
  12   30948.8    323.1   0.004499843   0.04787  -0.05421   0.09228  -0.19082
  13   31799.8    314.5   0.086380952   0.89427  -0.85724  -0.27653   0.28800
  14   31999.4    312.5   0.080767445   0.83094   0.35946  -0.61497  -0.56881
  15   32370.6    308.9   0.067110493   0.68252  -0.41924   0.47656   0.52882
  16   32791.8    305.0   0.040667287   0.40828  -0.17680   0.60559   0.10142
  17   33071.4    302.4   0.093797027   0.93371  -0.42986  -0.86144  -0.08284
  18   33506.4    298.5   0.151200737   1.48560  -0.93448  -0.73704   0.26290
  19   33940.5    294.6   0.047760441   0.46326  -0.56189  -0.15498   0.35145
  20   34029.2    293.9   0.015448805   0.14946   0.01558  -0.38070   0.06544
  21   34155.9    292.8   0.078514112   0.75676  -0.67616   0.25118   0.48629
  22   34216.5    292.3   0.024465719   0.23540  -0.18692  -0.44751  -0.01383
  23   34571.9    289.3   0.018303946   0.17430   0.36856  -0.14758  -0.12917
  24   34941.3    286.2   0.123296585   1.16168  -0.64381   0.81123   0.29848
  25   34974.4    285.9   0.004199166   0.03953  -0.09754  -0.17316  -0.00521
  26   35145.3    284.5   0.023178190   0.21711   0.17976  -0.42189   0.08251
  27   35192.9    284.1   0.117249445   1.09681  -0.67980   0.72196   0.33684
  28   35730.0    279.9   0.002123306   0.01956  -0.11267   0.03703  -0.07415
  29   35844.8    279.0   0.001749475   0.01607   0.01273   0.11612   0.04921
  30   36195.8    276.3   0.035228986   0.32042   0.35052  -0.25790  -0.36199
  31   36473.1    274.2   0.075684925   0.68314   0.33830  -0.46044  -0.59724
  32   36593.6    273.3   0.161169609   1.44995   0.68387   0.99108  -0.00532
  33   36747.6    272.1   0.411610766   3.68751   0.59393  -1.03323  -1.50572
  34   36971.5    270.5   0.044097370   0.39266   0.08911   0.59469   0.17626
  35   37055.9    269.9   0.489278142   4.34684  -0.50393  -2.00116   0.29705
  36   37214.3    268.7   0.044740033   0.39579   0.01709  -0.55624   0.29341
  37   37483.4    266.8   0.004346759   0.03818  -0.06415   0.18449  -0.00489
  38   37680.5    265.4   0.245738085   2.14700  -0.09967  -1.27734   0.71095
  39   37878.9    264.0   0.023016298   0.20004   0.07951   0.35153  -0.26485
  40   38513.6    259.6   0.006600372   0.05642  -0.03061   0.23262  -0.03703
  41   38740.1    258.1   0.004549514   0.03866  -0.03082  -0.15164  -0.12131
  42   39267.8    254.7   0.035206274   0.29516   0.17480  -0.50600   0.09257
  43   39448.2    253.5   0.012882444   0.10751  -0.04306  -0.17667   0.27285
  44   39477.7    253.3   0.017615694   0.14690  -0.24629  -0.23301   0.17874
  45   39642.1    252.3   0.013378433   0.11110   0.04213   0.18308  -0.27534
  46   39886.4    250.7   0.029181023   0.24085  -0.01513   0.47442  -0.12468
  47   39999.2    250.0   0.016824543   0.13847   0.00243  -0.31413   0.19947
  48   40119.3    249.3   0.116056069   0.95233  -0.27219  -0.45590   0.81878
  49   40299.6    248.1   0.002563028   0.02094   0.01604   0.03792   0.13872

-----------------------------------------------------------------------------
         ABSORPTION SPECTRUM VIA TRANSITION VELOCITY DIPOLE MOMENTS
-----------------------------------------------------------------------------
State   Energy  Wavelength   fosc         P2         PX        PY        PZ  
        (cm-1)    (nm)                  (au**2)     (au)      (au)      (au) 
-----------------------------------------------------------------------------
   0   18283.3    546.9   2.016453980   0.25197  -0.30969   0.39481  -0.01378
   1   20977.3    476.7   0.499565290   0.07162   0.20391  -0.16414  -0.05568
   2   23529.3    425.0   0.332958194   0.05354  -0.18688   0.11681   0.07052
   3   25078.2    398.8   0.043916530   0.00753  -0.03701  -0.07781  -0.01010
   4   25545.9    391.5   0.023164550   0.00404   0.03258  -0.05027   0.02135
   5   27456.1    364.2   0.016697861   0.00313  -0.03154   0.00949   0.04526
   6   27865.3    358.9   0.010499868   0.00200   0.03789   0.01870  -0.01464
   7   29091.7    343.7   0.085530107   0.01701  -0.11700   0.05255   0.02355
   8   29798.4    335.6   0.126793910   0.02582  -0.01513   0.12029  -0.10547
   9   30201.2    331.1   0.032376979   0.00668  -0.04592   0.04151   0.05340
  10   30414.5    328.8   0.012767194   0.00265  -0.02905  -0.03138   0.02873
  11   30711.7    325.6   0.100738577   0.02114   0.00706  -0.14133  -0.03346
  12   30948.8    323.1   0.005083311   0.00108  -0.00865   0.01457  -0.02807
  13   31799.8    314.5   0.075469384   0.01640  -0.11496  -0.04052   0.03929
  14   31999.4    312.5   0.073011913   0.01597   0.05116  -0.08154  -0.08186
  15   32370.6    308.9   0.059399621   0.01314  -0.05581   0.06843   0.07310
  16   32791.8    305.0   0.034869453   0.00781  -0.02582   0.08308   0.01565
  17   33071.4    302.4   0.086411540   0.01953  -0.05670  -0.12685  -0.01499
  18   33506.4    298.5   0.128381501   0.02940  -0.13092  -0.10439   0.03688
  19   33940.5    294.6   0.040026140   0.00928  -0.07889  -0.02400   0.04985
  20   34029.2    293.9   0.013575171   0.00316   0.00360  -0.05544   0.00842
  21   34155.9    292.8   0.063877468   0.01491  -0.09399   0.03957   0.06717
  22   34216.5    292.3   0.019305518   0.00451  -0.02585  -0.06189  -0.00401
  23   34571.9    289.3   0.015017890   0.00355   0.05279  -0.01953  -0.01951
  24   34941.3    286.2   0.110794444   0.02646  -0.09771   0.12168   0.04588
  25   34974.4    285.9   0.003044989   0.00073  -0.01116  -0.02448  -0.00204
  26   35145.3    284.5   0.022634737   0.00544   0.03083  -0.06606   0.01104
  27   35192.9    284.1   0.105829885   0.02545  -0.10453   0.10895   0.05156
  28   35730.0    279.9   0.002264255   0.00055  -0.01835   0.00759  -0.01260
  29   35844.8    279.0   0.001520292   0.00037   0.00047   0.01778   0.00750
  30   36195.8    276.3   0.032548167   0.00805   0.05770  -0.03731  -0.05771
  31   36473.1    274.2   0.061396909   0.01530   0.04924  -0.07104  -0.08850
  32   36593.6    273.3   0.134718266   0.03369   0.10518   0.15043  -0.00034
  33   36747.6    272.1   0.336656680   0.08455   0.08565  -0.15867  -0.22812
  34   36971.5    270.5   0.037439256   0.00946   0.01150   0.09243   0.02801
  35   37055.9    269.9   0.396620297   0.10045  -0.08147  -0.30297   0.04494
  36   37214.3    268.7   0.036807693   0.00936   0.00209  -0.08529   0.04564
  37   37483.4    266.8   0.002976896   0.00076  -0.00624   0.02675  -0.00289
  38   37680.5    265.4   0.199701173   0.05143  -0.01558  -0.19681   0.11159
  39   37878.9    264.0   0.017858549   0.00462   0.01373   0.05265  -0.04077
  40   38513.6    259.6   0.005604492   0.00148  -0.00674   0.03763  -0.00368
  41   38740.1    258.1   0.003483530   0.00092  -0.00478  -0.02263  -0.01968
  42   39267.8    254.7   0.028571975   0.00767   0.02905  -0.08133   0.01446
  43   39448.2    253.5   0.010720625   0.00289  -0.00930  -0.02612   0.04606
  44   39477.7    253.3   0.013221555   0.00357  -0.03794  -0.03777   0.02648
  45   39642.1    252.3   0.010720478   0.00290   0.00773   0.03012  -0.04402
  46   39886.4    250.7   0.024610584   0.00671  -0.00296   0.07943  -0.01976
  47   39999.2    250.0   0.014044958   0.00384   0.00151  -0.05320   0.03174
  48   40119.3    249.3   0.095510685   0.02619  -0.04812  -0.07304   0.13615
  49   40299.6    248.1   0.002116480   0.00058   0.00120   0.00644   0.02324

-------------------------------------------------------------------
                             CD SPECTRUM
-------------------------------------------------------------------
State   Energy Wavelength       R         MX        MY        MZ   
        (cm-1)   (nm)       (1e40*cgs)   (au)      (au)      (au)  
-------------------------------------------------------------------
   0   18283.3    546.9    -254.99145  -2.13623  -1.56777  -4.31900
   1   20977.3    476.7    126.38187  -1.77528  -1.69965  -0.43067
   2   23529.3    425.0     83.63160   0.56783   1.00430  -0.73943
   3   25078.2    398.8    112.17387   0.70284   0.08790   2.37357
   4   25545.9    391.5    -12.98377   1.27079   1.17553   0.90090
   5   27456.1    364.2    -17.72172   1.79643   1.68769   0.98402
   6   27865.3    358.9     27.49271  -0.63548  -0.33300  -1.21794
   7   29091.7    343.7    -18.13641   0.13174   0.30423   0.40463
   8   29798.4    335.6     81.76772  -2.30750  -2.37594  -1.97517
   9   30201.2    331.1      9.18695   0.77691   1.13472  -0.30131
  10   30414.5    328.8     29.80006   0.71451   0.75688   1.19765
  11   30711.7    325.6    -83.85184  -0.54521  -1.03205   3.43440
  12   30948.8    323.1      0.80875  -0.42576  -0.50658  -0.10607
  13   31799.8    314.5    -16.70550   0.08341   0.07237   0.56383
  14   31999.4    312.5    134.39676  -1.08948  -1.71421   2.16719
  15   32370.6    308.9    170.12293   1.24809   1.46706  -1.69736
  16   32791.8    305.0    -73.22107   0.72811   0.60359   0.72795
  17   33071.4    302.4    -278.83705  -0.98153  -1.03391   1.56502
  18   33506.4    298.5    -133.18081  -0.01667  -0.13330   1.71610
  19   33940.5    294.6     14.15131   0.34847   0.54721   0.62761
  20   34029.2    293.9    -33.35682   0.01304  -0.29537   0.44098
  21   34155.9    292.8    178.36127   1.14470   1.27747  -0.62420
  22   34216.5    292.3    -60.51045  -0.54463  -0.36532   0.62055
  23   34571.9    289.3     23.34372  -0.22241  -0.28669   0.45961
  24   34941.3    286.2     85.54400   0.22078   0.61598  -2.41373
  25   34974.4    285.9     -1.86444   0.07462  -0.09819   0.34824
  26   35145.3    284.5    -27.46921   0.72856   0.44259   2.08811
  27   35192.9    284.1    108.60629   0.44101   0.75855  -2.10362
  28   35730.0    279.9    -19.85208  -0.50157  -0.49740  -0.62203
  29   35844.8    279.0     -1.08460   0.18492   0.15909  -0.32971
  30   36195.8    276.3     16.80781  -0.83991  -1.14717   0.20097
  31   36473.1    274.2    234.10698  -1.97385  -2.14069   2.19518
  32   36593.6    273.3    -502.42122   1.26226   1.26999  -1.79165
  33   36747.6    272.1    847.58578  -5.93200  -5.62098   3.90528
  34   36971.5    270.5      5.58910   0.58149   0.74430  -2.93969
  35   37055.9    269.9    -1040.75936  -2.18168  -1.78338  -0.85188
  36   37214.3    268.7     70.88972   0.67719   0.64143   0.15160
  37   37483.4    266.8     -9.54106   0.44187   0.38387   0.40937
  38   37680.5    265.4    144.42109   2.08908   1.88072   2.81014
  39   37878.9    264.0      8.89358  -0.75691  -0.64138  -0.93605
  40   38513.6    259.6     -1.79729   0.02436  -0.05323  -0.56043
  41   38740.1    258.1      7.54566   0.16519  -0.27396   0.56438
  42   39267.8    254.7    -19.04815   0.22135   0.07584   0.86953
  43   39448.2    253.5     22.42751   0.18225   0.72196   0.14751
  44   39477.7    253.3     33.16109   0.81807   0.71923   1.27780
  45   39642.1    252.3    -21.62849  -1.00801  -0.83243  -1.04100
  46   39886.4    250.7    -16.84753  -0.87388  -0.43682  -2.12933
  47   39999.2    250.0     -7.61896   0.65393   0.70672   1.26701
  48   40119.3    249.3    -242.54020   4.43594   3.83207   4.86504
  49   40299.6    248.1    -17.27460   0.64317   0.66542   0.27203

sTD-DFT done

Total run time:        7.665 sec

           *** ORCA-CIS/TD-DFT FINISHED WITHOUT ERROR ***

-------------------------   --------------------
FINAL SINGLE POINT ENERGY     -5601.257931788396
-------------------------   --------------------


                            ***************************************
                            *     ORCA property calculations      *
                            ***************************************

                                    ---------------------
                                    Active property flags
                                    ---------------------
   (+) Dipole Moment


------------------------------------------------------------------------------
                       ORCA ELECTRIC PROPERTIES CALCULATION
------------------------------------------------------------------------------

Dipole Moment Calculation                       ... on
Quadrupole Moment Calculation                   ... off
Polarizability Calculation                      ... off
GBWName                                         ... ITCC.gbw
Electron density file                           ... ITCC.scfp
The origin for moment calculation is the CENTER OF MASS  = (16.567485, -12.400072 -1.767605)

-------------
DIPOLE MOMENT
-------------
                                X             Y             Z
Electronic contribution:    -12.65658      -8.81069      -1.46497
Nuclear contribution   :     12.13554       6.67167       0.88416
                        -----------------------------------------
Total Dipole Moment    :     -0.52104      -2.13902      -0.58081
                        -----------------------------------------
Magnitude (a.u.)       :      2.27689
Magnitude (Debye)      :      5.78739



--------------------
Rotational spectrum 
--------------------
 
Rotational constants in cm-1:     0.001216     0.000251     0.000239 
Rotational constants in MHz :    36.457663     7.520584     7.151960 

 Dipole components along the rotational axes: 
x,y,z [a.u.] :     1.351335    -1.694552     0.697576 
x,y,z [Debye]:     3.434820    -4.307209     1.773096 

 

Timings for individual modules:

Sum of individual times         ...     5970.358 sec (=  99.506 min)
GTO integral calculation        ...        4.642 sec (=   0.077 min)   0.1 %
SCF iterations                  ...     5957.964 sec (=  99.299 min)  99.8 %
CIS module                      ...        7.752 sec (=   0.129 min)   0.1 %
                             ****ORCA TERMINATED NORMALLY****
TOTAL RUN TIME: 0 days 1 hours 39 minutes 31 seconds 123 msec
