
                                 *****************
                                 * O   R   C   A *
                                 *****************

           --- An Ab Initio, DFT and Semiempirical electronic structure package ---

                  #######################################################
                  #                        -***-                        #
                  #          Department of theory and spectroscopy      #
                  #               Directorship: Frank Neese             #
                  #        Max Planck Institute fuer Kohlenforschung    #
                  #                Kaiser Wilhelm Platz 1               #
                  #                 D-45470 Muelheim/Ruhr               #
                  #                      Germany                        #
                  #                                                     #
                  #                  All rights reserved                #
                  #                        -***-                        #
                  #######################################################


                         Program Version 4.2.0 -  RELEASE  -


 With contributions from (in alphabetic order):
   Daniel Aravena         : Magnetic Suceptibility
   Michael Atanasov       : Ab Initio Ligand Field Theory (pilot matlab implementation)
   Alexander A. Auer      : GIAO ZORA, VPT2
   Ute Becker             : Parallelization
   Giovanni Bistoni       : ED, misc. LED, open-shell LED, HFLED
   Martin Brehm           : Molecular dynamics
   Dmytro Bykov           : SCF Hessian
   Vijay G. Chilkuri      : MRCI spin determinant printing, contributions to CSF-ICE
   Dipayan Datta          : RHF DLPNO-CCSD density
   Achintya Kumar Dutta   : EOM-CC, STEOM-CC
   Dmitry Ganyushin       : Spin-Orbit,Spin-Spin,Magnetic field MRCI
   Miquel Garcia          : C-PCM Hessian, Gaussian charge scheme
   Yang Guo               : DLPNO-NEVPT2, CIM, IAO-localization
   Andreas Hansen         : Spin unrestricted coupled pair/coupled cluster methods
   Benjamin Helmich-Paris : CASSCF linear response (MC-RPA)
   Lee Huntington         : MR-EOM, pCC
   Robert Izsak           : Overlap fitted RIJCOSX, COSX-SCS-MP3, EOM
   Christian Kollmar      : KDIIS, OOCD, Brueckner-CCSD(T), CCSD density
   Simone Kossmann        : Meta GGA functionals, TD-DFT gradient, OOMP2, MP2 Hessian
   Martin Krupicka        : AUTO-CI
   Lucas Lang             : DCDCAS
   Dagmar Lenk            : GEPOL surface, SMD
   Dimitrios Liakos       : Extrapolation schemes; Compound Job, initial MDCI parallelization
   Dimitrios Manganas     : Further ROCIS development; embedding schemes
   Dimitrios Pantazis     : SARC Basis sets
   Taras Petrenko         : DFT Hessian,TD-DFT gradient, ASA, ECA, R-Raman, ABS, FL, XAS/XES, NRVS
   Peter Pinski           : DLPNO-MP2, DLPNO-MP2 Gradient
   Christoph Reimann      : Effective Core Potentials
   Marius Retegan         : Local ZFS, SOC
   Christoph Riplinger    : Optimizer, TS searches, QM/MM, DLPNO-CCSD(T), (RO)-DLPNO pert. Triples
   Tobias Risthaus        : Range-separated hybrids, TD-DFT gradient, RPA, STAB
   Michael Roemelt        : Original ROCIS implementation
   Masaaki Saitow         : Open-shell DLPNO-CCSD energy and density
   Barbara Sandhoefer     : DKH picture change effects
   Avijit Sen             : IP-ROCIS
   Kantharuban Sivalingam : CASSCF convergence, NEVPT2, FIC-MRCI
   Bernardo de Souza      : ESD, SOC TD-DFT
   Georgi Stoychev        : AutoAux, RI-MP2 NMR
   Willem Van den Heuvel  : Paramagnetic NMR
   Boris Wezisla          : Elementary symmetry handling
   Frank Wennmohs         : Technical directorship


 We gratefully acknowledge several colleagues who have allowed us to
 interface, adapt or use parts of their codes:
   Stefan Grimme, W. Hujo, H. Kruse,             : VdW corrections, initial TS optimization,
                  C. Bannwarth                     DFT functionals, gCP, sTDA/sTD-DF
   Ed Valeev, F. Pavosevic, A. Kumar             : LibInt (2-el integral package), F12 methods
   Garnet Chan, S. Sharma, J. Yang, R. Olivares  : DMRG
   Ulf Ekstrom                                   : XCFun DFT Library
   Mihaly Kallay                                 : mrcc  (arbitrary order and MRCC methods)
   Andreas Klamt, Michael Diedenhofen            : otool_cosmo (COSMO solvation model)
   Jiri Pittner, Ondrej Demel                    : Mk-CCSD
   Frank Weinhold                                : gennbo (NPA and NBO analysis)
   Christopher J. Cramer and Donald G. Truhlar   : smd solvation model
   Lars Goerigk                                  : TD-DFT with DH, B97 family of functionals
   V. Asgeirsson, H. Jonsson                     : NEB implementation
   FAccTs GmbH                                   : IRC, NEB, NEB-TS, Multilevel, MM, QM/MM, CI optimization
   S Lehtola, MJT Oliveira, MAL Marques          : LibXC Library


 Your calculation uses the libint2 library for the computation of 2-el integrals
 For citations please refer to: http://libint.valeyev.net

 Your ORCA version has been built with support for libXC version: 4.2.3
 For citations please refer to: https://tddft.org/programs/libxc/

 This ORCA versions uses:
   CBLAS   interface :  Fast vector & matrix operations
   LAPACKE interface :  Fast linear algebra routines
   SCALAPACK package :  Parallel linear algebra routines


XCFun DFT library Copyright 2009-2010 Ulf Ekstrom and contributors.
See http://admol.org/xcfun for more information. This is free soft-
ware; see the source code for copying conditions. There is ABSOLUTELY
NO WARRANTY; not even for MERCHANTABILITY or FITNESS FOR A PARTICULAR
PURPOSE. For details see the documentation. Scientific users of this 
library should cite U. Ekstrom, L. Visscher, R. Bast, A. J. Thorvald-
sen and K. Ruud; J.Chem.Theor.Comp. 2010, DOI: 10.1021/ct100117s
XCFun Version 0.99 
----- Orbital basis set information -----
Your calculation utilizes the basis: def2-SVP
   F. Weigend and R. Ahlrichs, Phys. Chem. Chem. Phys. 7, 3297 (2005).

----- AuxJ basis set information -----
Your calculation utilizes the auxiliary basis: def2/J
   F. Weigend, Phys. Chem. Chem. Phys. 8, 1057 (2006).

================================================================================
                                        WARNINGS
                       Please study these warnings very carefully!
================================================================================

INFO   : Checking CIS options ...

WARNING: CIS/ROCIS methods need fully converged wavefunctions
  ===> : Setting SCFConvForced true
         You can overwrite this default with %scf ConvForced false 


INFO   : the flag for use of LIBINT has been found!

================================================================================
                                       INPUT FILE
================================================================================
NAME = ITIC.inp
|  1> # ORCA input file
|  2> # ITIC.out: Geometry 45
|  3> ! CAM-B3LYP def2-SVP def2/J RIJCOSX Grid4 TightSCF
|  4> %maxcore 5000
|  5> %tddft
|  6>     Mode sTDDFT
|  7>     Ethresh 5.0
|  8>     maxcore 5000
|  9> end
| 10> * xyz 0 1
| 11>    C       -2.43342         0.51405         1.19871
| 12>    O       -2.96620         0.98486         2.18211
| 13>    C       -1.27233         1.06481         0.44706
| 14>    C       -0.51399         2.19310         0.73849
| 15>    C        0.56259         2.49875        -0.10135
| 16>    C        0.85608         1.67989        -1.20192
| 17>    C        0.08178         0.55214        -1.50405
| 18>    C       -0.99592         0.24025        -0.66651
| 19>    C       -2.01972        -0.83340        -0.72923
| 20>    C       -2.36070        -1.54400        -1.86658
| 21>    C       -3.56607        -2.30682        -1.97335
| 22>    N       -4.56151        -2.88872        -2.11708
| 23>    C       -1.60156        -1.49160        -3.07605
| 24>    N       -1.00053        -1.49487        -4.07139
| 25>    C       -2.76300        -0.78845         0.52705
| 26>    C       -3.55451        -1.69272         1.18974
| 27>    C       -3.65822        -3.10397         1.03016
| 28>    C       -4.72326        -3.91077         1.44351
| 29>    C       -4.52509        -5.25843         1.09769
| 30>    C       -3.28533        -5.50043         0.45985
| 31>    S       -2.36584        -4.05105         0.28410
| 32>    C       -3.10275        -6.84681         0.10293
| 33>    C       -2.09082        -7.64728        -0.70029
| 34>    C       -0.71729        -7.75335        -0.03511
| 35>    C       -0.50116        -7.35913         1.28953
| 36>    C        0.75407        -7.51322         1.88403
| 37>    C        1.82781        -8.07457         1.18285
| 38>    C        3.16053        -8.30637         1.85437
| 39>    C        3.23134        -9.67744         2.54328
| 40>    C        1.60621        -8.46553        -0.14738
| 41>    C        0.36061        -8.29855        -0.74913
| 42>    C       -2.02790        -6.96942        -2.08153
| 43>    C       -2.92786        -7.30060        -3.10365
| 44>    C       -2.98342        -6.54403        -4.27470
| 45>    C       -2.15255        -5.42797        -4.46471
| 46>    C       -2.24648        -4.58183        -5.71646
| 47>    C       -3.64730        -4.00251        -5.96113
| 48>    C       -1.24109        -5.11476        -3.44625
| 49>    C       -1.17554        -5.87369        -2.27596
| 50>    C       -2.77840        -9.02816        -0.70693
| 51>    C       -4.02573        -8.98206        -0.01972
| 52>    C       -4.20162        -7.62156         0.44509
| 53>    S       -5.47617        -6.73173         1.23558
| 54>    C       -4.84045       -10.11942         0.09985
| 55>    C       -4.38829       -11.30616        -0.45725
| 56>    C       -5.08443       -12.68296        -0.48348
| 57>    C       -5.27261       -13.32589         0.90068
| 58>    C       -6.16068       -14.40202         1.04428
| 59>    C       -6.27538       -15.08271         2.25524
| 60>    C       -5.51237       -14.71189         3.37346
| 61>    C       -5.62601       -15.45136         4.69036
| 62>    C       -7.04560       -15.88241         5.06719
| 63>    C       -4.62541       -13.63496         3.22135
| 64>    C       -4.49986       -12.95576         2.00690
| 65>    C       -6.41314       -12.56416        -1.23932
| 66>    C       -6.55713       -12.97890        -2.56715
| 67>    C       -7.77588       -12.82393        -3.23400
| 68>    C       -8.88204       -12.24232        -2.60334
| 69>    C      -10.17289       -12.00826        -3.35141
| 70>    C      -10.18225       -10.65236        -4.07295
| 71>    C       -8.73130       -11.82815        -1.27031
| 72>    C       -7.52328       -11.99434        -0.59742
| 73>    C       -4.03961       -13.50034        -1.22484
| 74>    C       -2.94166       -12.72279        -1.56501
| 75>    C       -3.13379       -11.35530        -1.12967
| 76>    C       -2.32358       -10.21589        -1.25843
| 77>    S       -1.64687       -13.61373        -2.31786
| 78>    C       -2.58575       -15.09222        -2.16710
| 79>    C       -3.83880       -14.85145        -1.55477
| 80>    S       -4.74319       -16.31014        -1.36724
| 81>    C       -3.42432       -17.25567        -2.06958
| 82>    C       -2.36447       -16.44366        -2.48276
| 83>    C       -3.49482       -18.67539        -2.17377
| 84>    C       -4.25186       -19.56674        -1.45589
| 85>    C       -4.97189       -19.47112        -0.18896
| 86>    C       -4.62548       -18.68364         0.89493
| 87>    C       -5.37518       -18.66096         2.10991
| 88>    N       -5.97797       -18.60706         3.10255
| 89>    C       -3.42496       -17.90695         0.92584
| 90>    N       -2.42504       -17.31892         0.98839
| 91>    C       -5.96089       -20.57742        -0.16461
| 92>    C       -7.00108       -20.88033         0.72255
| 93>    C       -7.73340       -22.05638         0.51437
| 94>    C       -7.43466       -22.92977        -0.54214
| 95>    C       -6.39723       -22.63192        -1.43262
| 96>    C       -5.68025       -21.45715        -1.23433
| 97>    C       -4.55664       -20.91316        -2.04669
| 98>    O       -4.03261       -21.42254        -3.01547
| 99>    H       -0.76909         2.81076         1.60209
|100>    H        1.18247         3.37510         0.10068
|101>    H        1.70493         1.92730        -1.84348
|102>    H        0.33368        -0.06243        -2.36661
|103>    H       -4.12264        -1.26113         2.02397
|104>    H       -5.60995        -3.50370         1.92996
|105>    H       -1.31749        -6.92612         1.86928
|106>    H        0.90022        -7.18507         2.91678
|107>    H        3.34201        -7.51291         2.59777
|108>    H        3.96747        -8.22218         1.10704
|109>    H        2.45907        -9.76826         3.32334
|110>    H        4.21210        -9.84099         3.01830
|111>    H        3.05968       -10.48881         1.81854
|112>    H        2.42716        -8.90112        -0.72394
|113>    H        0.22539        -8.57775        -1.79595
|114>    H       -3.60200        -8.14941        -2.97770
|115>    H       -3.69595        -6.82364        -5.05505
|116>    H       -1.94349        -5.19234        -6.58695
|117>    H       -1.52031        -3.75788        -5.64353
|118>    H       -4.38496        -4.79504        -6.16291
|119>    H       -3.64670        -3.32252        -6.82765
|120>    H       -3.99956        -3.43900        -5.08309
|121>    H       -0.58216        -4.25221        -3.56801
|122>    H       -0.45959        -5.60093        -1.49763
|123>    H       -5.79666       -10.06618         0.62007
|124>    H       -6.78109       -14.70884         0.19976
|125>    H       -6.96961       -15.92128         2.32858
|126>    H       -5.19699       -14.81832         5.48465
|127>    H       -4.98968       -16.35298         4.64374
|128>    H       -7.73545       -15.02328         5.08170
|129>    H       -7.05652       -16.35149         6.06397
|130>    H       -7.43432       -16.63083         4.36210
|131>    H       -4.01747       -13.31682         4.07286
|132>    H       -3.79476       -12.12673         1.92359
|133>    H       -5.71379       -13.43101        -3.09110
|134>    H       -7.86693       -13.16957        -4.26733
|135>    H      -11.01986       -12.06204        -2.64681
|136>    H      -10.32714       -12.81555        -4.08623
|137>    H      -10.03687        -9.82769        -3.35736
|138>    H      -11.13234       -10.48325        -4.60489
|139>    H       -9.36590       -10.59283        -4.81024
|140>    H       -9.57910       -11.37436        -0.74925
|141>    H       -7.44506       -11.69654         0.44978
|142>    H       -1.36499       -10.27039        -1.77413
|143>    H       -1.46235       -16.84846        -2.94200
|144>    H       -2.92433       -19.12889        -2.99466
|145>    H       -7.25345       -20.22441         1.55401
|146>    H       -8.55185       -22.29927         1.19602
|147>    H       -8.01847       -23.84407        -0.66849
|148>    H       -6.13867       -23.29233        -2.26308
|149> *
|150> 
|151>                          ****END OF INPUT****
================================================================================

                       ****************************
                       * Single Point Calculation *
                       ****************************

---------------------------------
CARTESIAN COORDINATES (ANGSTROEM)
---------------------------------
  C     -2.433420    0.514050    1.198710
  O     -2.966200    0.984860    2.182110
  C     -1.272330    1.064810    0.447060
  C     -0.513990    2.193100    0.738490
  C      0.562590    2.498750   -0.101350
  C      0.856080    1.679890   -1.201920
  C      0.081780    0.552140   -1.504050
  C     -0.995920    0.240250   -0.666510
  C     -2.019720   -0.833400   -0.729230
  C     -2.360700   -1.544000   -1.866580
  C     -3.566070   -2.306820   -1.973350
  N     -4.561510   -2.888720   -2.117080
  C     -1.601560   -1.491600   -3.076050
  N     -1.000530   -1.494870   -4.071390
  C     -2.763000   -0.788450    0.527050
  C     -3.554510   -1.692720    1.189740
  C     -3.658220   -3.103970    1.030160
  C     -4.723260   -3.910770    1.443510
  C     -4.525090   -5.258430    1.097690
  C     -3.285330   -5.500430    0.459850
  S     -2.365840   -4.051050    0.284100
  C     -3.102750   -6.846810    0.102930
  C     -2.090820   -7.647280   -0.700290
  C     -0.717290   -7.753350   -0.035110
  C     -0.501160   -7.359130    1.289530
  C      0.754070   -7.513220    1.884030
  C      1.827810   -8.074570    1.182850
  C      3.160530   -8.306370    1.854370
  C      3.231340   -9.677440    2.543280
  C      1.606210   -8.465530   -0.147380
  C      0.360610   -8.298550   -0.749130
  C     -2.027900   -6.969420   -2.081530
  C     -2.927860   -7.300600   -3.103650
  C     -2.983420   -6.544030   -4.274700
  C     -2.152550   -5.427970   -4.464710
  C     -2.246480   -4.581830   -5.716460
  C     -3.647300   -4.002510   -5.961130
  C     -1.241090   -5.114760   -3.446250
  C     -1.175540   -5.873690   -2.275960
  C     -2.778400   -9.028160   -0.706930
  C     -4.025730   -8.982060   -0.019720
  C     -4.201620   -7.621560    0.445090
  S     -5.476170   -6.731730    1.235580
  C     -4.840450  -10.119420    0.099850
  C     -4.388290  -11.306160   -0.457250
  C     -5.084430  -12.682960   -0.483480
  C     -5.272610  -13.325890    0.900680
  C     -6.160680  -14.402020    1.044280
  C     -6.275380  -15.082710    2.255240
  C     -5.512370  -14.711890    3.373460
  C     -5.626010  -15.451360    4.690360
  C     -7.045600  -15.882410    5.067190
  C     -4.625410  -13.634960    3.221350
  C     -4.499860  -12.955760    2.006900
  C     -6.413140  -12.564160   -1.239320
  C     -6.557130  -12.978900   -2.567150
  C     -7.775880  -12.823930   -3.234000
  C     -8.882040  -12.242320   -2.603340
  C    -10.172890  -12.008260   -3.351410
  C    -10.182250  -10.652360   -4.072950
  C     -8.731300  -11.828150   -1.270310
  C     -7.523280  -11.994340   -0.597420
  C     -4.039610  -13.500340   -1.224840
  C     -2.941660  -12.722790   -1.565010
  C     -3.133790  -11.355300   -1.129670
  C     -2.323580  -10.215890   -1.258430
  S     -1.646870  -13.613730   -2.317860
  C     -2.585750  -15.092220   -2.167100
  C     -3.838800  -14.851450   -1.554770
  S     -4.743190  -16.310140   -1.367240
  C     -3.424320  -17.255670   -2.069580
  C     -2.364470  -16.443660   -2.482760
  C     -3.494820  -18.675390   -2.173770
  C     -4.251860  -19.566740   -1.455890
  C     -4.971890  -19.471120   -0.188960
  C     -4.625480  -18.683640    0.894930
  C     -5.375180  -18.660960    2.109910
  N     -5.977970  -18.607060    3.102550
  C     -3.424960  -17.906950    0.925840
  N     -2.425040  -17.318920    0.988390
  C     -5.960890  -20.577420   -0.164610
  C     -7.001080  -20.880330    0.722550
  C     -7.733400  -22.056380    0.514370
  C     -7.434660  -22.929770   -0.542140
  C     -6.397230  -22.631920   -1.432620
  C     -5.680250  -21.457150   -1.234330
  C     -4.556640  -20.913160   -2.046690
  O     -4.032610  -21.422540   -3.015470
  H     -0.769090    2.810760    1.602090
  H      1.182470    3.375100    0.100680
  H      1.704930    1.927300   -1.843480
  H      0.333680   -0.062430   -2.366610
  H     -4.122640   -1.261130    2.023970
  H     -5.609950   -3.503700    1.929960
  H     -1.317490   -6.926120    1.869280
  H      0.900220   -7.185070    2.916780
  H      3.342010   -7.512910    2.597770
  H      3.967470   -8.222180    1.107040
  H      2.459070   -9.768260    3.323340
  H      4.212100   -9.840990    3.018300
  H      3.059680  -10.488810    1.818540
  H      2.427160   -8.901120   -0.723940
  H      0.225390   -8.577750   -1.795950
  H     -3.602000   -8.149410   -2.977700
  H     -3.695950   -6.823640   -5.055050
  H     -1.943490   -5.192340   -6.586950
  H     -1.520310   -3.757880   -5.643530
  H     -4.384960   -4.795040   -6.162910
  H     -3.646700   -3.322520   -6.827650
  H     -3.999560   -3.439000   -5.083090
  H     -0.582160   -4.252210   -3.568010
  H     -0.459590   -5.600930   -1.497630
  H     -5.796660  -10.066180    0.620070
  H     -6.781090  -14.708840    0.199760
  H     -6.969610  -15.921280    2.328580
  H     -5.196990  -14.818320    5.484650
  H     -4.989680  -16.352980    4.643740
  H     -7.735450  -15.023280    5.081700
  H     -7.056520  -16.351490    6.063970
  H     -7.434320  -16.630830    4.362100
  H     -4.017470  -13.316820    4.072860
  H     -3.794760  -12.126730    1.923590
  H     -5.713790  -13.431010   -3.091100
  H     -7.866930  -13.169570   -4.267330
  H    -11.019860  -12.062040   -2.646810
  H    -10.327140  -12.815550   -4.086230
  H    -10.036870   -9.827690   -3.357360
  H    -11.132340  -10.483250   -4.604890
  H     -9.365900  -10.592830   -4.810240
  H     -9.579100  -11.374360   -0.749250
  H     -7.445060  -11.696540    0.449780
  H     -1.364990  -10.270390   -1.774130
  H     -1.462350  -16.848460   -2.942000
  H     -2.924330  -19.128890   -2.994660
  H     -7.253450  -20.224410    1.554010
  H     -8.551850  -22.299270    1.196020
  H     -8.018470  -23.844070   -0.668490
  H     -6.138670  -23.292330   -2.263080

----------------------------
CARTESIAN COORDINATES (A.U.)
----------------------------
  NO LB      ZA    FRAG     MASS         X           Y           Z
   0 C     6.0000    0    12.011   -4.598497    0.971414    2.265234
   1 O     8.0000    0    15.999   -5.605306    1.861116    4.123590
   2 C     6.0000    0    12.011   -2.404355    2.012199    0.844821
   3 C     6.0000    0    12.011   -0.971300    4.144358    1.395544
   4 C     6.0000    0    12.011    1.063141    4.721953   -0.191524
   5 C     6.0000    0    12.011    1.617757    3.174532   -2.271300
   6 C     6.0000    0    12.011    0.154542    1.043393   -2.842243
   7 C     6.0000    0    12.011   -1.882016    0.454007   -1.259521
   8 C     6.0000    0    12.011   -3.816718   -1.574898   -1.378045
   9 C     6.0000    0    12.011   -4.461076   -2.917737   -3.527325
  10 C     6.0000    0    12.011   -6.738896   -4.359258   -3.729091
  11 N     7.0000    0    14.007   -8.620005   -5.458890   -4.000701
  12 C     6.0000    0    12.011   -3.026510   -2.818716   -5.812892
  13 N     7.0000    0    14.007   -1.890728   -2.824895   -7.693812
  14 C     6.0000    0    12.011   -5.221313   -1.489955    0.995980
  15 C     6.0000    0    12.011   -6.717050   -3.198777    2.248283
  16 C     6.0000    0    12.011   -6.913034   -5.865653    1.946720
  17 C     6.0000    0    12.011   -8.925668   -7.390284    2.727839
  18 C     6.0000    0    12.011   -8.551181   -9.936993    2.074333
  19 C     6.0000    0    12.011   -6.208374  -10.394306    0.868991
  20 S    16.0000    0    32.060   -4.470790   -7.655375    0.536871
  21 C     6.0000    0    12.011   -5.863348  -12.938596    0.194510
  22 C     6.0000    0    12.011   -3.951077  -14.451265   -1.323356
  23 C     6.0000    0    12.011   -1.355482  -14.651708   -0.066348
  24 C     6.0000    0    12.011   -0.947055  -13.906740    2.436859
  25 C     6.0000    0    12.011    1.424986  -14.197928    3.560301
  26 C     6.0000    0    12.011    3.454060  -15.258726    2.235263
  27 C     6.0000    0    12.011    5.972536  -15.696764    3.504251
  28 C     6.0000    0    12.011    6.106348  -18.287711    4.806103
  29 C     6.0000    0    12.011    3.035297  -15.997533   -0.278508
  30 C     6.0000    0    12.011    0.681454  -15.681987   -1.415651
  31 C     6.0000    0    12.011   -3.832176  -13.170295   -3.933522
  32 C     6.0000    0    12.011   -5.532854  -13.796135   -5.865049
  33 C     6.0000    0    12.011   -5.637847  -12.366425   -8.078012
  34 C     6.0000    0    12.011   -4.067730  -10.257377   -8.437079
  35 C     6.0000    0    12.011   -4.245232   -8.658404  -10.802544
  36 C     6.0000    0    12.011   -6.892398   -7.563648  -11.264903
  37 C     6.0000    0    12.011   -2.345320   -9.665496   -6.512469
  38 C     6.0000    0    12.011   -2.221449  -11.099665   -4.300941
  39 C     6.0000    0    12.011   -5.250415  -17.060750   -1.335904
  40 C     6.0000    0    12.011   -7.607527  -16.973634   -0.037265
  41 C     6.0000    0    12.011   -7.939911  -14.402661    0.841098
  42 S    16.0000    0    32.060  -10.348462  -12.721126    2.334908
  43 C     6.0000    0    12.011   -9.147125  -19.122932    0.188689
  44 C     6.0000    0    12.011   -8.292666  -21.365546   -0.864077
  45 C     6.0000    0    12.011   -9.608180  -23.967321   -0.913645
  46 C     6.0000    0    12.011   -9.963789  -25.182283    1.702039
  47 C     6.0000    0    12.011  -11.641998  -27.215874    1.973403
  48 C     6.0000    0    12.011  -11.858750  -28.502191    4.261786
  49 C     6.0000    0    12.011  -10.416870  -27.801443    6.374916
  50 C     6.0000    0    12.011  -10.631618  -29.198839    8.863496
  51 C     6.0000    0    12.011  -13.314254  -30.013405    9.575601
  52 C     6.0000    0    12.011   -8.740758  -25.766340    6.087469
  53 C     6.0000    0    12.011   -8.503503  -24.482838    3.792491
  54 C     6.0000    0    12.011  -12.119078  -23.742822   -2.341975
  55 C     6.0000    0    12.011  -12.391180  -24.526567   -4.851210
  56 C     6.0000    0    12.011  -14.694284  -24.233716   -6.111374
  57 C     6.0000    0    12.011  -16.784623  -23.134632   -4.919600
  58 C     6.0000    0    12.011  -19.223976  -22.692323   -6.333247
  59 C     6.0000    0    12.011  -19.241664  -20.130043   -7.696760
  60 C     6.0000    0    12.011  -16.499766  -22.351964   -2.400538
  61 C     6.0000    0    12.011  -14.216939  -22.666018   -1.128960
  62 C     6.0000    0    12.011   -7.633757  -25.511945   -2.314612
  63 C     6.0000    0    12.011   -5.558932  -24.042589   -2.957440
  64 C     6.0000    0    12.011   -5.922005  -21.458407   -2.134767
  65 C     6.0000    0    12.011   -4.390930  -19.305234   -2.378088
  66 S    16.0000    0    32.060   -3.112133  -25.726221   -4.380121
  67 C     6.0000    0    12.011   -4.886359  -28.520163   -4.095226
  68 C     6.0000    0    12.011   -7.254281  -28.065173   -2.938090
  69 S    16.0000    0    32.060   -8.963330  -30.821698   -2.583709
  70 C     6.0000    0    12.011   -6.471027  -32.608491   -3.910939
  71 C     6.0000    0    12.011   -4.468201  -31.074014   -4.691736
  72 C     6.0000    0    12.011   -6.604253  -35.291373   -4.107830
  73 C     6.0000    0    12.011   -8.034851  -36.975780   -2.751233
  74 C     6.0000    0    12.011   -9.395510  -36.795084   -0.357083
  75 C     6.0000    0    12.011   -8.740890  -35.306963    1.691173
  76 C     6.0000    0    12.011  -10.157618  -35.264104    3.987152
  77 N     7.0000    0    14.007  -11.296726  -35.162248    5.862970
  78 C     6.0000    0    12.011   -6.472236  -33.839231    1.749584
  79 N     7.0000    0    14.007   -4.582661  -32.728016    1.867786
  80 C     6.0000    0    12.011  -11.264450  -38.885688   -0.311068
  81 C     6.0000    0    12.011  -13.230124  -39.458105    1.365422
  82 C     6.0000    0    12.011  -14.614008  -41.680518    0.972018
  83 C     6.0000    0    12.011  -14.049471  -43.330986   -1.024496
  84 C     6.0000    0    12.011  -12.089013  -42.768131   -2.707259
  85 C     6.0000    0    12.011  -10.734117  -40.548137   -2.332546
  86 C     6.0000    0    12.011   -8.610802  -39.520145   -3.867684
  87 O     8.0000    0    15.999   -7.620529  -40.482734   -5.698412
  88 H     1.0000    0     1.008   -1.453369    5.311567    3.027511
  89 H     1.0000    0     1.008    2.234544    6.378015    0.190258
  90 H     1.0000    0     1.008    3.221851    3.642069   -3.483672
  91 H     1.0000    0     1.008    0.630564   -0.117976   -4.472245
  92 H     1.0000    0     1.008   -7.790661   -2.383190    3.824749
  93 H     1.0000    0     1.008  -10.601269   -6.621033    3.647096
  94 H     1.0000    0     1.008   -2.489695  -13.088470    3.532427
  95 H     1.0000    0     1.008    1.701169  -13.577815    5.511915
  96 H     1.0000    0     1.008    6.315484  -14.197342    4.909074
  97 H     1.0000    0     1.008    7.497432  -15.537668    2.092002
  98 H     1.0000    0     1.008    4.646969  -18.459336    6.280202
  99 H     1.0000    0     1.008    7.959715  -18.596776    5.703760
 100 H     1.0000    0     1.008    5.781957  -19.820978    3.436543
 101 H     1.0000    0     1.008    4.586668  -16.820679   -1.368048
 102 H     1.0000    0     1.008    0.425925  -16.209598   -3.393854
 103 H     1.0000    0     1.008   -6.806794  -15.400153   -5.627038
 104 H     1.0000    0     1.008   -6.984333  -12.894811   -9.552660
 105 H     1.0000    0     1.008   -3.672664   -9.812101  -12.447532
 106 H     1.0000    0     1.008   -2.872970   -7.101364  -10.664726
 107 H     1.0000    0     1.008   -8.286374   -9.061312  -11.646212
 108 H     1.0000    0     1.008   -6.891264   -6.278653  -12.902389
 109 H     1.0000    0     1.008   -7.558073   -6.498768   -9.605648
 110 H     1.0000    0     1.008   -1.100123   -8.035512   -6.742562
 111 H     1.0000    0     1.008   -0.868499  -10.584224   -2.830111
 112 H     1.0000    0     1.008  -10.954100  -19.022323    1.171762
 113 H     1.0000    0     1.008  -12.814403  -27.795679    0.377492
 114 H     1.0000    0     1.008  -13.170654  -30.086859    4.400378
 115 H     1.0000    0     1.008   -9.820888  -28.002567   10.364486
 116 H     1.0000    0     1.008   -9.429129  -30.902654    8.775397
 117 H     1.0000    0     1.008  -14.617882  -28.389885    9.603021
 118 H     1.0000    0     1.008  -13.334890  -30.899838   11.459243
 119 H     1.0000    0     1.008  -14.048829  -31.427714    8.243174
 120 H     1.0000    0     1.008   -7.591918  -25.165143    7.696590
 121 H     1.0000    0     1.008   -7.171057  -22.916199    3.635058
 122 H     1.0000    0     1.008  -10.797498  -25.380931   -5.841332
 123 H     1.0000    0     1.008  -14.866343  -24.886881   -8.064085
 124 H     1.0000    0     1.008  -20.824517  -22.793952   -5.001746
 125 H     1.0000    0     1.008  -19.515466  -24.217880   -7.721856
 126 H     1.0000    0     1.008  -18.966936  -18.571643   -6.344491
 127 H     1.0000    0     1.008  -21.037074  -19.810471   -8.701981
 128 H     1.0000    0     1.008  -17.698986  -20.017548   -9.090036
 129 H     1.0000    0     1.008  -18.101876  -21.494425   -1.415877
 130 H     1.0000    0     1.008  -14.069124  -22.103257    0.849961
 131 H     1.0000    0     1.008   -2.579457  -19.408224   -3.352620
 132 H     1.0000    0     1.008   -2.763441  -31.838975   -5.559574
 133 H     1.0000    0     1.008   -5.526183  -36.148363   -5.659087
 134 H     1.0000    0     1.008  -13.707034  -38.218596    2.936653
 135 H     1.0000    0     1.008  -16.160654  -42.139513    2.260150
 136 H     1.0000    0     1.008  -15.152712  -45.058762   -1.263263
 137 H     1.0000    0     1.008  -11.600405  -44.016125   -4.276601

--------------------------------
INTERNAL COORDINATES (ANGSTROEM)
--------------------------------
 C      0   0   0     0.000000000000     0.00000000     0.00000000
 O      1   0   0     1.213504076837     0.00000000     0.00000000
 C      1   2   0     1.488772745653   127.44673540     0.00000000
 C      3   1   2     1.390341441733   128.29938267     3.20367518
 C      4   3   1     1.399206076495   118.10756548   178.32166030
 C      5   4   3     1.402826576808   120.28900815   359.97451404
 C      6   5   4     1.400943642478   121.56426261     0.79775538
 C      7   6   5     1.400066396176   118.40847038   359.14678331
 C      8   7   6     1.484865165899   131.80068584   177.63764484
 C      9   8   7     1.383757472572   125.16499518   339.68108841
 C     10   9   8     1.430458325922   122.87719045   196.84726630
 N     11  10   9     1.161966745006   176.53390378   123.59206247
 C     10   9   8     1.428935611041   123.08948938    11.36132427
 N     13  10   9     1.162733619278   177.53047619   153.21681479
 C      9   8   7     1.460385257150   106.99764667   171.28454583
 C     15   9   8     1.372352122853   133.52428933   199.80570093
 C     16  15   9     1.424025316840   129.85890821    17.37314293
 C     17  16  15     1.398604541713   126.44317698   199.71704044
 C     18  17  16     1.405364826976   111.90510275   178.27433042
 C     19  18  17     1.415064918369   113.48145001     2.13912843
 S     20  19  18     1.725413662575   111.66297566   359.80468305
 C     20  19  18     1.404801212699   113.09737287   180.74136964
 C     22  20  19     1.519841081890   136.51761896   172.10631987
 C     23  22  20     1.529803888804   113.86114303    69.45588852
 C     24  23  22     1.398854072053   122.06814253    10.98841277
 C     25  24  23     1.397417736756   120.70153780   177.67969338
 C     26  25  24     1.399887424938   121.33908436   359.42657393
 C     27  26  25     1.510236057310   121.04383656   183.32246713
 C     28  27  26     1.536048172780   112.15432396    88.13486896
 C     27  26  25     1.404089788618   117.71899163     0.70796110
 C     30  27  26     1.393378894235   121.12214956     0.08971885
 C     23  22  20     1.539895140456   105.62859139   305.42933802
 C     32  23  22     1.401548246904   121.59339009   274.11041235
 C     33  32  23     1.395293224021   120.63159454   170.53276760
 C     34  33  32     1.404292946860   121.39517271   359.56789264
 C     35  34  33     1.513820929635   121.29134866   182.03938649
 C     36  35  34     1.535503742653   113.53083823    57.08612334
 C     35  34  33     1.402184227304   117.63555129     1.34563264
 C     38  35  34     1.396370377622   121.18818818   359.06896895
 C     23  22  20     1.542608155171   100.19317123   186.66694826
 C     40  23  22     1.424856106068   111.04822000     1.19715416
 C     22  20  19     1.387381095806   111.69107857     0.97614364
 S     42  22  20     1.743889208493   113.93698627   359.04052911
 C     41  40  23     1.404155772306   121.51977848   179.61946394
 C     44  41  40     1.386780769696   118.01909475     0.88044380
 C     45  44  41     1.543009122624   128.55761556   180.78053404
 C     46  45  44     1.537748224808   114.39155920   295.01173341
 C     47  46  45     1.402620783320   119.36766420   164.80824002
 C     48  47  46     1.393886325243   121.04509263   174.58393795
 C     49  48  47     1.403605251094   121.22351235     0.31016414
 C     50  49  48     1.514580978522   121.52842704   180.33467982
 C     51  50  49     1.530699421670   114.90550735   321.21378654
 C     50  49  48     1.403429270965   117.38311666   359.64943647
 C     53  50  49     1.397127139884   121.60422986   359.88184670
 C     46  45  44     1.533257254899   109.28176128    61.10641686
 C     55  46  45     1.398525972801   122.29573491   100.89232088
 C     56  55  46     1.397875597433   120.65179192   181.60709763
 C     57  56  55     1.399854340030   121.33778517     0.54057549
 C     58  57  56     1.510194203075   121.10829870   176.61056012
 C     59  58  57     1.535959762233   112.00719872   272.42976204
 C     58  57  56     1.404004386532   117.74051399   359.46625368
 C     61  58  57     1.392735577416   121.10738369   359.80452382
 C     46  45  44     1.519662313279   100.25551846   180.49398413
 C     63  46  45     1.387729740944   111.23414827   359.83969574
 C     45  44  41     1.424195789209   120.42407383   359.90766589
 C     40  23  22     1.386259728658   128.49416441   182.10144209
 S     64  63  46     1.742710059132   114.03384952   175.82671308
 C     67  64  63     1.757884214646    89.77731947   359.46852549
 C     63  46  45     1.405231900115   136.88162801   172.93343735
 S     69  63  46     1.726518256231   135.39597261     4.61464131
 C     70  69  63     1.768255222925    91.02762276   182.88272458
 C     71  70  69     1.397626550621   111.86077925   357.25796620
 C     71  70  69     1.425282668280   121.65344563   177.27002573
 C     73  71  70     1.372212111337   129.50027767   337.25188520
 C     74  73  71     1.460375982478   133.10473252   343.05519959
 C     75  74  73     1.383814355541   126.39479244   328.94028884
 C     76  75  74     1.427844834987   122.96280510   180.91832253
 N     77  76  75     1.162581250365   178.20586790   214.95481632
 C     76  75  74     1.430192663455   122.41841021   355.77068386
 N     79  76  75     1.161693500800   176.93857778   256.71261758
 C     75  74  73     1.484120484496   107.09667218   160.92922162
 C     81  75  74     1.400286602735   131.81020028   187.85627862
 C     82  81  75     1.400972910980   118.40790301   183.34985312
 C     83  82  81     1.402950127339   121.54626570     0.80549283
 C     84  83  82     1.399260611109   120.30503965   359.12247094
 C     85  84  83     1.390490488065   118.12404589     0.15035855
 C     86  85  84     1.489413751044   128.30049668   180.97174260
 O     87  86  85     1.213511480663   127.43680792   357.58887368
 H      4   3   1     1.091963756541   119.82692068   358.22368102
 H      5   4   3     1.092271329753   120.05965195   180.28589808
 H      6   5   4     1.092408927188   119.41399216   180.49792430
 H      7   6   5     1.088650379369   119.82972951   179.86052717
 H     16  15   9     1.097716410509   113.97971588   191.41698721
 H     18  17  16     1.090210412489   122.39982171     1.07186983
 H     25  24  23     1.090872307605   119.96715289   357.67215632
 H     26  25  24     1.093441725699   119.26058838   179.20998105
 H     28  27  26     1.102341744651   109.55205588   326.43273575
 H     28  27  26     1.103060401157   109.42631740   210.19895502
 H     29  28  27     1.101427632167   111.03351941   299.56393394
 H     29  28  27     1.101944998854   111.52100399   179.25682549
 H     29  28  27     1.101379362481   110.80903051    58.60327303
 H     30  27  26     1.093672247156   119.46402321   179.58904392
 H     31  30  27     1.091819216171   119.61258681   177.79080874
 H     33  32  23     1.091240834188   119.75626365   351.41285234
 H     34  33  32     1.093081367282   119.10553942   180.10179915
 H     36  35  34     1.105566931624   108.98980180   294.82064200
 H     36  35  34     1.100697622556   108.82541515   179.00589517
 H     37  36  35     1.101345197883   111.63743676   294.71874401
 H     37  36  35     1.101473408894   110.96332320   174.84115209
 H     37  36  35     1.101174313767   110.96829347    54.56905559
 H     38  35  34     1.092248481345   119.18142224   179.96244045
 H     39  38  35     1.092144683181   119.49273589   180.40655472
 H     44  41  40     1.089862794163   120.67345522   180.60788526
 H     48  47  46     1.091907098109   119.74575110   353.98258939
 H     49  48  47     1.091115802012   119.08201862   180.57007788
 H     51  50  49     1.102585328263   108.47280091   197.40866041
 H     51  50  49     1.104539685887   108.57914231    82.69612900
 H     52  51  50     1.101911030664   111.36382207   304.27142644
 H     52  51  50     1.101692180784   110.59941665   183.80373363
 H     52  51  50     1.099266866098   111.20890620    65.46578615
 H     53  50  49     1.093559958713   119.35300623   179.80446490
 H     54  53  50     1.091511478181   119.57955001   180.40081358
 H     56  55  46     1.090939691367   119.95397448     1.78464264
 H     57  56  55     1.093402030819   119.23501541   180.88219298
 H     59  58  57     1.103046521820   109.41147019   150.46103716
 H     59  58  57     1.102483849768   109.64899620    34.10171998
 H     60  59  58     1.101492170376   110.78897320   301.39882187
 H     60  59  58     1.101920761126   111.56185097   180.77172982
 H     60  59  58     1.101620482517   110.95232274    60.41216350
 H     61  58  57     1.093706417509   119.43945449   180.27606552
 H     62  61  58     1.091526934345   119.54608194   182.22411579
 H     66  40  23     1.089867665407   121.30957220   359.93576583
 H     72  71  70     1.090222414006   122.43149118   180.11875807
 H     73  71  70     1.097716485346   116.13435820   151.94498157
 H     82  81  75     1.088690679165   121.71747667     3.87708103
 H     83  82  81     1.092475481235   119.04697383   180.43365206
 H     84  83  82     1.092127707093   119.63462834   179.28596985
 H     85  84  83     1.092089031764   122.05590519   179.84441921

---------------------------
INTERNAL COORDINATES (A.U.)
---------------------------
 C      0   0   0     0.000000000000     0.00000000     0.00000000
 O      1   0   0     2.293190367619     0.00000000     0.00000000
 C      1   2   0     2.813372764931   127.44673540     0.00000000
 C      3   1   2     2.627364557516   128.29938267     3.20367518
 C      4   3   1     2.644116289494   118.10756548   178.32166030
 C      5   4   3     2.650958043554   120.28900815   359.97451404
 C      6   5   4     2.647399813342   121.56426261     0.79775538
 C      7   6   5     2.645742058078   118.40847038   359.14678331
 C      8   7   6     2.805988509348   131.80068584   177.63764484
 C      9   8   7     2.614922658929   125.16499518   339.68108841
 C     10   9   8     2.703174481980   122.87719045   196.84726630
 N     11  10   9     2.195798924785   176.53390378   123.59206247
 C     10   9   8     2.700296967874   123.08948938    11.36132427
 N     13  10   9     2.197248107139   177.53047619   153.21681479
 C      9   8   7     2.759728186029   106.99764667   171.28454583
 C     15   9   8     2.593369671498   133.52428933   199.80570093
 C     16  15   9     2.691017856597   129.85890821    17.37314293
 C     17  16  15     2.642979553496   126.44317698   199.71704044
 C     18  17  16     2.655754641229   111.90510275   178.27433042
 C     19  18  17     2.674085157438   113.48145001     2.13912843
 S     20  19  18     3.260559289993   111.66297566   359.80468305
 C     20  19  18     2.654689564601   113.09737287   180.74136964
 C     22  20  19     2.872083411854   136.51761896   172.10631987
 C     23  22  20     2.890910388447   113.86114303    69.45588852
 C     24  23  22     2.643451097501   122.06814253    10.98841277
 C     25  24  23     2.640736817153   120.70153780   177.67969338
 C     26  25  24     2.645403851453   121.33908436   359.42657393
 C     27  26  25     2.853932545889   121.04383656   183.32246713
 C     28  27  26     2.902710375064   112.15432396    88.13486896
 C     27  26  25     2.653345167922   117.71899163     0.70796110
 C     30  27  26     2.633104510890   121.12214956     0.08971885
 C     23  22  20     2.909980090418   105.62859139   305.42933802
 C     32  23  22     2.648542350126   121.59339009   274.11041235
 C     33  32  23     2.636722069916   120.63159454   170.53276760
 C     34  33  32     2.653729081362   121.39517271   359.56789264
 C     35  34  33     2.860706972808   121.29134866   182.03938649
 C     36  35  34     2.901681551224   113.53083823    57.08612334
 C     35  34  33     2.649744178908   117.63555129     1.34563264
 C     38  35  34     2.638757595226   121.18818818   359.06896895
 C     23  22  20     2.915106945227   100.19317123   186.66694826
 C     40  23  22     2.692587820714   111.04822000     1.19715416
 C     22  20  19     2.621770314453   111.69107857     0.97614364
 S     42  22  20     3.295473011953   113.93698627   359.04052911
 C     41  40  23     2.653469859023   121.51977848   179.61946394
 C     44  41  40     2.620635862515   118.01909475     0.88044380
 C     45  44  41     2.915864663901   128.55761556   180.78053404
 C     46  45  44     2.905923007811   114.39155920   295.01173341
 C     47  46  45     2.650569150220   119.36766420   164.80824002
 C     48  47  46     2.634063416528   121.04509263   174.58393795
 C     49  48  47     2.652429524702   121.22351235     0.31016414
 C     50  49  48     2.862143257053   121.52842704   180.33467982
 C     51  50  49     2.892602700307   114.90550735   321.21378654
 C     50  49  48     2.652096970452   117.38311666   359.64943647
 C     53  50  49     2.640187668649   121.60422986   359.88184670
 C     46  45  44     2.897436304607   109.28176128    61.10641686
 C     55  46  45     2.642831079770   122.29573491   100.89232088
 C     56  55  46     2.641602048441   120.65179192   181.60709763
 C     57  56  55     2.645341330037   121.33778517     0.54057549
 C     58  57  56     2.853853452846   121.10829870   176.61056012
 C     59  58  57     2.902543303344   112.00719872   272.42976204
 C     58  57  56     2.653183781369   117.74051399   359.46625368
 C     61  58  57     2.631888818285   121.10738369   359.80452382
 C     46  45  44     2.871745588138   100.25551846   180.49398413
 C     63  46  45     2.622429158281   111.23414827   359.83969574
 C     45  44  41     2.691340002688   120.42407383   359.90766589
 C     40  23  22     2.619651237648   128.49416441   182.10144209
 S     64  63  46     3.293244742589   114.03384952   175.82671308
 C     67  64  63     3.321919740823    89.77731947   359.46852549
 C     63  46  45     2.655503445867   136.88162801   172.93343735
 S     69  63  46     3.262646669492   135.39597261     4.61464131
 C     70  69  63     3.341518106203    91.02762276   182.88272458
 C     71  70  69     2.641131418170   111.86077925   357.25796620
 C     71  70  69     2.693393906474   121.65344563   177.27002573
 C     73  71  70     2.593105088077   129.50027767   337.25188520
 C     74  73  71     2.759710659441   133.10473252   343.05519959
 C     75  74  73     2.615030152160   126.39479244   328.94028884
 C     76  75  74     2.698235699860   122.96280510   180.91832253
 N     77  76  75     2.196960171621   178.20586790   214.95481632
 C     76  75  74     2.702672452673   122.41841021   355.77068386
 N     79  76  75     2.195282568067   176.93857778   256.71261758
 C     75  74  73     2.804581265440   107.09667218   160.92922162
 C     81  75  74     2.646158188169   131.81020028   187.85627862
 C     82  81  75     2.647455122795   118.40790301   183.34985312
 C     83  82  81     2.651191520220   121.54626570     0.80549283
 C     84  83  82     2.644219344979   120.30503965   359.12247094
 C     85  84  83     2.627646214266   118.12404589     0.15035855
 C     86  85  84     2.814584089570   128.30049668   180.97174260
 O     87  86  85     2.293204358822   127.43680792   357.58887368
 H      4   3   1     2.063512448031   119.82692068   358.22368102
 H      5   4   3     2.064093677167   120.05965195   180.28589808
 H      6   5   4     2.064353698636   119.41399216   180.49792430
 H      7   6   5     2.057251072597   119.82972951   179.86052717
 H     16  15   9     2.074383388572   113.97971588   191.41698721
 H     18  17  16     2.060199107954   122.39982171     1.07186983
 H     25  24  23     2.061449908453   119.96715289   357.67215632
 H     26  25  24     2.066305404974   119.26058838   179.20998105
 H     28  27  26     2.083124003379   109.55205588   326.43273575
 H     28  27  26     2.084482067359   109.42631740   210.19895502
 H     29  28  27     2.081396581128   111.03351941   299.56393394
 H     29  28  27     2.082374262479   111.52100399   179.25682549
 H     29  28  27     2.081305364643   110.80903051    58.60327303
 H     30  27  26     2.066741027396   119.46402321   179.58904392
 H     31  30  27     2.063239306316   119.61258681   177.79080874
 H     33  32  23     2.062146322768   119.75626365   351.41285234
 H     34  33  32     2.065624426256   119.10553942   180.10179915
 H     36  35  34     2.089218723489   108.98980180   294.82064200
 H     36  35  34     2.080017062889   108.82541515   179.00589517
 H     37  36  35     2.081240802908   111.63743676   294.71874401
 H     37  36  35     2.081483086606   110.96332320   174.84115209
 H     37  36  35     2.080917878728   110.96829347    54.56905559
 H     38  35  34     2.064050499933   119.18142224   179.96244045
 H     39  38  35     2.063854349830   119.49273589   180.40655472
 H     44  41  40     2.059542204518   120.67345522   180.60788526
 H     48  47  46     2.063405379110   119.74575110   353.98258939
 H     49  48  47     2.061910046196   119.08201862   180.57007788
 H     51  50  49     2.083584309696   108.47280091   197.40866041
 H     51  50  49     2.087277510374   108.57914231    82.69612900
 H     52  51  50     2.082310071903   111.36382207   304.27142644
 H     52  51  50     2.081896505564   110.59941665   183.80373363
 H     52  51  50     2.077313325018   111.20890620    65.46578615
 H     53  50  49     2.066528832989   119.35300623   179.80446490
 H     54  53  50     2.062657765793   119.57955001   180.40081358
 H     56  55  46     2.061577245308   119.95397448     1.78464264
 H     57  56  55     2.066230392522   119.23501541   180.88219298
 H     59  58  57     2.084455839215   109.41147019   150.46103716
 H     59  58  57     2.083392543133   109.64899620    34.10171998
 H     60  59  58     2.081518540669   110.78897320   301.39882187
 H     60  59  58     2.082328459810   111.56185097   180.77172982
 H     60  59  58     2.081761015474   110.95232274    60.41216350
 H     61  58  57     2.066805600004   119.43945449   180.27606552
 H     62  61  58     2.062686973710   119.54608194   182.22411579
 H     66  40  23     2.059551409836   121.30957220   359.93576583
 H     72  71  70     2.060221787533   122.43149118   180.11875807
 H     73  71  70     2.074383529994   116.13435820   151.94498157
 H     82  81  75     2.057327228174   121.71747667     3.87708103
 H     83  82  81     2.064479467558   119.04697383   180.43365206
 H     84  83  82     2.063822269673   119.63462834   179.28596985
 H     85  84  83     2.063749183894   122.05590519   179.84441921

---------------------
BASIS SET INFORMATION
---------------------
There are 5 groups of distinct atoms

 Group   1 Type C   : 7s4p1d contracted to 3s2p1d pattern {511/31/1}
 Group   2 Type O   : 7s4p1d contracted to 3s2p1d pattern {511/31/1}
 Group   3 Type N   : 7s4p1d contracted to 3s2p1d pattern {511/31/1}
 Group   4 Type S   : 10s7p1d contracted to 4s3p1d pattern {5311/511/1}
 Group   5 Type H   : 4s1p contracted to 2s1p pattern {31/1}

Atom   0C    basis set group =>   1
Atom   1O    basis set group =>   2
Atom   2C    basis set group =>   1
Atom   3C    basis set group =>   1
Atom   4C    basis set group =>   1
Atom   5C    basis set group =>   1
Atom   6C    basis set group =>   1
Atom   7C    basis set group =>   1
Atom   8C    basis set group =>   1
Atom   9C    basis set group =>   1
Atom  10C    basis set group =>   1
Atom  11N    basis set group =>   3
Atom  12C    basis set group =>   1
Atom  13N    basis set group =>   3
Atom  14C    basis set group =>   1
Atom  15C    basis set group =>   1
Atom  16C    basis set group =>   1
Atom  17C    basis set group =>   1
Atom  18C    basis set group =>   1
Atom  19C    basis set group =>   1
Atom  20S    basis set group =>   4
Atom  21C    basis set group =>   1
Atom  22C    basis set group =>   1
Atom  23C    basis set group =>   1
Atom  24C    basis set group =>   1
Atom  25C    basis set group =>   1
Atom  26C    basis set group =>   1
Atom  27C    basis set group =>   1
Atom  28C    basis set group =>   1
Atom  29C    basis set group =>   1
Atom  30C    basis set group =>   1
Atom  31C    basis set group =>   1
Atom  32C    basis set group =>   1
Atom  33C    basis set group =>   1
Atom  34C    basis set group =>   1
Atom  35C    basis set group =>   1
Atom  36C    basis set group =>   1
Atom  37C    basis set group =>   1
Atom  38C    basis set group =>   1
Atom  39C    basis set group =>   1
Atom  40C    basis set group =>   1
Atom  41C    basis set group =>   1
Atom  42S    basis set group =>   4
Atom  43C    basis set group =>   1
Atom  44C    basis set group =>   1
Atom  45C    basis set group =>   1
Atom  46C    basis set group =>   1
Atom  47C    basis set group =>   1
Atom  48C    basis set group =>   1
Atom  49C    basis set group =>   1
Atom  50C    basis set group =>   1
Atom  51C    basis set group =>   1
Atom  52C    basis set group =>   1
Atom  53C    basis set group =>   1
Atom  54C    basis set group =>   1
Atom  55C    basis set group =>   1
Atom  56C    basis set group =>   1
Atom  57C    basis set group =>   1
Atom  58C    basis set group =>   1
Atom  59C    basis set group =>   1
Atom  60C    basis set group =>   1
Atom  61C    basis set group =>   1
Atom  62C    basis set group =>   1
Atom  63C    basis set group =>   1
Atom  64C    basis set group =>   1
Atom  65C    basis set group =>   1
Atom  66S    basis set group =>   4
Atom  67C    basis set group =>   1
Atom  68C    basis set group =>   1
Atom  69S    basis set group =>   4
Atom  70C    basis set group =>   1
Atom  71C    basis set group =>   1
Atom  72C    basis set group =>   1
Atom  73C    basis set group =>   1
Atom  74C    basis set group =>   1
Atom  75C    basis set group =>   1
Atom  76C    basis set group =>   1
Atom  77N    basis set group =>   3
Atom  78C    basis set group =>   1
Atom  79N    basis set group =>   3
Atom  80C    basis set group =>   1
Atom  81C    basis set group =>   1
Atom  82C    basis set group =>   1
Atom  83C    basis set group =>   1
Atom  84C    basis set group =>   1
Atom  85C    basis set group =>   1
Atom  86C    basis set group =>   1
Atom  87O    basis set group =>   2
Atom  88H    basis set group =>   5
Atom  89H    basis set group =>   5
Atom  90H    basis set group =>   5
Atom  91H    basis set group =>   5
Atom  92H    basis set group =>   5
Atom  93H    basis set group =>   5
Atom  94H    basis set group =>   5
Atom  95H    basis set group =>   5
Atom  96H    basis set group =>   5
Atom  97H    basis set group =>   5
Atom  98H    basis set group =>   5
Atom  99H    basis set group =>   5
Atom 100H    basis set group =>   5
Atom 101H    basis set group =>   5
Atom 102H    basis set group =>   5
Atom 103H    basis set group =>   5
Atom 104H    basis set group =>   5
Atom 105H    basis set group =>   5
Atom 106H    basis set group =>   5
Atom 107H    basis set group =>   5
Atom 108H    basis set group =>   5
Atom 109H    basis set group =>   5
Atom 110H    basis set group =>   5
Atom 111H    basis set group =>   5
Atom 112H    basis set group =>   5
Atom 113H    basis set group =>   5
Atom 114H    basis set group =>   5
Atom 115H    basis set group =>   5
Atom 116H    basis set group =>   5
Atom 117H    basis set group =>   5
Atom 118H    basis set group =>   5
Atom 119H    basis set group =>   5
Atom 120H    basis set group =>   5
Atom 121H    basis set group =>   5
Atom 122H    basis set group =>   5
Atom 123H    basis set group =>   5
Atom 124H    basis set group =>   5
Atom 125H    basis set group =>   5
Atom 126H    basis set group =>   5
Atom 127H    basis set group =>   5
Atom 128H    basis set group =>   5
Atom 129H    basis set group =>   5
Atom 130H    basis set group =>   5
Atom 131H    basis set group =>   5
Atom 132H    basis set group =>   5
Atom 133H    basis set group =>   5
Atom 134H    basis set group =>   5
Atom 135H    basis set group =>   5
Atom 136H    basis set group =>   5
Atom 137H    basis set group =>   5
---------------------------------
AUXILIARY/J BASIS SET INFORMATION
---------------------------------
There are 5 groups of distinct atoms

 Group   1 Type C   : 12s5p4d2f1g contracted to 6s4p3d1f1g pattern {711111/2111/211/2/1}
 Group   2 Type O   : 12s5p4d2f1g contracted to 6s4p3d1f1g pattern {711111/2111/211/2/1}
 Group   3 Type N   : 12s5p4d2f1g contracted to 6s4p3d1f1g pattern {711111/2111/211/2/1}
 Group   4 Type S   : 14s5p5d2f1g contracted to 8s4p3d1f1g pattern {71111111/2111/311/2/1}
 Group   5 Type H   : 5s2p1d contracted to 3s1p1d pattern {311/2/1}

Atom   0C    basis set group =>   1
Atom   1O    basis set group =>   2
Atom   2C    basis set group =>   1
Atom   3C    basis set group =>   1
Atom   4C    basis set group =>   1
Atom   5C    basis set group =>   1
Atom   6C    basis set group =>   1
Atom   7C    basis set group =>   1
Atom   8C    basis set group =>   1
Atom   9C    basis set group =>   1
Atom  10C    basis set group =>   1
Atom  11N    basis set group =>   3
Atom  12C    basis set group =>   1
Atom  13N    basis set group =>   3
Atom  14C    basis set group =>   1
Atom  15C    basis set group =>   1
Atom  16C    basis set group =>   1
Atom  17C    basis set group =>   1
Atom  18C    basis set group =>   1
Atom  19C    basis set group =>   1
Atom  20S    basis set group =>   4
Atom  21C    basis set group =>   1
Atom  22C    basis set group =>   1
Atom  23C    basis set group =>   1
Atom  24C    basis set group =>   1
Atom  25C    basis set group =>   1
Atom  26C    basis set group =>   1
Atom  27C    basis set group =>   1
Atom  28C    basis set group =>   1
Atom  29C    basis set group =>   1
Atom  30C    basis set group =>   1
Atom  31C    basis set group =>   1
Atom  32C    basis set group =>   1
Atom  33C    basis set group =>   1
Atom  34C    basis set group =>   1
Atom  35C    basis set group =>   1
Atom  36C    basis set group =>   1
Atom  37C    basis set group =>   1
Atom  38C    basis set group =>   1
Atom  39C    basis set group =>   1
Atom  40C    basis set group =>   1
Atom  41C    basis set group =>   1
Atom  42S    basis set group =>   4
Atom  43C    basis set group =>   1
Atom  44C    basis set group =>   1
Atom  45C    basis set group =>   1
Atom  46C    basis set group =>   1
Atom  47C    basis set group =>   1
Atom  48C    basis set group =>   1
Atom  49C    basis set group =>   1
Atom  50C    basis set group =>   1
Atom  51C    basis set group =>   1
Atom  52C    basis set group =>   1
Atom  53C    basis set group =>   1
Atom  54C    basis set group =>   1
Atom  55C    basis set group =>   1
Atom  56C    basis set group =>   1
Atom  57C    basis set group =>   1
Atom  58C    basis set group =>   1
Atom  59C    basis set group =>   1
Atom  60C    basis set group =>   1
Atom  61C    basis set group =>   1
Atom  62C    basis set group =>   1
Atom  63C    basis set group =>   1
Atom  64C    basis set group =>   1
Atom  65C    basis set group =>   1
Atom  66S    basis set group =>   4
Atom  67C    basis set group =>   1
Atom  68C    basis set group =>   1
Atom  69S    basis set group =>   4
Atom  70C    basis set group =>   1
Atom  71C    basis set group =>   1
Atom  72C    basis set group =>   1
Atom  73C    basis set group =>   1
Atom  74C    basis set group =>   1
Atom  75C    basis set group =>   1
Atom  76C    basis set group =>   1
Atom  77N    basis set group =>   3
Atom  78C    basis set group =>   1
Atom  79N    basis set group =>   3
Atom  80C    basis set group =>   1
Atom  81C    basis set group =>   1
Atom  82C    basis set group =>   1
Atom  83C    basis set group =>   1
Atom  84C    basis set group =>   1
Atom  85C    basis set group =>   1
Atom  86C    basis set group =>   1
Atom  87O    basis set group =>   2
Atom  88H    basis set group =>   5
Atom  89H    basis set group =>   5
Atom  90H    basis set group =>   5
Atom  91H    basis set group =>   5
Atom  92H    basis set group =>   5
Atom  93H    basis set group =>   5
Atom  94H    basis set group =>   5
Atom  95H    basis set group =>   5
Atom  96H    basis set group =>   5
Atom  97H    basis set group =>   5
Atom  98H    basis set group =>   5
Atom  99H    basis set group =>   5
Atom 100H    basis set group =>   5
Atom 101H    basis set group =>   5
Atom 102H    basis set group =>   5
Atom 103H    basis set group =>   5
Atom 104H    basis set group =>   5
Atom 105H    basis set group =>   5
Atom 106H    basis set group =>   5
Atom 107H    basis set group =>   5
Atom 108H    basis set group =>   5
Atom 109H    basis set group =>   5
Atom 110H    basis set group =>   5
Atom 111H    basis set group =>   5
Atom 112H    basis set group =>   5
Atom 113H    basis set group =>   5
Atom 114H    basis set group =>   5
Atom 115H    basis set group =>   5
Atom 116H    basis set group =>   5
Atom 117H    basis set group =>   5
Atom 118H    basis set group =>   5
Atom 119H    basis set group =>   5
Atom 120H    basis set group =>   5
Atom 121H    basis set group =>   5
Atom 122H    basis set group =>   5
Atom 123H    basis set group =>   5
Atom 124H    basis set group =>   5
Atom 125H    basis set group =>   5
Atom 126H    basis set group =>   5
Atom 127H    basis set group =>   5
Atom 128H    basis set group =>   5
Atom 129H    basis set group =>   5
Atom 130H    basis set group =>   5
Atom 131H    basis set group =>   5
Atom 132H    basis set group =>   5
Atom 133H    basis set group =>   5
Atom 134H    basis set group =>   5
Atom 135H    basis set group =>   5
Atom 136H    basis set group =>   5
Atom 137H    basis set group =>   5
------------------------------------------------------------------------------
                           ORCA GTO INTEGRAL CALCULATION
                           -- RI-GTO INTEGRALS CHOSEN --
------------------------------------------------------------------------------

                         BASIS SET STATISTICS AND STARTUP INFO

Gaussian basis set:
 # of primitive gaussian shells          ... 1330
 # of primitive gaussian functions       ... 2510
 # of contracted shells                  ...  686
 # of contracted basis functions         ... 1498
 Highest angular momentum                ...    2
 Maximum contraction depth               ...    5
Auxiliary gaussian basis set:
 # of primitive gaussian shells          ... 2524
 # of primitive gaussian functions       ... 6988
 # of contracted shells                  ... 1578
 # of contracted aux-basis functions     ... 4870
 Highest angular momentum                ...    4
 Maximum contraction depth               ...    7
Ratio of auxiliary to basis functions    ...  3.25
Integral package used                  ... LIBINT
 One Electron integrals                  ... done
 Ordering auxiliary basis shells         ... done
 Integral threshhold             Thresh  ...  2.500e-11
 Primitive cut-off               TCut    ...  2.500e-12
 Pre-screening matrix                    ... done
 Shell pair data                         ... 
 Ordering of the shell pairs             ... done (   0.019 sec) 79368 of 235641 pairs
 Determination of significant pairs      ... done (   0.000 sec)
 Creation of shell pair data             ... done (   0.011 sec)
 Storage of shell pair data              ... done (   0.020 sec)
 Shell pair data done in (   0.050 sec)
 Computing two index integrals           ... done
 Cholesky decomposition of the V-matrix  ... done


Timings:
 Total evaluation time                   ...   4.386 sec (  0.073 min)
 One electron matrix time                ...   1.204 sec (  0.020 min) = 27.5%
 Schwartz matrix evaluation time         ...   1.276 sec (  0.021 min) = 29.1%
 Two index repulsion integral time       ...   0.785 sec (  0.013 min) = 17.9%
 Cholesky decomposition of V             ...   1.052 sec (  0.018 min) = 24.0%
 Three index repulsion integral time     ...   0.000 sec (  0.000 min) =  0.0%

-------------------------------------------------------------------------------
                                 ORCA SCF
-------------------------------------------------------------------------------

------------
SCF SETTINGS
------------
Hamiltonian:
 Density Functional     Method          .... DFT(GTOs)
 Exchange Functional    Exchange        .... WB88
 Correlation Functional Correlation     .... LYP
 LDA part of GGA corr.  LDAOpt          .... VWN-5
 Gradients option       PostSCFGGA      .... off
 Hybrid DFT is turned on
   Fraction HF Exchange ScalHFX         ....  0.190000
   Scaling of DF-GGA-X  ScalDFX         ....  0.350000
   Scaling of DF-GGA-C  ScalDFC         ....  0.810000
   Scaling of DF-LDA-C  ScalLDAC        ....  1.000000
   Perturbative correction              ....  0.000000
   Density functional embedding theory  .... OFF
 Long-range corrected/Screened/Range-Separated Hybrid DFT is turned on
   Amount of maximum screened exact exchange              ....  0.460000
   Range separation parameter mu (erf(mu*r12)/r12)        ....  0.330000
 RI-approximation to the Coulomb term is turned on
   Number of auxiliary basis functions  .... 4870
   RIJ-COSX (HFX calculated with COS-X)).... on


General Settings:
 Integral files         IntName         .... ITIC
 Hartree-Fock type      HFTyp           .... RHF
 Total Charge           Charge          ....    0
 Multiplicity           Mult            ....    1
 Number of Electrons    NEL             ....  626
 Basis Dimension        Dim             .... 1498
 Nuclear Repulsion      ENuc            ....  15334.0957068177 Eh

Convergence Acceleration:
 DIIS                   CNVDIIS         .... on
   Start iteration      DIISMaxIt       ....    12
   Startup error        DIISStart       ....  0.200000
   # of expansion vecs  DIISMaxEq       ....     5
   Bias factor          DIISBfac        ....   1.050
   Max. coefficient     DIISMaxC        ....  10.000
 Newton-Raphson         CNVNR           .... off
 SOSCF                  CNVSOSCF        .... on
   Start iteration      SOSCFMaxIt      ....   150
   Startup grad/error   SOSCFStart      ....  0.003300
 Level Shifting         CNVShift        .... on
   Level shift para.    LevelShift      ....    0.2500
   Turn off err/grad.   ShiftErr        ....    0.0010
 Zerner damping         CNVZerner       .... off
 Static damping         CNVDamp         .... on
   Fraction old density DampFac         ....    0.7000
   Max. Damping (<1)    DampMax         ....    0.9800
   Min. Damping (>=0)   DampMin         ....    0.0000
   Turn off err/grad.   DampErr         ....    0.1000
 Fernandez-Rico         CNVRico         .... off

SCF Procedure:
 Maximum # iterations   MaxIter         ....   125
 SCF integral mode      SCFMode         .... Direct
   Integral package                     .... LIBINT
 Reset frequency        DirectResetFreq ....    20
 Integral Threshold     Thresh          ....  2.500e-11 Eh
 Primitive CutOff       TCut            ....  2.500e-12 Eh

Convergence Tolerance:
 Convergence Check Mode ConvCheckMode   .... Total+1el-Energy
 Convergence forced     ConvForced      .... 1
 Energy Change          TolE            ....  1.000e-08 Eh
 1-El. energy change                    ....  1.000e-05 Eh
 Orbital Gradient       TolG            ....  1.000e-05
 Orbital Rotation angle TolX            ....  1.000e-05
 DIIS Error             TolErr          ....  5.000e-07


Diagonalization of the overlap matrix:
Smallest eigenvalue                        ... 2.065e-04
Time for diagonalization                   ...    0.670 sec
Threshold for overlap eigenvalues          ... 1.000e-08
Number of eigenvalues below threshold      ... 0
Time for construction of square roots      ...    0.308 sec
Total time needed                          ...    0.990 sec

-------------------
DFT GRID GENERATION
-------------------

General Integration Accuracy     IntAcc      ...  4.670
Radial Grid Type                 RadialGrid  ... Gauss-Chebyshev
Angular Grid (max. acc.)         AngularGrid ... Lebedev-302
Angular grid pruning method      GridPruning ... 3 (G Style)
Weight generation scheme         WeightScheme... Becke
Basis function cutoff            BFCut       ...    1.0000e-11
Integration weight cutoff        WCut        ...    1.0000e-14
Grids for H and He will be reduced by one unit

# of grid points (after initial pruning)     ... 718892 (   2.3 sec)
# of grid points (after weights+screening)   ... 600372 (  50.0 sec)
nearest neighbour list constructed           ...    0.0 sec
Grid point re-assignment to atoms done       ...    0.1 sec
Grid point division into batches done        ...    2.0 sec
Reduced shell lists constructed in   12.9 sec

Total number of grid points                  ...   600372
Total number of batches                      ...     9453
Average number of points per batch           ...       63
Average number of grid points per atom       ...     4351
Average number of shells per batch           ...   116.43 (16.97%)
Average number of basis functions per batch  ...   234.41 (15.65%)
Average number of large shells per batch     ...    64.69 (55.56%)
Average number of large basis fcns per batch ...   133.09 (56.78%)
Maximum spatial batch extension              ...  22.01, 21.40, 22.50 au
Average spatial batch extension              ...   2.09,  2.03,  2.09 au

Time for grid setup =   65.231 sec

------------------------------
INITIAL GUESS: MODEL POTENTIAL
------------------------------
Loading Hartree-Fock densities                     ... done
Calculating cut-offs                               ... done
Setting up the integral package                    ... done
Initializing the effective Hamiltonian             ... done
Starting the Coulomb interaction                   ... done (  17.5 sec)
Reading the grid                                   ... done
Mapping shells                                     ... done
Starting the XC term evaluation                    ... done (  13.3 sec)
  promolecular density results
     # of electrons  =    625.973915829
     EX              =   -555.577594885
     EC              =    -21.411712057
     EX+EC           =   -576.989306941
Transforming the Hamiltonian                       ... done (   0.3 sec)
Diagonalizing the Hamiltonian                      ... done (   0.7 sec)
Back transforming the eigenvectors                 ... done (   0.1 sec)
Now organizing SCF variables                       ... done
                      ------------------
                      INITIAL GUESS DONE (  97.5 sec)
                      ------------------
--------------------
COSX GRID GENERATION
--------------------

General Integration Accuracy     IntAcc      ...  3.340
Radial Grid Type                 RadialGrid  ... Gauss-Chebyshev
Angular Grid (max. acc.)         AngularGrid ... Lebedev-50
Angular grid pruning method      GridPruning ... 3 (G Style)
Weight generation scheme         WeightScheme... Becke
Basis function cutoff            BFCut       ...    1.0000e-11
Integration weight cutoff        WCut        ...    1.0000e-14
Grids for H and He will be reduced by one unit

# of grid points (after initial pruning)     ...  67488 (   0.1 sec)
# of grid points (after weights+screening)   ...  59239 (   4.6 sec)
nearest neighbour list constructed           ...    0.0 sec
Grid point re-assignment to atoms done       ...    0.0 sec
Grid point division into batches done        ...    0.0 sec
Reduced shell lists constructed in    1.4 sec

Total number of grid points                  ...    59239
Total number of batches                      ...     1001
Average number of points per batch           ...       59
Average number of grid points per atom       ...      429
Average number of shells per batch           ...   144.57 (21.07%)
Average number of basis functions per batch  ...   293.58 (19.60%)
Average number of large shells per batch     ...    79.48 (54.98%)
Average number of large basis fcns per batch ...   165.66 (56.43%)
Maximum spatial batch extension              ...  19.85, 20.68, 18.23 au
Average spatial batch extension              ...   4.33,  4.18,  4.29 au

Overlap Fitting                  UseSFitting ... on
Constructing numerical overlap ... done (      1.1 sec)
Inverting numerical overlap    ... done (      0.1 sec)
Obtaining analytic overlap     ... done (      0.0 sec)
Final contraction and storage  ... done (      0.1 sec)


General Integration Accuracy     IntAcc      ...  3.670
Radial Grid Type                 RadialGrid  ... Gauss-Chebyshev
Angular Grid (max. acc.)         AngularGrid ... Lebedev-50
Angular grid pruning method      GridPruning ... 3 (G Style)
Weight generation scheme         WeightScheme... Becke
Basis function cutoff            BFCut       ...    1.0000e-11
Integration weight cutoff        WCut        ...    1.0000e-14
Grids for H and He will be reduced by one unit

# of grid points (after initial pruning)     ...  84632 (   0.1 sec)
# of grid points (after weights+screening)   ...  73953 (   5.8 sec)
nearest neighbour list constructed           ...    0.0 sec
Grid point re-assignment to atoms done       ...    0.0 sec
Grid point division into batches done        ...    0.0 sec
Reduced shell lists constructed in    1.7 sec

Total number of grid points                  ...    73953
Total number of batches                      ...     1215
Average number of points per batch           ...       60
Average number of grid points per atom       ...      536
Average number of shells per batch           ...   140.52 (20.48%)
Average number of basis functions per batch  ...   284.97 (19.02%)
Average number of large shells per batch     ...    77.27 (54.99%)
Average number of large basis fcns per batch ...   160.90 (56.46%)
Maximum spatial batch extension              ...  18.32, 19.47, 20.09 au
Average spatial batch extension              ...   4.04,  3.93,  4.04 au

Overlap Fitting                  UseSFitting ... on
Constructing numerical overlap ... done (      1.3 sec)
Inverting numerical overlap    ... done (      0.1 sec)
Obtaining analytic overlap     ... done (      0.0 sec)
Final contraction and storage  ... done (      0.1 sec)


General Integration Accuracy     IntAcc      ...  4.010
Radial Grid Type                 RadialGrid  ... Gauss-Chebyshev
Angular Grid (max. acc.)         AngularGrid ... Lebedev-110
Angular grid pruning method      GridPruning ... 3 (G Style)
Weight generation scheme         WeightScheme... Becke
Basis function cutoff            BFCut       ...    1.0000e-11
Integration weight cutoff        WCut        ...    1.0000e-14
Grids for H and He will be reduced by one unit

# of grid points (after initial pruning)     ... 163148 (   0.3 sec)
# of grid points (after weights+screening)   ... 141032 (  11.3 sec)
nearest neighbour list constructed           ...    0.0 sec
Grid point re-assignment to atoms done       ...    0.0 sec
Grid point division into batches done        ...    0.1 sec
Reduced shell lists constructed in    3.0 sec

Total number of grid points                  ...   141032
Total number of batches                      ...     2276
Average number of points per batch           ...       61
Average number of grid points per atom       ...     1022
Average number of shells per batch           ...   132.74 (19.35%)
Average number of basis functions per batch  ...   268.84 (17.95%)
Average number of large shells per batch     ...    73.83 (55.62%)
Average number of large basis fcns per batch ...   153.25 (57.00%)
Maximum spatial batch extension              ...  20.33, 21.07, 20.90 au
Average spatial batch extension              ...   3.36,  3.27,  3.37 au

Overlap Fitting                  UseSFitting ... on
Constructing numerical overlap ... done (      2.1 sec)
Inverting numerical overlap    ... done (      0.1 sec)
Obtaining analytic overlap     ... done (      0.0 sec)
Final contraction and storage  ... done (      0.1 sec)

Time for X-Grid setup             =   33.634 sec
--------------
SCF ITERATIONS
--------------
ITER       Energy         Delta-E        Max-DP      RMS-DP      [F,P]     Damp
               ***  Starting incremental Fock matrix formation  ***
  0  -4958.2148067692   0.000000000000 0.13843190  0.00082144  0.2512680 0.7000
  1  -4958.8905740577  -0.675767288569 0.08542610  0.00058165  0.0935664 0.7000
                               ***Turning on DIIS***
  2  -4959.1868309713  -0.296256913565 0.15305011  0.00108603  0.0410766 0.0000
  3  -4959.6892084049  -0.502377433602 0.04116009  0.00040354  0.0487130 0.0000
  4  -4959.7662364513  -0.077028046375 0.01659757  0.00013092  0.0313455 0.0000
  5  -4959.7741015470  -0.007865095702 0.00786884  0.00004972  0.0065664 0.0000
  6  -4959.7749632191  -0.000861672153 0.00446551  0.00004587  0.0009479 0.0000
               *** Restarting incremental Fock matrix formation ***
                                   *** Resetting DIIS ***
                      *** Initiating the SOSCF procedure ***
                           *** Shutting down DIIS ***
                      *** Re-Reading the Fockian *** 
                      *** Removing any level shift *** 
ITER      Energy       Delta-E        Grad      Rot      Max-DP    RMS-DP
  7  -4959.77535379  -0.0003905750  0.000881  0.000881  0.002329  0.000023
               *** Restarting incremental Fock matrix formation ***
  8  -4959.77541823  -0.0000644311  0.001262  0.008095  0.001873  0.000023
  9  -4959.77541044   0.0000077886  0.000772  0.001176  0.001035  0.000014
 10  -4959.77549592  -0.0000854879  0.000120  0.001286  0.000710  0.000006
 11  -4959.77549823  -0.0000023052  0.000111  0.000935  0.000284  0.000003
 12  -4959.77550069  -0.0000024642  0.000034  0.000148  0.000164  0.000001
 13  -4959.77550071  -0.0000000203  0.000017  0.000067  0.000076  0.000000
 14  -4959.77550085  -0.0000001338  0.000005  0.000028  0.000035  0.000000
 15  -4959.77550079   0.0000000541  0.000003  0.000014  0.000013  0.000000
                  ***Gradient check signals convergence***
              ***Rediagonalizing the Fockian in SOSCF/NRSCF***

               *****************************************************
               *                     SUCCESS                       *
               *           SCF CONVERGED AFTER  16 CYCLES          *
               *****************************************************

Setting up the final grid:

General Integration Accuracy     IntAcc      ...  5.010
Radial Grid Type                 RadialGrid  ... Gauss-Chebyshev
Angular Grid (max. acc.)         AngularGrid ... Lebedev-434
Angular grid pruning method      GridPruning ... 3 (G Style)
Weight generation scheme         WeightScheme... Becke
Basis function cutoff            BFCut       ...    1.0000e-11
Integration weight cutoff        WCut        ...    1.0000e-14
Grids for H and He will be reduced by one unit

# of grid points (after initial pruning)     ... 1280048 (   2.7 sec)
# of grid points (after weights+screening)   ... 1065785 (  89.0 sec)
nearest neighbour list constructed           ...    0.0 sec
Grid point re-assignment to atoms done       ...    0.2 sec
Grid point division into batches done        ...    6.7 sec
Reduced shell lists constructed in   26.5 sec

Total number of grid points                  ...  1065785
Total number of batches                      ...    16720
Average number of points per batch           ...       63
Average number of grid points per atom       ...     7723
Average number of shells per batch           ...   111.40 (16.24%)
Average number of basis functions per batch  ...   223.62 (14.93%)
Average number of large shells per batch     ...    61.91 (55.57%)
Average number of large basis fcns per batch ...   127.10 (56.83%)
Maximum spatial batch extension              ...  28.31, 20.97, 21.58 au
Average spatial batch extension              ...   1.69,  1.66,  1.68 au

Final grid set up in  118.3 sec
Final integration                            ... done (  32.3 sec)
Change in XC energy                          ...    -0.000086988
Integrated number of electrons               ...   626.000027920
Previous integrated no of electrons          ...   625.998835804
Old exchange energy                            =   -156.126323030 Eh
New exchange energy                            =   -156.125826516 Eh
Exchange energy change after final integration =      0.000496514 Eh
Total energy after final integration           =  -4959.775091334 Eh
Final COS-X integration done in                =   732.505 sec

----------------
TOTAL SCF ENERGY
----------------

Total Energy       :        -4959.77509133 Eh         -134962.34159 eV

Components:
Nuclear Repulsion  :        15334.09570682 Eh          417261.95737 eV
Electronic Energy  :       -20293.87079815 Eh         -552224.29896 eV
One Electron Energy:       -37330.59668062 Eh        -1015817.17883 eV
Two Electron Energy:        17036.72588247 Eh          463592.87987 eV

Virial components:
[...]
  10   3.657     339.0   0.078019   0.062385   6.815799   7.962440     0.34 ( 118-> 123)    0.27 ( 116-> 123)    0.09 ( 114-> 123)
  11   3.708     334.4   0.079781   0.076996  -68.044601  -63.536258     0.19 ( 111-> 123)    0.10 ( 112-> 124)    0.08 ( 106-> 123)
  12   3.712     334.0   0.178094   0.172980  67.623618  67.481821     0.11 ( 112-> 123)    0.11 ( 111-> 124)    0.10 ( 105-> 123)
  13   3.761     329.7   0.005757   0.004848  -3.250602  -2.648460     0.40 ( 113-> 123)    0.16 ( 114-> 124)    0.05 ( 115-> 123)
  14   3.791     327.1   0.025692   0.020806  15.063320   7.566424     0.23 ( 112-> 123)    0.20 ( 113-> 124)    0.19 ( 114-> 123)
  15   3.843     322.6   0.000449   0.000316  -3.246226  -2.489711     0.39 ( 115-> 123)    0.13 ( 113-> 123)    0.12 ( 116-> 124)
  16   3.965     312.7   0.194165   0.168820  12.233240  16.075470     0.24 ( 122-> 127)    0.18 ( 106-> 124)    0.17 ( 105-> 123)
  17   3.979     311.6   0.003821   0.003438  -20.535730  -20.295711     0.35 ( 106-> 123)    0.27 ( 105-> 124)    0.08 ( 111-> 123)
  18   4.000     310.0   0.042994   0.042758  25.113565  15.084918     0.38 ( 122-> 127)    0.17 ( 105-> 123)    0.14 ( 106-> 124)
  19   4.040     306.9   0.018537   0.016921   7.740477   7.838273     0.27 ( 119-> 124)    0.22 ( 120-> 124)    0.17 ( 120-> 123)
  20   4.050     306.2   0.208271   0.185585  22.942601  20.586519     0.23 ( 119-> 124)    0.19 ( 120-> 124)    0.15 ( 119-> 123)
  21   4.059     305.5   0.087491   0.079158   1.241089   4.274364     0.23 ( 105-> 125)    0.21 ( 106-> 126)    0.10 ( 122-> 127)
  22   4.088     303.3   0.004658   0.004238  -53.007572  -51.555299     0.34 ( 105-> 126)    0.27 ( 106-> 125)    0.08 ( 111-> 123)
  23   4.189     296.0   0.011408   0.009158   4.828044   4.679000     0.19 ( 122-> 129)    0.18 ( 110-> 123)    0.13 ( 107-> 123)
  24   4.237     292.6   0.001598   0.001163  13.702799  12.022233     0.34 ( 118-> 124)    0.16 ( 110-> 123)    0.16 ( 117-> 123)
  25   4.242     292.3   0.001146   0.000879  -8.501437  -7.431269     0.31 ( 109-> 123)    0.16 ( 118-> 124)    0.16 ( 110-> 123)
  26   4.255     291.4   0.008370   0.006356  -5.579695  -5.921381     0.33 ( 109-> 123)    0.22 ( 110-> 123)    0.15 ( 109-> 124)
  27   4.310     287.7   0.194127   0.166094  27.109301   8.957474     0.27 ( 117-> 124)    0.10 ( 116-> 123)    0.09 ( 118-> 123)
  28   4.323     286.8   0.001257   0.001148  -8.037772  -5.302750     0.39 ( 121-> 125)    0.13 ( 122-> 126)    0.07 ( 114-> 124)
  29   4.392     282.3   0.001846   0.001812  -3.063049  -3.131610     0.25 ( 116-> 124)    0.16 ( 115-> 123)    0.11 ( 117-> 125)
  30   4.409     281.2   0.141076   0.126242  -0.319101  -3.032936     0.20 ( 120-> 126)    0.15 ( 120-> 125)    0.12 ( 119-> 125)
  31   4.414     280.9   0.006710   0.006284  -75.282355  -70.739473     0.30 ( 104-> 123)    0.20 ( 103-> 124)    0.07 ( 104-> 124)
  32   4.431     279.8   0.043068   0.037510  -9.494390  -8.546395     0.14 ( 119-> 126)    0.12 ( 120-> 125)    0.11 ( 119-> 125)
  33   4.444     279.0   0.079869   0.067850  134.508330  120.901065     0.22 ( 108-> 123)    0.12 ( 119-> 125)    0.08 ( 114-> 123)
  34   4.500     275.5   0.003505   0.004538  -0.091121   6.113875     0.31 ( 115-> 124)    0.20 ( 122-> 129)    0.08 ( 108-> 123)
  35   4.548     272.6   0.415633   0.353613  30.570874  30.082345     0.40 ( 121-> 126)    0.11 ( 108-> 123)    0.08 ( 122-> 125)
  36   4.596     269.8   0.009731   0.008462  -54.335232  -56.524213     0.23 ( 117-> 125)    0.14 ( 116-> 126)    0.10 ( 118-> 126)
  37   4.612     268.8   0.062789   0.050852  67.332831  47.991917     0.20 ( 117-> 126)    0.12 ( 115-> 124)    0.11 ( 116-> 125)
  38   4.623     268.2   0.006486   0.004830  -12.345504  -10.591562     0.25 ( 114-> 124)    0.23 ( 113-> 123)    0.17 ( 112-> 124)
  39   4.646     266.9   0.121293   0.099071  -12.917639  -7.407902     0.40 ( 113-> 124)    0.16 ( 112-> 123)    0.06 ( 122-> 129)
  40   4.701     263.8   0.001159   0.001003  11.836173  11.510846     0.23 ( 108-> 124)    0.18 ( 102-> 123)    0.10 ( 121-> 127)
  41   4.751     260.9   0.405445   0.339263  -189.710460  -167.901316     0.19 ( 107-> 123)    0.12 ( 111-> 126)    0.10 ( 114-> 125)
  42   4.773     259.8   0.038507   0.029557  -123.720471  -102.568094     0.21 ( 107-> 123)    0.14 ( 122-> 128)    0.07 ( 112-> 124)
  43   4.786     259.1   0.245989   0.196262  288.468449  260.344414     0.15 ( 122-> 128)    0.10 ( 111-> 126)    0.10 ( 107-> 123)
  44   4.850     255.6   0.003536   0.002808  29.710889  26.481559     0.60 ( 110-> 124)    0.13 ( 109-> 123)    0.03 ( 109-> 125)
  45   4.866     254.8   0.002158   0.001412  -3.133498  -2.632906     0.66 ( 109-> 124)    0.14 ( 110-> 123)    0.03 ( 107-> 123)
  46   4.899     253.1   0.023628   0.018747  -27.059280  -25.755720     0.20 ( 111-> 125)    0.11 ( 112-> 126)    0.07 ( 108-> 124)
  47   4.906     252.7   0.052054   0.041573  -51.804325  -40.068194     0.23 ( 118-> 125)    0.17 ( 116-> 125)    0.09 ( 115-> 126)
  48   4.932     251.4   0.004378   0.003172  -29.931494  -23.950220     0.12 ( 107-> 124)    0.11 ( 115-> 125)    0.10 ( 122-> 128)

-----------------------------------------------------------------------------
         ABSORPTION SPECTRUM VIA TRANSITION ELECTRIC DIPOLE MOMENTS
-----------------------------------------------------------------------------
State   Energy  Wavelength   fosc         T2         TX        TY        TZ  
        (cm-1)    (nm)                  (au**2)     (au)      (au)      (au) 
-----------------------------------------------------------------------------
   0   17215.9    580.9   1.744138136  33.35239   1.05993   5.64571  -0.59577
   1   19506.1    512.7   0.001377613   0.02325   0.08441   0.11678   0.04987
   2   25492.4    392.3   0.089903735   1.16103  -0.15897  -0.81123  -0.69113
   3   25636.5    390.1   0.360387605   4.62792  -0.01271  -1.92820  -0.95384
   4   25746.7    388.4   0.182015554   2.32736  -0.29197   1.44384   0.39679
   5   26389.7    378.9   0.000447364   0.00558  -0.00243   0.07328  -0.01431
   6   26852.5    372.4   0.000669662   0.00821   0.04882   0.05610   0.05176
   7   27103.2    369.0   0.024284858   0.29498  -0.37864  -0.18543  -0.34239
   8   27337.9    365.8   0.000287660   0.00346   0.01935  -0.05558   0.00056
   9   28636.9    349.2   0.197059004   2.26540   0.71890   0.03840  -1.32179
  10   29496.6    339.0   0.078018931   0.87077   0.58381   0.72316   0.08351
  11   29906.0    334.4   0.079780596   0.87824   0.43434   0.82255   0.11405
  12   29938.0    334.0   0.178094116   1.95841   0.63935   1.21918   0.25149
  13   30333.2    329.7   0.005757022   0.06248  -0.17258  -0.18071  -0.00646
  14   30572.8    327.1   0.025692462   0.27666  -0.38001  -0.31701   0.17821
  15   30994.4    322.6   0.000448877   0.00477   0.05775   0.01465  -0.03489
  16   31982.3    312.7   0.194164514   1.99865   0.50443   1.30387   0.21003
  17   32093.1    311.6   0.003821408   0.03920  -0.03959  -0.18366  -0.06246
  18   32260.0    310.0   0.042994165   0.43875   0.55710  -0.33355  -0.13089
  19   32588.8    306.9   0.018536914   0.18726   0.03224   0.33456   0.27256
  20   32663.7    306.2   0.208271371   2.09913  -0.14379  -1.14051  -0.88187
  21   32735.8    305.5   0.087491324   0.87987   0.64392   0.53377   0.42465
  22   32969.2    303.3   0.004658145   0.04651   0.07389   0.11634   0.16589
  23   33788.1    296.0   0.011407938   0.11115   0.13197  -0.22724  -0.20518
  24   34177.3    292.6   0.001598413   0.01540   0.05027  -0.10924  -0.03060
  25   34216.1    292.3   0.001145664   0.01102  -0.03530   0.06482   0.07467
  26   34317.2    291.4   0.008370473   0.08030   0.12254  -0.21252  -0.14185
  27   34761.9    287.7   0.194126719   1.83847  -0.21306   1.05280   0.82746
  28   34864.2    286.8   0.001256658   0.01187  -0.03973  -0.05679  -0.08404
  29   35423.8    282.3   0.001845596   0.01715   0.06940   0.07976   0.07729
  30   35557.7    281.2   0.141075806   1.30615  -0.24992  -1.00545  -0.48246
  31   35597.5    280.9   0.006710473   0.06206  -0.03016  -0.13294  -0.20851
  32   35738.7    279.8   0.043068199   0.39673  -0.09316   0.45181   0.42886
  33   35843.4    279.0   0.079868829   0.73357   0.50915  -0.18262  -0.66407
  34   36292.0    275.5   0.003505064   0.03180  -0.01753   0.00660   0.17733
  35   36681.7    272.6   0.415633109   3.73024   1.14767   1.54528   0.15880
  36   37067.6    269.8   0.009730587   0.08642  -0.13869  -0.21347  -0.14703
  37   37196.0    268.8   0.062789097   0.55573   0.10728   0.55147   0.49001
  38   37289.3    268.2   0.006485773   0.05726  -0.19971  -0.07648   0.10736
  39   37470.2    266.9   0.121292928   1.06568  -0.78783  -0.66688  -0.01668
  40   37913.9    263.8   0.001159017   0.01006  -0.03485  -0.09268  -0.01610
  41   38323.1    260.9   0.405445053   3.48295   1.08532   1.37506   0.64362
  42   38496.9    259.8   0.038506504   0.32929   0.30036   0.32368   0.36648
  43   38597.9    259.1   0.245989104   2.09811   0.75159   0.94269   0.80284
  44   39116.8    255.6   0.003535951   0.02976  -0.08247  -0.11723  -0.09599
  45   39248.9    254.8   0.002158112   0.01810  -0.06910  -0.06535  -0.09517
  46   39513.9    253.1   0.023628480   0.19686   0.15846   0.23999   0.33787
  47   39570.3    252.7   0.052053941   0.43307   0.56426   0.33859  -0.00591
  48   39779.9    251.4   0.004378495   0.03624   0.06355  -0.05113  -0.17200

-----------------------------------------------------------------------------
         ABSORPTION SPECTRUM VIA TRANSITION VELOCITY DIPOLE MOMENTS
-----------------------------------------------------------------------------
State   Energy  Wavelength   fosc         P2         PX        PY        PZ  
        (cm-1)    (nm)                  (au**2)     (au)      (au)      (au) 
-----------------------------------------------------------------------------
   0   17215.9    580.9   2.012247649   0.23677   0.09147   0.47480  -0.05442
   1   19506.1    512.7   0.001507140   0.00020   0.00751   0.01104   0.00477
   2   25492.4    392.3   0.087174500   0.01519  -0.01117  -0.09013  -0.08331
   3   25636.5    390.1   0.338193960   0.05926   0.00209  -0.21612  -0.11201
   4   25746.7    388.4   0.166040013   0.02922  -0.02754   0.16281   0.04416
   5   26389.7    378.9   0.000455048   0.00008   0.00080   0.00872  -0.00231
   6   26852.5    372.4   0.000539037   0.00010   0.00522   0.00626   0.00570
   7   27103.2    369.0   0.021607868   0.00400  -0.03353  -0.02438  -0.04779
   8   27337.9    365.8   0.000247918   0.00005   0.00238  -0.00637  -0.00018
   9   28636.9    349.2   0.186528386   0.03651   0.08893   0.01278  -0.16863
  10   29496.6    339.0   0.062385349   0.01258   0.06673   0.08943   0.01121
  11   29906.0    334.4   0.076996376   0.01574   0.05573   0.11132   0.01547
  12   29938.0    334.0   0.172980147   0.03539   0.08256   0.16561   0.03394
  13   30333.2    329.7   0.004848495   0.00101  -0.02085  -0.02387  -0.00099
  14   30572.8    327.1   0.020806497   0.00435  -0.04496  -0.04164   0.02433
  15   30994.4    322.6   0.000316043   0.00007   0.00638   0.00182  -0.00479
  16   31982.3    312.7   0.168820163   0.03690   0.06385   0.17803   0.03361
  17   32093.1    311.6   0.003438228   0.00075  -0.00430  -0.02547  -0.00933
  18   32260.0    310.0   0.042758295   0.00943   0.08025  -0.04974  -0.02264
  19   32588.8    306.9   0.016920557   0.00377   0.00401   0.04670   0.03964
  20   32663.7    306.2   0.185585258   0.04143  -0.01916  -0.15841  -0.12637
  21   32735.8    305.5   0.079158094   0.01771   0.09005   0.07742   0.06006
  22   32969.2    303.3   0.004237797   0.00095   0.01037   0.01661   0.02391
  23   33788.1    296.0   0.009158477   0.00211   0.02043  -0.02890  -0.02937
  24   34177.3    292.6   0.001163367   0.00027   0.00703  -0.01440  -0.00386
  25   34216.1    292.3   0.000879128   0.00021  -0.00472   0.00826   0.01073
  26   34317.2    291.4   0.006355793   0.00149   0.01672  -0.02828  -0.02027
  27   34761.9    287.7   0.166093625   0.03946  -0.02497   0.15615   0.12023
  28   34864.2    286.8   0.001148180   0.00027  -0.00676  -0.00894  -0.01217
  29   35423.8    282.3   0.001811769   0.00044   0.01084   0.01313   0.01219
  30   35557.7    281.2   0.126241523   0.03068  -0.03983  -0.15429  -0.07270
  31   35597.5    280.9   0.006284284   0.00153  -0.00560  -0.02207  -0.03179
  32   35738.7    279.8   0.037509842   0.00916  -0.01349   0.06941   0.06451
  33   35843.4    279.0   0.067850445   0.01662   0.07548  -0.02873  -0.10049
  34   36292.0    275.5   0.004538039   0.00113  -0.00817   0.00780   0.03159
  35   36681.7    272.6   0.353612542   0.08865   0.17373   0.24051   0.02498
  36   37067.6    269.8   0.008462322   0.00214  -0.02404  -0.03289  -0.02200
  37   37196.0    268.8   0.050851898   0.01293   0.02442   0.08453   0.07201
  38   37289.3    268.2   0.004830343   0.00123  -0.02903  -0.01217   0.01551
  39   37470.2    266.9   0.099070824   0.02537  -0.11890  -0.10587  -0.00500
  40   37913.9    263.8   0.001003349   0.00026  -0.00571  -0.01483  -0.00271
  41   38323.1    260.9   0.339262522   0.08886   0.17276   0.21950   0.10408
  42   38496.9    259.8   0.029557330   0.00778   0.04504   0.04936   0.05755
  43   38597.9    259.1   0.196261973   0.05177   0.11710   0.14771   0.12745
  44   39116.8    255.6   0.002808422   0.00075  -0.01310  -0.01862  -0.01525
  45   39248.9    254.8   0.001411922   0.00038  -0.01029  -0.00926  -0.01368
  46   39513.9    253.1   0.018746534   0.00506   0.02507   0.03863   0.05424
  47   39570.3    252.7   0.041572505   0.01124   0.08750   0.05988   0.00098
  48   39779.9    251.4   0.003172287   0.00086   0.00936  -0.00693  -0.02696

-------------------------------------------------------------------
                             CD SPECTRUM
-------------------------------------------------------------------
State   Energy Wavelength       R         MX        MY        MZ   
        (cm-1)   (nm)       (1e40*cgs)   (au)      (au)      (au)  
-------------------------------------------------------------------
   0   17215.9    580.9     55.82572  -1.62880   0.41982   1.47807
   1   19506.1    512.7    -83.13008   3.66136  -0.45638   1.94288
   2   25492.4    392.3     35.06918  -0.70020   0.52969  -0.24542
   3   25636.5    390.1    -32.81197  -2.90489   0.78030  -1.68461
   4   25746.7    388.4    -47.46013  -0.23096  -0.30060   1.43129
   5   26389.7    378.9      8.13569   1.99961  -0.22464   0.92236
   6   26852.5    372.4     -9.36724   0.43257  -0.15231   0.52485
   7   27103.2    369.0     -5.69172  -0.74504   0.23763   0.62470
   8   27337.9    365.8     -6.54246   0.48326  -0.32192   0.91129
   9   28636.9    349.2     25.46411  -3.23977   1.20491  -1.64533
  10   29496.6    339.0      6.81580   0.06468  -0.01252  -0.69002
  11   29906.0    334.4    -68.04460   0.75162   0.11870  -1.18742
  12   29938.0    334.0     67.62362   0.01768  -0.25048   0.02864
  13   30333.2    329.7     -3.25060  -0.19147   0.13484  -0.79160
  14   30572.8    327.1     15.06332   0.66495  -0.21496   0.67695
  15   30994.4    322.6     -3.24623   0.24995   0.05764   0.04324
  16   31982.3    312.7     12.23324   0.37217  -0.15175  -0.19886
  17   32093.1    311.6    -20.53573  -0.45936   0.16589  -1.59147
  18   32260.0    310.0     25.11357  -0.44459   0.23392  -1.67448
  19   32588.8    306.9      7.74048   0.95377  -0.24851   0.07172
  20   32663.7    306.2     22.94260  -2.30431   0.85066  -0.61407
  21   32735.8    305.5      1.24109   1.22428  -0.36631  -1.40838
  22   32969.2    303.3    -53.00757  -1.76680   0.28336   1.94387
  23   33788.1    296.0      4.82804  -0.62053   0.22795  -0.55177
  24   34177.3    292.6     13.70280  -0.71740   0.18962   0.04419
  25   34216.1    292.3     -8.50144  -0.43014   0.11081   0.18345
  26   34317.2    291.4     -5.57969  -0.30696   0.14438  -0.64835
  27   34761.9    287.7     27.10930   2.23622  -0.84804   1.51579
  28   34864.2    286.8     -8.03777   1.37598  -0.02711  -1.03795
  29   35423.8    282.3     -3.06305  -0.50246   0.07555   0.54134
  30   35557.7    281.2     -0.31910  -1.47052   0.47030  -0.22115
  31   35597.5    280.9    -75.28236  -0.54781   0.31329  -1.65215
  32   35738.7    279.8     -9.49439   0.96593  -0.45483   0.78291
  33   35843.4    279.0    134.50833  -2.17488   0.74751  -1.01380
  34   36292.0    275.5     -0.09112   0.61285  -0.19076   0.06986
  35   36681.7    272.6     30.57087   0.14330  -0.02028  -1.65504
  36   37067.6    269.8    -54.33523  -1.98353   0.54191  -0.48350
  37   37196.0    268.8     67.33283   1.01959  -0.38617  -0.37155
  38   37289.3    268.2    -12.34550   0.40864  -0.12802   1.15679
  39   37470.2    266.9    -12.91764  -0.02532  -0.08605   1.35033
  40   37913.9    263.8     11.83617   1.06386  -0.19960   1.96479
  41   38323.1    260.9    -189.71046   2.86287  -0.73669  -2.00323
  42   38496.9    259.8    -123.72047   3.45236  -0.85307  -0.64392
  43   38597.9    259.1    288.46845   0.24268  -0.29218  -1.40840
  44   39116.8    255.6     29.71089   1.23154  -0.23287   0.53933
  45   39248.9    254.8     -3.13350  -0.22133   0.06076  -0.02070
  46   39513.9    253.1    -27.05928  -3.09141   0.87230   1.17006
  47   39570.3    252.7    -51.80432   0.41329  -0.06679  -1.55257
  48   39779.9    251.4    -29.93149   1.82595  -0.36545   0.04498

sTD-DFT done

Total run time:        8.704 sec

           *** ORCA-CIS/TD-DFT FINISHED WITHOUT ERROR ***

-------------------------   --------------------
FINAL SINGLE POINT ENERGY     -4959.775091333931
-------------------------   --------------------


                            ***************************************
                            *     ORCA property calculations      *
                            ***************************************

                                    ---------------------
                                    Active property flags
                                    ---------------------
   (+) Dipole Moment


------------------------------------------------------------------------------
                       ORCA ELECTRIC PROPERTIES CALCULATION
------------------------------------------------------------------------------

Dipole Moment Calculation                       ... on
Quadrupole Moment Calculation                   ... off
Polarizability Calculation                      ... off
GBWName                                         ... ITIC.gbw
Electron density file                           ... ITIC.scfp
The origin for moment calculation is the CENTER OF MASS  = (-6.813979, -19.178618 -1.014679)

-------------
DIPOLE MOMENT
-------------
                                X             Y             Z
Electronic contribution:      8.88282      -1.34627       1.26328
Nuclear contribution   :     -8.93433       1.21924      -1.17047
                        -----------------------------------------
Total Dipole Moment    :     -0.05152      -0.12702       0.09280
                        -----------------------------------------
Magnitude (a.u.)       :      0.16553
Magnitude (Debye)      :      0.42076



--------------------
Rotational spectrum 
--------------------
 
Rotational constants in cm-1:     0.001419     0.000271     0.000266 
Rotational constants in MHz :    42.548130     8.110865     7.966427 

 Dipole components along the rotational axes: 
x,y,z [a.u.] :     0.137675     0.019555    -0.089804 
x,y,z [Debye]:     0.349943     0.049705    -0.228264 

 

Timings for individual modules:

Sum of individual times         ...     6531.952 sec (= 108.866 min)
GTO integral calculation        ...        4.638 sec (=   0.077 min)   0.1 %
SCF iterations                  ...     6518.529 sec (= 108.642 min)  99.8 %
CIS module                      ...        8.785 sec (=   0.146 min)   0.1 %
                             ****ORCA TERMINATED NORMALLY****
TOTAL RUN TIME: 0 days 1 hours 48 minutes 52 seconds 725 msec
