
                                 *****************
                                 * O   R   C   A *
                                 *****************

           --- An Ab Initio, DFT and Semiempirical electronic structure package ---

                  #######################################################
                  #                        -***-                        #
                  #          Department of theory and spectroscopy      #
                  #               Directorship: Frank Neese             #
                  #        Max Planck Institute fuer Kohlenforschung    #
                  #                Kaiser Wilhelm Platz 1               #
                  #                 D-45470 Muelheim/Ruhr               #
                  #                      Germany                        #
                  #                                                     #
                  #                  All rights reserved                #
                  #                        -***-                        #
                  #######################################################


                         Program Version 4.2.0 -  RELEASE  -


 With contributions from (in alphabetic order):
   Daniel Aravena         : Magnetic Suceptibility
   Michael Atanasov       : Ab Initio Ligand Field Theory (pilot matlab implementation)
   Alexander A. Auer      : GIAO ZORA, VPT2
   Ute Becker             : Parallelization
   Giovanni Bistoni       : ED, misc. LED, open-shell LED, HFLED
   Martin Brehm           : Molecular dynamics
   Dmytro Bykov           : SCF Hessian
   Vijay G. Chilkuri      : MRCI spin determinant printing, contributions to CSF-ICE
   Dipayan Datta          : RHF DLPNO-CCSD density
   Achintya Kumar Dutta   : EOM-CC, STEOM-CC
   Dmitry Ganyushin       : Spin-Orbit,Spin-Spin,Magnetic field MRCI
   Miquel Garcia          : C-PCM Hessian, Gaussian charge scheme
   Yang Guo               : DLPNO-NEVPT2, CIM, IAO-localization
   Andreas Hansen         : Spin unrestricted coupled pair/coupled cluster methods
   Benjamin Helmich-Paris : CASSCF linear response (MC-RPA)
   Lee Huntington         : MR-EOM, pCC
   Robert Izsak           : Overlap fitted RIJCOSX, COSX-SCS-MP3, EOM
   Christian Kollmar      : KDIIS, OOCD, Brueckner-CCSD(T), CCSD density
   Simone Kossmann        : Meta GGA functionals, TD-DFT gradient, OOMP2, MP2 Hessian
   Martin Krupicka        : AUTO-CI
   Lucas Lang             : DCDCAS
   Dagmar Lenk            : GEPOL surface, SMD
   Dimitrios Liakos       : Extrapolation schemes; Compound Job, initial MDCI parallelization
   Dimitrios Manganas     : Further ROCIS development; embedding schemes
   Dimitrios Pantazis     : SARC Basis sets
   Taras Petrenko         : DFT Hessian,TD-DFT gradient, ASA, ECA, R-Raman, ABS, FL, XAS/XES, NRVS
   Peter Pinski           : DLPNO-MP2, DLPNO-MP2 Gradient
   Christoph Reimann      : Effective Core Potentials
   Marius Retegan         : Local ZFS, SOC
   Christoph Riplinger    : Optimizer, TS searches, QM/MM, DLPNO-CCSD(T), (RO)-DLPNO pert. Triples
   Tobias Risthaus        : Range-separated hybrids, TD-DFT gradient, RPA, STAB
   Michael Roemelt        : Original ROCIS implementation
   Masaaki Saitow         : Open-shell DLPNO-CCSD energy and density
   Barbara Sandhoefer     : DKH picture change effects
   Avijit Sen             : IP-ROCIS
   Kantharuban Sivalingam : CASSCF convergence, NEVPT2, FIC-MRCI
   Bernardo de Souza      : ESD, SOC TD-DFT
   Georgi Stoychev        : AutoAux, RI-MP2 NMR
   Willem Van den Heuvel  : Paramagnetic NMR
   Boris Wezisla          : Elementary symmetry handling
   Frank Wennmohs         : Technical directorship


 We gratefully acknowledge several colleagues who have allowed us to
 interface, adapt or use parts of their codes:
   Stefan Grimme, W. Hujo, H. Kruse,             : VdW corrections, initial TS optimization,
                  C. Bannwarth                     DFT functionals, gCP, sTDA/sTD-DF
   Ed Valeev, F. Pavosevic, A. Kumar             : LibInt (2-el integral package), F12 methods
   Garnet Chan, S. Sharma, J. Yang, R. Olivares  : DMRG
   Ulf Ekstrom                                   : XCFun DFT Library
   Mihaly Kallay                                 : mrcc  (arbitrary order and MRCC methods)
   Andreas Klamt, Michael Diedenhofen            : otool_cosmo (COSMO solvation model)
   Jiri Pittner, Ondrej Demel                    : Mk-CCSD
   Frank Weinhold                                : gennbo (NPA and NBO analysis)
   Christopher J. Cramer and Donald G. Truhlar   : smd solvation model
   Lars Goerigk                                  : TD-DFT with DH, B97 family of functionals
   V. Asgeirsson, H. Jonsson                     : NEB implementation
   FAccTs GmbH                                   : IRC, NEB, NEB-TS, Multilevel, MM, QM/MM, CI optimization
   S Lehtola, MJT Oliveira, MAL Marques          : LibXC Library


 Your calculation uses the libint2 library for the computation of 2-el integrals
 For citations please refer to: http://libint.valeyev.net

 Your ORCA version has been built with support for libXC version: 4.2.3
 For citations please refer to: https://tddft.org/programs/libxc/

 This ORCA versions uses:
   CBLAS   interface :  Fast vector & matrix operations
   LAPACKE interface :  Fast linear algebra routines
   SCALAPACK package :  Parallel linear algebra routines


XCFun DFT library Copyright 2009-2010 Ulf Ekstrom and contributors.
See http://admol.org/xcfun for more information. This is free soft-
ware; see the source code for copying conditions. There is ABSOLUTELY
NO WARRANTY; not even for MERCHANTABILITY or FITNESS FOR A PARTICULAR
PURPOSE. For details see the documentation. Scientific users of this 
library should cite U. Ekstrom, L. Visscher, R. Bast, A. J. Thorvald-
sen and K. Ruud; J.Chem.Theor.Comp. 2010, DOI: 10.1021/ct100117s
XCFun Version 0.99 
----- Orbital basis set information -----
Your calculation utilizes the basis: def2-SVP
   F. Weigend and R. Ahlrichs, Phys. Chem. Chem. Phys. 7, 3297 (2005).

----- AuxJ basis set information -----
Your calculation utilizes the auxiliary basis: def2/J
   F. Weigend, Phys. Chem. Chem. Phys. 8, 1057 (2006).

================================================================================
                                        WARNINGS
                       Please study these warnings very carefully!
================================================================================

INFO   : Checking CIS options ...

WARNING: CIS/ROCIS methods need fully converged wavefunctions
  ===> : Setting SCFConvForced true
         You can overwrite this default with %scf ConvForced false 


INFO   : the flag for use of LIBINT has been found!

================================================================================
                                       INPUT FILE
================================================================================
NAME = N65-2FIC.inp
|  1> # ORCA input file
|  2> # N65-2FIC.out: Geometry 194
|  3> ! CAM-B3LYP def2-SVP def2/J RIJCOSX Grid4 TightSCF
|  4> %maxcore 5000
|  5> %tddft
|  6>     Mode sTDDFT
|  7>     Ethresh 5.0
|  8>     maxcore 5000
|  9> end
| 10> * xyz 0 1
| 11>    C       -3.28252        -0.34484         0.62218
| 12>    C       -2.17145        -0.89766         1.23635
| 13>    C       -0.97127        -0.12925         1.32676
| 14>    C       -0.98761         1.24739         0.93146
| 15>    C       -2.16624         1.78917         0.35800
| 16>    C       -3.27782         0.99470         0.17272
| 17>    C        0.26613        -0.72645         1.76109
| 18>    C        1.41866         0.05200         1.89042
| 19>    C        1.38156         1.41935         1.61526
| 20>    C        0.19870         2.01235         1.13315
| 21>    C       -2.25850        -2.24193         1.97539
| 22>    C       -0.89798        -2.91235         1.95478
| 23>    C        0.26553        -2.15832         1.94298
| 24>    C        2.51716         2.44694         1.73500
| 25>    C        1.77515         3.70657         1.32164
| 26>    C        0.46764         3.42184         0.94819
| 27>    C       -3.27481        -3.19449         1.33148
| 28>    C       -2.63124        -1.91951         3.45165
| 29>    C       -4.34315        -3.75874         2.03096
| 30>    C       -5.17433        -4.70988         1.42670
| 31>    C       -4.96266        -5.12605         0.10884
| 32>    C       -3.88749        -4.54875        -0.59253
| 33>    C       -3.06469        -3.60031         0.00200
| 34>    C       -3.64954        -1.00002         3.74621
| 35>    C       -4.01287        -0.72203         5.06171
| 36>    C       -3.36688        -1.34369         6.14217
| 37>    C       -2.35357        -2.26217         5.84555
| 38>    C       -1.99101        -2.54751         4.52612
| 39>    C       -3.74270        -1.00865         7.56760
| 40>    C       -3.52674         0.46712         7.92043
| 41>    C       -5.84226        -6.14950        -0.57770
| 42>    C       -6.74228        -6.98002         0.33486
| 43>    C        3.03895         2.62168         3.16418
| 44>    C        3.63676         2.18662         0.64682
| 45>    C        2.35893         2.09814         4.26931
| 46>    C        2.81805         2.32780         5.56936
| 47>    C        3.96559         3.09031         5.81266
| 48>    C        4.64109         3.61987         4.70165
| 49>    C        4.19040         3.38803         3.40515
| 50>    C        4.44768         3.36850         7.21757
| 51>    C        4.29246         4.83939         7.62089
| 52>    C        2.07726         5.07049         1.18474
| 53>    C        0.98816         5.82669         0.67805
| 54>    S       -0.42850         4.82127         0.40898
| 55>    S        3.45826         6.06842         1.46091
| 56>    C        2.59767         7.49460         0.84884
| 57>    C        1.28235         7.18069         0.47763
| 58>    C       -0.61210        -4.29374         2.07202
| 59>    C        0.76813        -4.58741         2.15032
| 60>    S        1.72730        -3.13018         2.07995
| 61>    S       -1.56271        -5.73569         2.11643
| 62>    C       -0.10171        -6.73766         2.18198
| 63>    C        1.06056        -5.95733         2.20392
| 64>    C       -0.29009        -8.14338         2.23969
| 65>    C        0.54043        -9.22336         2.04121
| 66>    C        4.97499         1.62842         1.07166
| 67>    C        6.13200         2.21853         0.54518
| 68>    C        7.40370         1.75737         0.88751
| 69>    C        7.56772         0.68817         1.77602
| 70>    C        6.40929         0.09596         2.30430
| 71>    C        5.13856         0.55609         1.96072
| 72>    C        8.94285         0.20815         2.18072
| 73>    C        9.25586         0.45564         3.66074
| 74>    C        1.86550        -9.42362         1.47575
| 75>    C        2.32335       -10.77515         1.89196
| 76>    C        1.25181       -11.44641         2.51710
| 77>    C        0.07540       -10.54137         2.59109
| 78>    C        3.53629       -11.44794         1.69318
| 79>    C        3.63206       -12.76648         2.12994
| 80>    C        2.55471       -13.42219         2.75396
| 81>    C        1.34525       -12.76455         2.95128
| 82>    F        2.71629       -14.68415         3.14150
| 83>    F        4.76377       -13.44289         1.95319
| 84>    O       -1.02494       -10.80131         3.03253
| 85>    C        2.51422        -8.62680         0.54466
| 86>    C        3.84863        -8.89133         0.10640
| 87>    C        1.86391        -7.55331        -0.13203
| 88>    N        4.94468        -9.09086        -0.22517
| 89>    N        1.33199        -6.69893        -0.71337
| 90>    C        3.28178         8.73306         0.91353
| 91>    C        3.03148         9.98408         0.39405
| 92>    C        2.15471        10.52981        -0.62765
| 93>    C        2.10080        12.00071        -0.41897
| 94>    C        3.04690        12.35824         0.56405
| 95>    C        3.71896        11.13420         1.07086
| 96>    C        1.34543        13.00019        -1.04514
| 97>    C        1.55696        14.31793        -0.65010
| 98>    C        2.49382        14.65805         0.34282
| 99>    C        3.26041        13.67472         0.95832
|100>    O        4.60941        11.07149         1.89334
|101>    C        1.61761         9.87016        -1.72304
|102>    C        0.74236        10.51219        -2.65327
|103>    C        1.97896         8.53528        -2.06913
|104>    N        0.01326        11.02995        -3.39597
|105>    N        2.28411         7.45550        -2.37231
|106>    F        2.62555        15.93751         0.68016
|107>    F        0.86233        15.29692        -1.22071
|108>    H       -4.18270        -0.94934         0.50217
|109>    H       -2.18066         2.82904         0.02963
|110>    H       -4.16816         1.40542        -0.30832
|111>    H        2.34589        -0.41604         2.22248
|112>    H       -4.52753        -3.47234         3.06588
|113>    H       -5.98831        -5.13751         2.01328
|114>    H       -3.67956        -4.87071        -1.61672
|115>    H       -2.22442        -3.18478        -0.55890
|116>    H       -4.16835        -0.48736         2.93737
|117>    H       -4.81088         0.00068         5.25303
|118>    H       -1.82816        -2.76729         6.66012
|119>    H       -1.19482        -3.26854         4.34408
|120>    H       -3.15861        -1.64323         8.25221
|121>    H       -4.80204        -1.27328         7.73588
|122>    H       -2.47164         0.75495         7.78687
|123>    H       -3.81332         0.67329         8.96396
|124>    H       -4.12971         1.12519         7.27710
|125>    H       -5.19266        -6.82145        -1.16489
|126>    H       -6.46531        -5.62298        -1.32462
|127>    H       -6.15257        -7.53220         1.08434
|128>    H       -7.31630        -7.71291        -0.25259
|129>    H       -7.46911        -6.35418         0.87726
|130>    H        3.83470         3.14012         0.13911
|131>    H        3.18740         1.54074        -0.12395
|132>    H        1.45508         1.50645         4.12334
|133>    H        2.26772         1.89901         6.41073
|134>    H        5.54473         4.21662         4.85274
|135>    H        4.76366         3.79324         2.57229
|136>    H        5.50880         3.07525         7.30515
|137>    H        3.89449         2.72966         7.92375
|138>    H        4.86002         5.49859         6.94682
|139>    H        4.66127         5.01305         8.64438
|140>    H        3.23718         5.15144         7.57519
|141>    H        0.57308         7.92531         0.12157
|142>    H        2.06118        -6.37791         2.27915
|143>    H       -1.28708        -8.46304         2.57355
|144>    H        6.03284         3.06742        -0.13717
|145>    H        8.28392         2.24354         0.45895
|146>    H        6.50474        -0.74020         3.00269
|147>    H        4.26972         0.08381         2.41871
|148>    H        9.69680         0.71002         1.55412
|149>    H        9.03276        -0.87067         1.96139
|150>    H        9.20322         1.52967         3.89995
|151>    H       10.26205         0.09134         3.92266
|152>    H        8.53579        -0.06139         4.31298
|153>    H        4.40399       -11.00163         1.21170
|154>    H        0.50189       -13.27236         3.42209
|155>    H        4.15317         8.74663         1.58317
|156>    H        0.60453        12.80639        -1.81804
|157>    H        3.99887        13.93131         1.71976
|158> *
|159> 
|160>                          ****END OF INPUT****
================================================================================

                       ****************************
                       * Single Point Calculation *
                       ****************************

---------------------------------
CARTESIAN COORDINATES (ANGSTROEM)
---------------------------------
  C     -3.282520   -0.344840    0.622180
  C     -2.171450   -0.897660    1.236350
  C     -0.971270   -0.129250    1.326760
  C     -0.987610    1.247390    0.931460
  C     -2.166240    1.789170    0.358000
  C     -3.277820    0.994700    0.172720
  C      0.266130   -0.726450    1.761090
  C      1.418660    0.052000    1.890420
  C      1.381560    1.419350    1.615260
  C      0.198700    2.012350    1.133150
  C     -2.258500   -2.241930    1.975390
  C     -0.897980   -2.912350    1.954780
  C      0.265530   -2.158320    1.942980
  C      2.517160    2.446940    1.735000
  C      1.775150    3.706570    1.321640
  C      0.467640    3.421840    0.948190
  C     -3.274810   -3.194490    1.331480
  C     -2.631240   -1.919510    3.451650
  C     -4.343150   -3.758740    2.030960
  C     -5.174330   -4.709880    1.426700
  C     -4.962660   -5.126050    0.108840
  C     -3.887490   -4.548750   -0.592530
  C     -3.064690   -3.600310    0.002000
  C     -3.649540   -1.000020    3.746210
  C     -4.012870   -0.722030    5.061710
  C     -3.366880   -1.343690    6.142170
  C     -2.353570   -2.262170    5.845550
  C     -1.991010   -2.547510    4.526120
  C     -3.742700   -1.008650    7.567600
  C     -3.526740    0.467120    7.920430
  C     -5.842260   -6.149500   -0.577700
  C     -6.742280   -6.980020    0.334860
  C      3.038950    2.621680    3.164180
  C      3.636760    2.186620    0.646820
  C      2.358930    2.098140    4.269310
  C      2.818050    2.327800    5.569360
  C      3.965590    3.090310    5.812660
  C      4.641090    3.619870    4.701650
  C      4.190400    3.388030    3.405150
  C      4.447680    3.368500    7.217570
  C      4.292460    4.839390    7.620890
  C      2.077260    5.070490    1.184740
  C      0.988160    5.826690    0.678050
  S     -0.428500    4.821270    0.408980
  S      3.458260    6.068420    1.460910
  C      2.597670    7.494600    0.848840
  C      1.282350    7.180690    0.477630
  C     -0.612100   -4.293740    2.072020
  C      0.768130   -4.587410    2.150320
  S      1.727300   -3.130180    2.079950
  S     -1.562710   -5.735690    2.116430
  C     -0.101710   -6.737660    2.181980
  C      1.060560   -5.957330    2.203920
  C     -0.290090   -8.143380    2.239690
  C      0.540430   -9.223360    2.041210
  C      4.974990    1.628420    1.071660
  C      6.132000    2.218530    0.545180
  C      7.403700    1.757370    0.887510
  C      7.567720    0.688170    1.776020
  C      6.409290    0.095960    2.304300
  C      5.138560    0.556090    1.960720
  C      8.942850    0.208150    2.180720
  C      9.255860    0.455640    3.660740
  C      1.865500   -9.423620    1.475750
  C      2.323350  -10.775150    1.891960
  C      1.251810  -11.446410    2.517100
  C      0.075400  -10.541370    2.591090
  C      3.536290  -11.447940    1.693180
  C      3.632060  -12.766480    2.129940
  C      2.554710  -13.422190    2.753960
  C      1.345250  -12.764550    2.951280
  F      2.716290  -14.684150    3.141500
  F      4.763770  -13.442890    1.953190
  O     -1.024940  -10.801310    3.032530
  C      2.514220   -8.626800    0.544660
  C      3.848630   -8.891330    0.106400
  C      1.863910   -7.553310   -0.132030
  N      4.944680   -9.090860   -0.225170
  N      1.331990   -6.698930   -0.713370
  C      3.281780    8.733060    0.913530
  C      3.031480    9.984080    0.394050
  C      2.154710   10.529810   -0.627650
  C      2.100800   12.000710   -0.418970
  C      3.046900   12.358240    0.564050
  C      3.718960   11.134200    1.070860
  C      1.345430   13.000190   -1.045140
  C      1.556960   14.317930   -0.650100
  C      2.493820   14.658050    0.342820
  C      3.260410   13.674720    0.958320
  O      4.609410   11.071490    1.893340
  C      1.617610    9.870160   -1.723040
  C      0.742360   10.512190   -2.653270
  C      1.978960    8.535280   -2.069130
  N      0.013260   11.029950   -3.395970
  N      2.284110    7.455500   -2.372310
  F      2.625550   15.937510    0.680160
  F      0.862330   15.296920   -1.220710
  H     -4.182700   -0.949340    0.502170
  H     -2.180660    2.829040    0.029630
  H     -4.168160    1.405420   -0.308320
  H      2.345890   -0.416040    2.222480
  H     -4.527530   -3.472340    3.065880
  H     -5.988310   -5.137510    2.013280
  H     -3.679560   -4.870710   -1.616720
  H     -2.224420   -3.184780   -0.558900
  H     -4.168350   -0.487360    2.937370
  H     -4.810880    0.000680    5.253030
  H     -1.828160   -2.767290    6.660120
  H     -1.194820   -3.268540    4.344080
  H     -3.158610   -1.643230    8.252210
  H     -4.802040   -1.273280    7.735880
  H     -2.471640    0.754950    7.786870
  H     -3.813320    0.673290    8.963960
  H     -4.129710    1.125190    7.277100
  H     -5.192660   -6.821450   -1.164890
  H     -6.465310   -5.622980   -1.324620
  H     -6.152570   -7.532200    1.084340
  H     -7.316300   -7.712910   -0.252590
  H     -7.469110   -6.354180    0.877260
  H      3.834700    3.140120    0.139110
  H      3.187400    1.540740   -0.123950
  H      1.455080    1.506450    4.123340
  H      2.267720    1.899010    6.410730
  H      5.544730    4.216620    4.852740
  H      4.763660    3.793240    2.572290
  H      5.508800    3.075250    7.305150
  H      3.894490    2.729660    7.923750
  H      4.860020    5.498590    6.946820
  H      4.661270    5.013050    8.644380
  H      3.237180    5.151440    7.575190
  H      0.573080    7.925310    0.121570
  H      2.061180   -6.377910    2.279150
  H     -1.287080   -8.463040    2.573550
  H      6.032840    3.067420   -0.137170
  H      8.283920    2.243540    0.458950
  H      6.504740   -0.740200    3.002690
  H      4.269720    0.083810    2.418710
  H      9.696800    0.710020    1.554120
  H      9.032760   -0.870670    1.961390
  H      9.203220    1.529670    3.899950
  H     10.262050    0.091340    3.922660
  H      8.535790   -0.061390    4.312980
  H      4.403990  -11.001630    1.211700
  H      0.501890  -13.272360    3.422090
  H      4.153170    8.746630    1.583170
  H      0.604530   12.806390   -1.818040
  H      3.998870   13.931310    1.719760

----------------------------
CARTESIAN COORDINATES (A.U.)
----------------------------
  NO LB      ZA    FRAG     MASS         X           Y           Z
   0 C     6.0000    0    12.011   -6.203064   -0.651653    1.175750
   1 C     6.0000    0    12.011   -4.103446   -1.696332    2.336363
   2 C     6.0000    0    12.011   -1.835434   -0.244247    2.507213
   3 C     6.0000    0    12.011   -1.866312    2.357225    1.760204
   4 C     6.0000    0    12.011   -4.093600    3.381041    0.676522
   5 C     6.0000    0    12.011   -6.194182    1.879711    0.326393
   6 C     6.0000    0    12.011    0.502913   -1.372792    3.327978
   7 C     6.0000    0    12.011    2.680879    0.098266    3.572376
   8 C     6.0000    0    12.011    2.610770    2.682183    3.052399
   9 C     6.0000    0    12.011    0.375489    3.802790    2.141343
  10 C     6.0000    0    12.011   -4.267946   -4.236634    3.732946
  11 C     6.0000    0    12.011   -1.696936   -5.503544    3.693999
  12 C     6.0000    0    12.011    0.501779   -4.078634    3.671700
  13 C     6.0000    0    12.011    4.756743    4.624046    3.278675
  14 C     6.0000    0    12.011    3.354547    7.004402    2.497538
  15 C     6.0000    0    12.011    0.883712    6.466340    1.791819
  16 C     6.0000    0    12.011   -6.188494   -6.036711    2.516133
  17 C     6.0000    0    12.011   -4.972323   -3.627348    6.522673
  18 C     6.0000    0    12.011   -8.207364   -7.102989    3.837958
  19 C     6.0000    0    12.011   -9.778067   -8.900383    2.696072
  20 C     6.0000    0    12.011   -9.378068   -9.686831    0.205678
  21 C     6.0000    0    12.011   -7.346291   -8.595892   -1.119719
  22 C     6.0000    0    12.011   -5.791425   -6.803600    0.003779
  23 C     6.0000    0    12.011   -6.896631   -1.889764    7.079311
  24 C     6.0000    0    12.011   -7.583225   -1.364439    9.565246
  25 C     6.0000    0    12.011   -6.362481   -2.539206   11.607019
  26 C     6.0000    0    12.011   -4.447603   -4.274882   11.046489
  27 C     6.0000    0    12.011   -3.762464   -4.814096    8.553127
  28 C     6.0000    0    12.011   -7.072678   -1.906072   14.300691
  29 C     6.0000    0    12.011   -6.664573    0.882729   14.967444
  30 C     6.0000    0    12.011  -11.040271  -11.620871   -1.091695
  31 C     6.0000    0    12.011  -12.741063  -13.190326    0.632794
  32 C     6.0000    0    12.011    5.742783    4.954257    5.979434
  33 C     6.0000    0    12.011    6.872480    4.132113    1.222313
  34 C     6.0000    0    12.011    4.457732    3.964910    8.067827
  35 C     6.0000    0    12.011    5.325343    4.398904   10.524565
  36 C     6.0000    0    12.011    7.493879    5.839840   10.984336
  37 C     6.0000    0    12.011    8.770389    6.840563    8.884831
  38 C     6.0000    0    12.011    7.918708    6.402449    6.434801
  39 C     6.0000    0    12.011    8.404897    6.365542   13.639231
  40 C     6.0000    0    12.011    8.111574    9.145122   14.401395
  41 C     6.0000    0    12.011    3.925453    9.581837    2.238834
  42 C     6.0000    0    12.011    1.867352   11.010848    1.281329
  43 S    16.0000    0    32.060   -0.809748    9.110880    0.772860
  44 S    16.0000    0    32.060    6.535164   11.467652    2.760720
  45 C     6.0000    0    12.011    4.908885   14.162741    1.604075
  46 C     6.0000    0    12.011    2.423290   13.569538    0.902590
  47 C     6.0000    0    12.011   -1.156701   -8.113993    3.915550
  48 C     6.0000    0    12.011    1.451555   -8.668949    4.063516
  49 S    16.0000    0    32.060    3.264124   -5.915183    3.930536
  50 S    16.0000    0    32.060   -2.953094  -10.838883    3.999473
  51 C     6.0000    0    12.011   -0.192204  -12.732332    4.123345
  52 C     6.0000    0    12.011    2.004168  -11.257722    4.164805
  53 C     6.0000    0    12.011   -0.548191  -15.388758    4.232401
  54 C     6.0000    0    12.011    1.021265  -17.429624    3.857328
  55 C     6.0000    0    12.011    9.401369    3.077268    2.025144
  56 C     6.0000    0    12.011   11.587801    4.192414    1.030241
  57 C     6.0000    0    12.011   13.990965    3.320948    1.677151
  58 C     6.0000    0    12.011   14.300918    1.300453    3.356191
  59 C     6.0000    0    12.011   12.111803    0.181338    4.354496
  60 C     6.0000    0    12.011    9.710471    1.050858    3.705224
  61 C     6.0000    0    12.011   16.899537    0.393346    4.120964
  62 C     6.0000    0    12.011   17.491041    0.861035    6.917796
  63 C     6.0000    0    12.011    3.525284  -17.808061    2.788763
  64 C     6.0000    0    12.011    4.390495  -20.362083    3.575286
  65 C     6.0000    0    12.011    2.365578  -21.630580    4.756630
  66 C     6.0000    0    12.011    0.142485  -19.920302    4.896450
  67 C     6.0000    0    12.011    6.682620  -21.633471    3.199646
  68 C     6.0000    0    12.011    6.863599  -24.125151    4.025003
  69 C     6.0000    0    12.011    4.827702  -25.364263    5.204230
  70 C     6.0000    0    12.011    2.542154  -24.121504    5.577111
  71 F     9.0000    0    18.998    5.133044  -27.749022    5.936575
  72 F     9.0000    0    18.998    9.002221  -25.403381    3.690994
  73 O     8.0000    0    15.999   -1.936856  -20.411518    5.730651
  74 C     6.0000    0    12.011    4.751187  -16.302289    1.029258
  75 C     6.0000    0    12.011    7.272857  -16.802179    0.201067
  76 C     6.0000    0    12.011    3.522279  -14.273687   -0.249501
  77 N     7.0000    0    14.007    9.344091  -17.179236   -0.425510
  78 N     7.0000    0    14.007    2.517096  -12.659143   -1.348074
  79 C     6.0000    0    12.011    6.201665   16.503092    1.726322
  80 C     6.0000    0    12.011    5.728667   18.867177    0.744647
  81 C     6.0000    0    12.011    4.071812   19.898457   -1.186087
  82 C     6.0000    0    12.011    3.969937   22.678055   -0.791739
  83 C     6.0000    0    12.011    5.757807   23.353689    1.065900
  84 C     6.0000    0    12.011    7.027816   21.040589    2.023632
  85 C     6.0000    0    12.011    2.542494   24.566799   -1.975028
  86 C     6.0000    0    12.011    2.942228   27.056967   -1.228511
  87 C     6.0000    0    12.011    4.712637   27.699700    0.647836
  88 C     6.0000    0    12.011    6.161282   25.841476    1.810962
  89 O     8.0000    0    15.999    8.710523   20.922084    3.577894
  90 C     6.0000    0    12.011    3.056840   18.651899   -3.256074
  91 C     6.0000    0    12.011    1.402857   19.865160   -5.013954
  92 C     6.0000    0    12.011    3.739692   16.129342   -3.910089
  93 N     7.0000    0    14.007    0.025058   20.843585   -6.417453
  94 N     7.0000    0    14.007    4.316342   14.088853   -4.483016
  95 F     9.0000    0    18.998    4.961570   30.117529    1.285316
  96 F     9.0000    0    18.998    1.629568   28.906989   -2.306808
  97 H     1.0000    0     1.008   -7.904158   -1.793993    0.948964
  98 H     1.0000    0     1.008   -4.120850    5.346111    0.055993
  99 H     1.0000    0     1.008   -7.876681    2.655859   -0.582640
 100 H     1.0000    0     1.008    4.433090   -0.786202    4.199879
 101 H     1.0000    0     1.008   -8.555792   -6.561772    5.793674
 102 H     1.0000    0     1.008  -11.316266   -9.708487    3.804548
 103 H     1.0000    0     1.008   -6.953361   -9.204308   -3.055158
 104 H     1.0000    0     1.008   -4.203545   -6.018362   -1.056168
 105 H     1.0000    0     1.008   -7.877040   -0.920977    5.550825
 106 H     1.0000    0     1.008   -9.091246    0.001285    9.926788
 107 H     1.0000    0     1.008   -3.454722   -5.229420   12.585803
 108 H     1.0000    0     1.008   -2.257883   -6.176645    8.209122
 109 H     1.0000    0     1.008   -5.968908   -3.105255   15.594417
 110 H     1.0000    0     1.008   -9.074540   -2.406150   14.618695
 111 H     1.0000    0     1.008   -4.670723    1.426649   14.715052
 112 H     1.0000    0     1.008   -7.206130    1.272334   16.939429
 113 H     1.0000    0     1.008   -7.804021    2.126301   13.751726
 114 H     1.0000    0     1.008   -9.812705  -12.890672   -2.201323
 115 H     1.0000    0     1.008  -12.217665  -10.625892   -2.503169
 116 H     1.0000    0     1.008  -11.626672  -14.233795    2.049106
 117 H     1.0000    0     1.008  -13.825803  -14.575288   -0.477326
 118 H     1.0000    0     1.008  -14.114572  -12.007660    1.657781
 119 H     1.0000    0     1.008    7.246533    5.933967    0.262880
 120 H     1.0000    0     1.008    6.023313    2.911577   -0.234232
 121 H     1.0000    0     1.008    2.749703    2.846778    7.791983
 122 H     1.0000    0     1.008    4.285370    3.588609   12.114524
 123 H     1.0000    0     1.008   10.478021    7.968257    9.170350
 124 H     1.0000    0     1.008    9.002013    7.168185    4.860924
 125 H     1.0000    0     1.008   10.410123    5.811380   13.804733
 126 H     1.0000    0     1.008    7.359520    5.158310   14.973717
 127 H     1.0000    0     1.008    9.184107   10.390829   13.127587
 128 H     1.0000    0     1.008    8.808524    9.473292   16.335511
 129 H     1.0000    0     1.008    6.117384    9.734811   14.315035
 130 H     1.0000    0     1.008    1.082964   14.976665    0.229734
 131 H     1.0000    0     1.008    3.895066  -12.052503    4.306969
 132 H     1.0000    0     1.008   -2.432229  -15.992828    4.863305
 133 H     1.0000    0     1.008   11.400415    5.796584   -0.259214
 134 H     1.0000    0     1.008   15.654340    4.239676    0.867290
 135 H     1.0000    0     1.008   12.292177   -1.398775    5.674262
 136 H     1.0000    0     1.008    8.068601    0.158378    4.570699
 137 H     1.0000    0     1.008   18.324296    1.341743    2.936861
 138 H     1.0000    0     1.008   17.069443   -1.645328    3.706490
 139 H     1.0000    0     1.008   17.391565    2.890657    7.369837
 140 H     1.0000    0     1.008   19.392464    0.172608    7.412753
 141 H     1.0000    0     1.008   16.130305   -0.116010    8.150351
 142 H     1.0000    0     1.008    8.322335  -20.790068    2.289781
 143 H     1.0000    0     1.008    0.948435  -25.081126    6.466813
 144 H     1.0000    0     1.008    7.848354   16.528735    2.991758
 145 H     1.0000    0     1.008    1.142396   24.200570   -3.435598
 146 H     1.0000    0     1.008    7.556769   26.326361    3.249875

--------------------------------
INTERNAL COORDINATES (ANGSTROEM)
--------------------------------
 C      0   0   0     0.000000000000     0.00000000     0.00000000
 C      1   0   0     1.384662878176     0.00000000     0.00000000
 C      2   1   0     1.427956556972   119.18684907     0.00000000
 C      3   2   1     1.432364051210   119.34863633     7.60480664
 C      4   3   2     1.418291442864   119.22235899   354.96342705
 C      5   4   3     1.378811573675   120.27733075   359.39687691
 C      3   2   1     1.440988948223   121.18527457   189.93241177
 C      7   3   2     1.396794921347   120.36352456   182.36341523
 C      8   7   3     1.395254621243   120.39546357     0.72961917
 C      9   8   7     1.408274416334   120.16611358   356.47249199
 C      2   1   3     1.536495902045   121.14332901   172.12844200
 C     11   2   1     1.516872578333   109.22815478   152.96243632
 C     12  11   2     1.386526595850   120.82488667    30.84032637
 C      9   8   7     1.536185612385   128.35387110   178.04611901
 C     14   9   8     1.519247533024    99.92504239   181.40523605
 C     15  14   9     1.389287038556   111.27659205   356.63462887
 C     11   2   1     1.534560737736   112.25780148    32.82790408
 C     11   2   1     1.556352579463   106.77178181   270.23739128
 C     17  11   2     1.396066147609   123.19275456   236.22199662
 C     19  17  11     1.400234851587   120.83562810   185.49059850
 C     20  19  17     1.398126116414   121.27140499     0.07283647
 C     21  20  19     1.407545983547   117.59675011   359.65126257
 C     22  21  20     1.389245908578   121.27657562     0.04883419
 C     18  11   2     1.403268450333   120.57360090    45.48299579
 C     24  18  11     1.392776859012   121.22156095   178.66062886
 C     25  24  18     1.403979361422   121.22935402     0.49578319
 C     26  25  24     1.399423485190   117.42961355   359.39906227
 C     27  26  25     1.397771152263   121.45838451     0.31075648
 C     26  25  24     1.511735148397   120.87169390   178.36247314
 C     29  26  25     1.532652871136   113.29324721   299.42114270
 C     21  20  19     1.514094856375   122.72816432   180.13677827
 C     31  21  20     1.527273788291   116.03966249   344.36986295
 C     14   9   8     1.531454976191   113.63654964   297.35132276
 C     14   9   8     1.582847552609   111.05624812    68.57340373
 C     33  14   9     1.399226089272   121.92373947   347.80373367
 C     35  33  14     1.397735630404   120.89726591   183.26154334
 C     36  35  33     1.399094150406   121.37979214     0.26234865
 C     37  36  35     1.403950591616   117.55445211     0.07856096
 C     38  37  36     1.392042927391   121.22739510   359.61619758
 C     37  36  35     1.511149414287   121.57845229   178.54522931
 C     40  37  36     1.533061532653   112.88677938   248.94688964
 C     15  14   9     1.403670128093   136.63982785   178.83734453
 C     42  15  14     1.419405511508   112.78929984   176.76430286
 S     16  15  14     1.747060001431   113.67488148   181.93752760
 S     42  15  14     1.726063484870   135.92071476   357.71370528
 C     45  42  15     1.774608189263    91.22935894   177.35505289
 C     43  42  15     1.400011404418   113.89850015   182.61358918
 C     12  11   2     1.415524964139   127.68608950   204.33043521
 C     48  12  11     1.413296788293   113.86629933   186.04723095
 S     49  48  12     1.745989203489   111.15207566     0.08082611
 S     48  12  11     1.727672255580   134.86984367     7.32673084
 C     51  48  12     1.772783597453    91.10117485   176.85294419
 C     52  51  48     1.400095648661   111.69779655     1.55688947
 C     52  51  48     1.419459822221   116.86284485   179.89410481
 C     54  52  51     1.376776881415   133.70261719   165.00798856
 C     34  14   9     1.510938714343   119.59962149   251.90249044
 C     56  34  14     1.401457506527   118.03563364   225.19717678
 C     57  56  34     1.395377821416   121.40472257   180.13514631
 C     58  57  56     1.399836140589   120.99302287   359.76541388
 C     59  58  57     1.404191050890   117.66235734     0.22577657
 C     60  59  58     1.394461030721   121.32694458   359.85012888
 C     59  58  57     1.511682442612   121.26856456   181.70462196
 C     62  59  58     1.532868474658   113.13940747   113.18771401
 C     55  54  52     1.454530709232   135.52762480   346.95210221
 C     64  55  54     1.486435577985   107.27353443   165.20402375
 C     65  64  55     1.410527553364   108.83267807     8.13430025
 C     66  65  64     1.486106459780   109.48791931   357.37558718
 C     65  64  55     1.401207806180   131.56606588   183.84330416
 C     68  65  64     1.392292685501   118.01851592   184.54119095
 C     69  68  65     1.407138794505   121.85383656     0.02811333
 C     70  69  68     1.390762037014   120.55683262     0.21053257
 F     70  69  68     1.329976837994   118.57840584   179.77289706
 F     69  68  65     1.330240044015   119.89355068   179.61537992
 O     67  66  65     1.213748817837   127.25207384   177.86705273
 C     64  55  54     1.386610377467   127.45458516   335.41187983
 C     75  64  55     1.429229861359   122.43567598   177.00048521
 C     75  64  55     1.425900849393   122.54249265   351.45337049
 N     76  75  64     1.162358158357   178.45829757   275.30695710
 N     77  75  64     1.162265144621   178.21231898   255.65981834
 C     46  45  42     1.416324277770   116.91981476   176.32106994
 C     80  46  45     1.377519727917   133.56118379   169.86906967
 C     81  80  46     1.452727694993   135.72915324   345.00334235
 C     82  81  80     1.486607022888   107.14865774   163.97478195
 C     83  82  81     1.410411724037   108.92474137     7.84601953
 C     84  83  82     1.485528505718   109.41342517   357.93810154
 C     83  82  81     1.400583084362   131.51968704   185.14797949
 C     86  83  82     1.391847782662   117.82444959   182.19544008
 C     87  86  83     1.406868295328   122.03268983     0.03121772
 C     88  87  86     1.390481343636   120.56871579     0.77963748
 O     85  84  83     1.213798622919   127.27440370   177.85863994
 C     82  81  80     1.386900783978   127.62758746   334.96242139
 C     91  82  81     1.429542911668   122.50951775   178.86398591
 C     91  82  81     1.425572420118   122.61229816   353.65831218
 N     92  91  82     1.162439468360   178.88783323   275.84057849
 N     93  91  82     1.162307826395   178.76687529   245.99169502
 F     88  87  86     1.329725144569   118.53103087   180.96718651
 F     87  86  83     1.329107982483   119.74095975   179.89487375
 H      1   2   3     1.090938441206   119.31903206   176.60869813
 H      5   4   3     1.090579850447   119.79932532   181.60000685
 H      6   5   4     1.092151873871   119.98114026   182.61916073
 H      8   7   3     1.090449796231   119.38046025   179.86433352
 H     19  17  11     1.089532170613   119.94589225     4.43032706
 H     20  19  17     1.090645200650   118.50664161   179.05424221
 H     22  21  20     1.093553054314   119.41781017   178.48748161
 H     23  22  21     1.092395378881   119.70419861   178.68468289
 H     24  18  11     1.089130955074   119.88174174   358.45866066
 H     25  24  18     1.093495791761   119.17933507   179.97790973
 H     27  26  25     1.093035300162   119.56489939   180.05893802
 H     28  27  26     1.089468374300   118.84151213   179.89075296
 H     29  26  25     1.101155645947   109.06489469   176.93999103
 H     29  26  25     1.104784336828   109.20280119    61.50719860
 H     30  29  26     1.101780555510   111.01269512   300.58502175
 H     30  29  26     1.101630167615   111.19946978   179.85562536
 H     30  29  26     1.100228355706   111.35170243    60.09360159
 H     31  21  20     1.103761323204   108.10888207   220.97097952
 H     31  21  20     1.106030785874   108.16079029   107.55123689
 H     32  31  21     1.101989522137   111.31552849   301.72471918
 H     32  31  21     1.100783455090   110.51666723   181.75917291
 H     32  31  21     1.101887160511   111.96116416    62.24240157
 H     34  14   9     1.098231276963   107.60895290   129.79178803
 H     34  14   9     1.101440773215   106.79542672    17.47098612
 H     35  33  14     1.090114269010   120.01889002     2.93631693
 H     36  35  33     1.092990141721   119.08710730   180.41299412
 H     38  37  36     1.093391055478   119.61405436   180.31389160
 H     39  38  37     1.089255686834   118.67149158   181.85906385
 H     40  37  36     1.104373792382   109.35207471   126.99020260
 H     40  37  36     1.101283757303   109.21501289    11.25800508
 H     41  40  37     1.100472334273   111.18376431   300.43878730
 H     41  40  37     1.101685250786   111.20785151   180.58644692
 H     41  40  37     1.101398915425   110.97279207    59.91055563
 H     47  43  42     1.088256220244   124.86387390   181.70830924
 H     53  52  51     1.088019978539   123.30476637   177.76900570
 H     54  52  51     1.098924053472   114.88654667   340.36434464
 H     57  56  34     1.093640004846   119.10220860     1.01145904
 H     58  57  56     1.093074650195   119.38761212   180.13278438
 H     60  59  58     1.093628291606   119.38684825   180.11936810
 H     61  60  59     1.089810159661   118.68281095   181.76841387
 H     62  59  58     1.101336306221   109.00938014   350.93470986
 H     62  59  58     1.104555136424   109.33120803   235.42657280
 H     63  62  59     1.101604663480   110.93549878   300.45697565
 H     63  62  59     1.101696370376   111.26326888   179.78628539
 H     63  62  59     1.100562512264   111.26968051    59.88929600
 H     68  65  64     1.088080372261   123.78917289     4.11142086
 H     71  70  69     1.091232854069   120.88155856   179.14423915
 H     80  46  45     1.099055233644   114.93487712   343.58805776
 H     86  83  82     1.088055908490   123.89847560     2.31669932
 H     89  88  87     1.091307689563   121.04004156   179.16523636

---------------------------
INTERNAL COORDINATES (A.U.)
---------------------------
 C      0   0   0     0.000000000000     0.00000000     0.00000000
 C      1   0   0     2.616633627561     0.00000000     0.00000000
 C      2   1   0     2.698446823815   119.18684907     0.00000000
 C      3   2   1     2.706775780862   119.34863633     7.60480664
 C      4   3   2     2.680182405096   119.22235899   354.96342705
 C      5   4   3     2.605576264527   120.27733075   359.39687691
 C      3   2   1     2.723074474148   121.18527457   189.93241177
 C      7   3   2     2.639559866597   120.36352456   182.36341523
 C      8   7   3     2.636649121237   120.39546357     0.72961917
 C      9   8   7     2.661252968278   120.16611358   356.47249199
 C      2   1   3     2.903556460757   121.14332901   172.12844200
 C     11   2   1     2.866473753105   109.22815478   152.96243632
 C     12  11   2     2.620155543555   120.82488667    30.84032637
 C      9   8   7     2.902970098279   128.35387110   178.04611901
 C     14   9   8     2.870961767051    99.92504239   181.40523605
 C     15  14   9     2.625372024278   111.27659205   356.63462887
 C     11   2   1     2.899899530189   112.25780148    32.82790408
 C     11   2   1     2.941080143006   106.77178181   270.23739128
 C     17  11   2     2.638182683820   123.19275456   236.22199662
 C     19  17  11     2.646060392672   120.83562810   185.49059850
 C     20  19  17     2.642075460706   121.27140499     0.07283647
 C     21  20  19     2.659876429805   117.59675011   359.65126257
 C     22  21  20     2.625294299883   121.27657562     0.04883419
 C     18  11   2     2.651793063501   120.57360090    45.48299579
 C     24  18  11     2.631966829196   121.22156095   178.66062886
 C     25  24  18     2.653136490766   121.22935402     0.49578319
 C     26  25  24     2.644527132386   117.42961355   359.39906227
 C     27  26  25     2.641404675674   121.45838451     0.31075648
 C     26  25  24     2.856765417494   120.87169390   178.36247314
 C     29  26  25     2.896294184814   113.29324721   299.42114270
 C     21  20  19     2.861224619327   122.72816432   180.13677827
 C     31  21  20     2.886129191386   116.03966249   344.36986295
 C     14   9   8     2.894030491432   113.63654964   297.35132276
 C     14   9   8     2.991148386178   111.05624812    68.57340373
 C     33  14   9     2.644154108162   121.92373947   347.80373367
 C     35  33  14     2.641337549087   120.89726591   183.26154334
 C     36  35  33     2.643904779838   121.37979214     0.26234865
 C     37  36  35     2.653082123712   117.55445211     0.07856096
 C     38  37  36     2.630579899431   121.22739510   359.61619758
 C     37  36  35     2.855658540438   121.57845229   178.54522931
 C     40  37  36     2.897066443164   112.88677938   248.94688964
 C     15  14   9     2.652552124462   136.63982785   178.83734453
 C     42  15  14     2.682287689729   112.78929984   176.76430286
 S     16  15  14     3.301464942233   113.67488148   181.93752760
 S     42  15  14     3.261787276165   135.92071476   357.71370528
 C     45  42  15     3.353523472721    91.22935894   177.35505289
 C     43  42  15     2.645638138716   113.89850015   182.61358918
 C     12  11   2     2.674954517951   127.68608950   204.33043521
 C     48  12  11     2.670743875825   113.86629933   186.04723095
 S     49  48  12     3.299441427377   111.15207566     0.08082611
 S     48  12  11     3.264827412220   134.86984367     7.32673084
 C     51  48  12     3.350075493895    91.10117485   176.85294419
 C     52  51  48     2.645797337264   111.69779655     1.55688947
 C     52  51  48     2.682390322102   116.86284485   179.89410481
 C     54  52  51     2.601731253389   133.70261719   165.00798856
 C     34  14   9     2.855260375247   119.59962149   251.90249044
 C     56  34  14     2.648370875664   118.03563364   225.19717678
 C     57  56  34     2.636881935824   121.40472257   180.13514631
 C     58  57  56     2.645306938079   120.99302287   359.76541388
 C     59  58  57     2.653536525885   117.66235734     0.22577657
 C     60  59  58     2.635149452489   121.32694458   359.85012888
 C     59  58  57     2.856665817993   121.26856456   181.70462196
 C     62  59  58     2.896701616425   113.13940747   113.18771401
 C     55  54  52     2.748664693827   135.52762480   346.95210221
 C     64  55  54     2.808956158109   107.27353443   165.20402375
 C     65  64  55     2.665510780209   108.83267807     8.13430025
 C     66  65  64     2.808334214836   109.48791931   357.37558718
 C     65  64  55     2.647899010393   131.56606588   183.84330416
 C     68  65  64     2.631051873859   118.01851592   184.54119095
 C     69  68  65     2.659106954030   121.85383656     0.02811333
 C     70  69  68     2.628159367411   120.55683262     0.21053257
 F     70  69  68     2.513291988267   118.57840584   179.77289706
 F     69  68  65     2.513789375563   119.89355068   179.61537992
 O     67  66  65     2.293652861082   127.25207384   177.86705273
 C     64  55  54     2.620313867866   127.45458516   335.41187983
 C     75  64  55     2.700853020391   122.43567598   177.00048521
 C     75  64  55     2.694562099479   122.54249265   351.45337049
 N     76  75  64     2.196538588825   178.45829757   275.30695710
 N     77  75  64     2.196362818335   178.21231898   255.65981834
 C     46  45  42     2.676465001809   116.91981476   176.32106994
 C     80  46  45     2.603135029836   133.56118379   169.86906967
 C     81  80  46     2.745257490700   135.72915324   345.00334235
 C     82  81  80     2.809280142022   107.14865774   163.97478195
 C     83  82  81     2.665291894501   108.92474137     7.84601953
 C     84  83  82     2.807242039940   109.41342517   357.93810154
 C     83  82  81     2.646718457246   131.51968704   185.14797949
 C     86  83  82     2.630211129336   117.82444959   182.19544008
 C     87  86  83     2.658595784667   122.03268983     0.03121772
 C     88  87  86     2.627628933799   120.56871579     0.77963748
 O     85  84  83     2.293746979048   127.27440370   177.85863994
 C     82  81  80     2.620862656640   127.62758746   334.96242139
 C     91  82  81     2.701444599741   122.50951775   178.86398591
 C     91  82  81     2.693941458094   122.61229816   353.65831218
 N     92  91  82     2.196692242461   178.88783323   275.84057849
 N     93  91  82     2.196443475201   178.76687529   245.99169502
 F     88  87  86     2.512816356625   118.53103087   180.96718651
 F     87  86  83     2.511650089301   119.74095975   179.89487375
 H      1   2   3     2.061574882845   119.31903206   176.60869813
 H      5   4   3     2.060897244517   119.79932532   181.60000685
 H      6   5   4     2.063867938265   119.98114026   182.61916073
 H      8   7   3     2.060651477667   119.38046025   179.86433352
 H     19  17  11     2.058917416555   119.94589225     4.43032706
 H     20  19  17     2.061020738503   118.50664161   179.05424221
 H     22  21  20     2.066515785567   119.41781017   178.48748161
 H     23  22  21     2.064328096046   119.70419861   178.68468289
 H     24  18  11     2.058159229066   119.88174174   358.45866066
 H     25  24  18     2.066407575025   119.17933507   179.97790973
 H     27  26  25     2.065537372014   119.56489939   180.05893802
 H     28  27  26     2.058796858996   118.84151213   179.89075296
 H     29  26  25     2.080882601660   109.06489469   176.93999103
 H     29  26  25     2.087739833650   109.20280119    61.50719860
 H     30  29  26     2.082063509594   111.01269512   300.58502175
 H     30  29  26     2.081779317659   111.19946978   179.85562536
 H     30  29  26     2.079130277059   111.35170243    60.09360159
 H     31  21  20     2.085806618069   108.10888207   220.97097952
 H     31  21  20     2.090095280987   108.16079029   107.55123689
 H     32  31  21     2.082458399290   111.31552849   301.72471918
 H     32  31  21     2.080179262872   110.51666723   181.75917291
 H     32  31  21     2.082264963851   111.96116416    62.24240157
 H     34  14   9     2.075356345167   107.60895290   129.79178803
 H     34  14   9     2.081421414110   106.79542672    17.47098612
 H     35  33  14     2.060017423109   120.01889002     2.93631693
 H     36  35  33     2.065452034929   119.08710730   180.41299412
 H     38  37  36     2.066209652133   119.61405436   180.31389160
 H     39  38  37     2.058394937932   118.67149158   181.85906385
 H     40  37  36     2.086964017082   109.35207471   126.99020260
 H     40  37  36     2.081124697039   109.21501289    11.25800508
 H     41  40  37     2.079591329733   111.18376431   300.43878730
 H     41  40  37     2.081883409766   111.20785151   180.58644692
 H     41  40  37     2.081342314352   110.97279207    59.91055563
 H     47  43  42     2.056506219798   124.86387390   181.70830924
 H     53  52  51     2.056059787674   123.30476637   177.76900570
 H     54  52  51     2.076665503041   114.88654667   340.36434464
 H     57  56  34     2.066680098260   119.10220860     1.01145904
 H     58  57  56     2.065611732801   119.38761212   180.13278438
 H     60  59  58     2.066657963443   119.38684825   180.11936810
 H     61  60  59     2.059442739724   118.68281095   181.76841387
 H     62  59  58     2.081224000102   109.00938014   350.93470986
 H     62  59  58     2.087306707657   109.33120803   235.42657280
 H     63  62  59     2.081731121827   110.93549878   300.45697565
 H     63  62  59     2.081904422746   111.26326888   179.78628539
 H     63  62  59     2.079761741439   111.26968051    59.88929600
 H     68  65  64     2.056173915269   123.78917289     4.11142086
 H     71  70  69     2.062131242528   120.88155856   179.14423915
 H     80  46  45     2.076913397640   114.93487712   343.58805776
 H     86  83  82     2.056127685441   123.89847560     2.31669932
 H     89  88  87     2.062272661117   121.04004156   179.16523636

---------------------
BASIS SET INFORMATION
---------------------
There are 6 groups of distinct atoms

 Group   1 Type C   : 7s4p1d contracted to 3s2p1d pattern {511/31/1}
 Group   2 Type S   : 10s7p1d contracted to 4s3p1d pattern {5311/511/1}
 Group   3 Type F   : 7s4p1d contracted to 3s2p1d pattern {511/31/1}
 Group   4 Type O   : 7s4p1d contracted to 3s2p1d pattern {511/31/1}
 Group   5 Type N   : 7s4p1d contracted to 3s2p1d pattern {511/31/1}
 Group   6 Type H   : 4s1p contracted to 2s1p pattern {31/1}

Atom   0C    basis set group =>   1
Atom   1C    basis set group =>   1
Atom   2C    basis set group =>   1
Atom   3C    basis set group =>   1
Atom   4C    basis set group =>   1
Atom   5C    basis set group =>   1
Atom   6C    basis set group =>   1
Atom   7C    basis set group =>   1
Atom   8C    basis set group =>   1
Atom   9C    basis set group =>   1
Atom  10C    basis set group =>   1
Atom  11C    basis set group =>   1
Atom  12C    basis set group =>   1
Atom  13C    basis set group =>   1
Atom  14C    basis set group =>   1
Atom  15C    basis set group =>   1
Atom  16C    basis set group =>   1
Atom  17C    basis set group =>   1
Atom  18C    basis set group =>   1
Atom  19C    basis set group =>   1
Atom  20C    basis set group =>   1
Atom  21C    basis set group =>   1
Atom  22C    basis set group =>   1
Atom  23C    basis set group =>   1
Atom  24C    basis set group =>   1
Atom  25C    basis set group =>   1
Atom  26C    basis set group =>   1
Atom  27C    basis set group =>   1
Atom  28C    basis set group =>   1
Atom  29C    basis set group =>   1
Atom  30C    basis set group =>   1
Atom  31C    basis set group =>   1
Atom  32C    basis set group =>   1
Atom  33C    basis set group =>   1
Atom  34C    basis set group =>   1
Atom  35C    basis set group =>   1
Atom  36C    basis set group =>   1
Atom  37C    basis set group =>   1
Atom  38C    basis set group =>   1
Atom  39C    basis set group =>   1
Atom  40C    basis set group =>   1
Atom  41C    basis set group =>   1
Atom  42C    basis set group =>   1
Atom  43S    basis set group =>   2
Atom  44S    basis set group =>   2
Atom  45C    basis set group =>   1
Atom  46C    basis set group =>   1
Atom  47C    basis set group =>   1
Atom  48C    basis set group =>   1
Atom  49S    basis set group =>   2
Atom  50S    basis set group =>   2
Atom  51C    basis set group =>   1
Atom  52C    basis set group =>   1
Atom  53C    basis set group =>   1
Atom  54C    basis set group =>   1
Atom  55C    basis set group =>   1
Atom  56C    basis set group =>   1
Atom  57C    basis set group =>   1
Atom  58C    basis set group =>   1
Atom  59C    basis set group =>   1
Atom  60C    basis set group =>   1
Atom  61C    basis set group =>   1
Atom  62C    basis set group =>   1
Atom  63C    basis set group =>   1
Atom  64C    basis set group =>   1
Atom  65C    basis set group =>   1
Atom  66C    basis set group =>   1
Atom  67C    basis set group =>   1
Atom  68C    basis set group =>   1
Atom  69C    basis set group =>   1
Atom  70C    basis set group =>   1
Atom  71F    basis set group =>   3
Atom  72F    basis set group =>   3
Atom  73O    basis set group =>   4
Atom  74C    basis set group =>   1
Atom  75C    basis set group =>   1
Atom  76C    basis set group =>   1
Atom  77N    basis set group =>   5
Atom  78N    basis set group =>   5
Atom  79C    basis set group =>   1
Atom  80C    basis set group =>   1
Atom  81C    basis set group =>   1
Atom  82C    basis set group =>   1
Atom  83C    basis set group =>   1
Atom  84C    basis set group =>   1
Atom  85C    basis set group =>   1
Atom  86C    basis set group =>   1
Atom  87C    basis set group =>   1
Atom  88C    basis set group =>   1
Atom  89O    basis set group =>   4
Atom  90C    basis set group =>   1
Atom  91C    basis set group =>   1
Atom  92C    basis set group =>   1
Atom  93N    basis set group =>   5
Atom  94N    basis set group =>   5
Atom  95F    basis set group =>   3
Atom  96F    basis set group =>   3
Atom  97H    basis set group =>   6
Atom  98H    basis set group =>   6
Atom  99H    basis set group =>   6
Atom 100H    basis set group =>   6
Atom 101H    basis set group =>   6
Atom 102H    basis set group =>   6
Atom 103H    basis set group =>   6
Atom 104H    basis set group =>   6
Atom 105H    basis set group =>   6
Atom 106H    basis set group =>   6
Atom 107H    basis set group =>   6
Atom 108H    basis set group =>   6
Atom 109H    basis set group =>   6
Atom 110H    basis set group =>   6
Atom 111H    basis set group =>   6
Atom 112H    basis set group =>   6
Atom 113H    basis set group =>   6
Atom 114H    basis set group =>   6
Atom 115H    basis set group =>   6
Atom 116H    basis set group =>   6
Atom 117H    basis set group =>   6
Atom 118H    basis set group =>   6
Atom 119H    basis set group =>   6
Atom 120H    basis set group =>   6
Atom 121H    basis set group =>   6
Atom 122H    basis set group =>   6
Atom 123H    basis set group =>   6
Atom 124H    basis set group =>   6
Atom 125H    basis set group =>   6
Atom 126H    basis set group =>   6
Atom 127H    basis set group =>   6
Atom 128H    basis set group =>   6
Atom 129H    basis set group =>   6
Atom 130H    basis set group =>   6
Atom 131H    basis set group =>   6
Atom 132H    basis set group =>   6
Atom 133H    basis set group =>   6
Atom 134H    basis set group =>   6
Atom 135H    basis set group =>   6
Atom 136H    basis set group =>   6
Atom 137H    basis set group =>   6
Atom 138H    basis set group =>   6
Atom 139H    basis set group =>   6
Atom 140H    basis set group =>   6
Atom 141H    basis set group =>   6
Atom 142H    basis set group =>   6
Atom 143H    basis set group =>   6
Atom 144H    basis set group =>   6
Atom 145H    basis set group =>   6
Atom 146H    basis set group =>   6
---------------------------------
AUXILIARY/J BASIS SET INFORMATION
---------------------------------
There are 6 groups of distinct atoms

 Group   1 Type C   : 12s5p4d2f1g contracted to 6s4p3d1f1g pattern {711111/2111/211/2/1}
 Group   2 Type S   : 14s5p5d2f1g contracted to 8s4p3d1f1g pattern {71111111/2111/311/2/1}
 Group   3 Type F   : 12s5p4d2f1g contracted to 6s4p3d1f1g pattern {711111/2111/211/2/1}
 Group   4 Type O   : 12s5p4d2f1g contracted to 6s4p3d1f1g pattern {711111/2111/211/2/1}
 Group   5 Type N   : 12s5p4d2f1g contracted to 6s4p3d1f1g pattern {711111/2111/211/2/1}
 Group   6 Type H   : 5s2p1d contracted to 3s1p1d pattern {311/2/1}

Atom   0C    basis set group =>   1
Atom   1C    basis set group =>   1
Atom   2C    basis set group =>   1
Atom   3C    basis set group =>   1
Atom   4C    basis set group =>   1
Atom   5C    basis set group =>   1
Atom   6C    basis set group =>   1
Atom   7C    basis set group =>   1
Atom   8C    basis set group =>   1
Atom   9C    basis set group =>   1
Atom  10C    basis set group =>   1
Atom  11C    basis set group =>   1
Atom  12C    basis set group =>   1
Atom  13C    basis set group =>   1
Atom  14C    basis set group =>   1
Atom  15C    basis set group =>   1
Atom  16C    basis set group =>   1
Atom  17C    basis set group =>   1
Atom  18C    basis set group =>   1
Atom  19C    basis set group =>   1
Atom  20C    basis set group =>   1
Atom  21C    basis set group =>   1
Atom  22C    basis set group =>   1
Atom  23C    basis set group =>   1
Atom  24C    basis set group =>   1
Atom  25C    basis set group =>   1
Atom  26C    basis set group =>   1
Atom  27C    basis set group =>   1
Atom  28C    basis set group =>   1
Atom  29C    basis set group =>   1
Atom  30C    basis set group =>   1
Atom  31C    basis set group =>   1
Atom  32C    basis set group =>   1
Atom  33C    basis set group =>   1
Atom  34C    basis set group =>   1
Atom  35C    basis set group =>   1
Atom  36C    basis set group =>   1
Atom  37C    basis set group =>   1
Atom  38C    basis set group =>   1
Atom  39C    basis set group =>   1
Atom  40C    basis set group =>   1
Atom  41C    basis set group =>   1
Atom  42C    basis set group =>   1
Atom  43S    basis set group =>   2
Atom  44S    basis set group =>   2
Atom  45C    basis set group =>   1
Atom  46C    basis set group =>   1
Atom  47C    basis set group =>   1
Atom  48C    basis set group =>   1
Atom  49S    basis set group =>   2
Atom  50S    basis set group =>   2
Atom  51C    basis set group =>   1
Atom  52C    basis set group =>   1
Atom  53C    basis set group =>   1
Atom  54C    basis set group =>   1
Atom  55C    basis set group =>   1
Atom  56C    basis set group =>   1
Atom  57C    basis set group =>   1
Atom  58C    basis set group =>   1
Atom  59C    basis set group =>   1
Atom  60C    basis set group =>   1
Atom  61C    basis set group =>   1
Atom  62C    basis set group =>   1
Atom  63C    basis set group =>   1
Atom  64C    basis set group =>   1
Atom  65C    basis set group =>   1
Atom  66C    basis set group =>   1
Atom  67C    basis set group =>   1
Atom  68C    basis set group =>   1
Atom  69C    basis set group =>   1
Atom  70C    basis set group =>   1
Atom  71F    basis set group =>   3
Atom  72F    basis set group =>   3
Atom  73O    basis set group =>   4
Atom  74C    basis set group =>   1
Atom  75C    basis set group =>   1
Atom  76C    basis set group =>   1
Atom  77N    basis set group =>   5
Atom  78N    basis set group =>   5
Atom  79C    basis set group =>   1
Atom  80C    basis set group =>   1
Atom  81C    basis set group =>   1
Atom  82C    basis set group =>   1
Atom  83C    basis set group =>   1
Atom  84C    basis set group =>   1
Atom  85C    basis set group =>   1
Atom  86C    basis set group =>   1
Atom  87C    basis set group =>   1
Atom  88C    basis set group =>   1
Atom  89O    basis set group =>   4
Atom  90C    basis set group =>   1
Atom  91C    basis set group =>   1
Atom  92C    basis set group =>   1
Atom  93N    basis set group =>   5
Atom  94N    basis set group =>   5
Atom  95F    basis set group =>   3
Atom  96F    basis set group =>   3
Atom  97H    basis set group =>   6
Atom  98H    basis set group =>   6
Atom  99H    basis set group =>   6
Atom 100H    basis set group =>   6
Atom 101H    basis set group =>   6
Atom 102H    basis set group =>   6
Atom 103H    basis set group =>   6
Atom 104H    basis set group =>   6
Atom 105H    basis set group =>   6
Atom 106H    basis set group =>   6
Atom 107H    basis set group =>   6
Atom 108H    basis set group =>   6
Atom 109H    basis set group =>   6
Atom 110H    basis set group =>   6
Atom 111H    basis set group =>   6
Atom 112H    basis set group =>   6
Atom 113H    basis set group =>   6
Atom 114H    basis set group =>   6
Atom 115H    basis set group =>   6
Atom 116H    basis set group =>   6
Atom 117H    basis set group =>   6
Atom 118H    basis set group =>   6
Atom 119H    basis set group =>   6
Atom 120H    basis set group =>   6
Atom 121H    basis set group =>   6
Atom 122H    basis set group =>   6
Atom 123H    basis set group =>   6
Atom 124H    basis set group =>   6
Atom 125H    basis set group =>   6
Atom 126H    basis set group =>   6
Atom 127H    basis set group =>   6
Atom 128H    basis set group =>   6
Atom 129H    basis set group =>   6
Atom 130H    basis set group =>   6
Atom 131H    basis set group =>   6
Atom 132H    basis set group =>   6
Atom 133H    basis set group =>   6
Atom 134H    basis set group =>   6
Atom 135H    basis set group =>   6
Atom 136H    basis set group =>   6
Atom 137H    basis set group =>   6
Atom 138H    basis set group =>   6
Atom 139H    basis set group =>   6
Atom 140H    basis set group =>   6
Atom 141H    basis set group =>   6
Atom 142H    basis set group =>   6
Atom 143H    basis set group =>   6
Atom 144H    basis set group =>   6
Atom 145H    basis set group =>   6
Atom 146H    basis set group =>   6
------------------------------------------------------------------------------
                           ORCA GTO INTEGRAL CALCULATION
                           -- RI-GTO INTEGRALS CHOSEN --
------------------------------------------------------------------------------

                         BASIS SET STATISTICS AND STARTUP INFO

Gaussian basis set:
 # of primitive gaussian shells          ... 1438
 # of primitive gaussian functions       ... 2726
 # of contracted shells                  ...  740
 # of contracted basis functions         ... 1624
 Highest angular momentum                ...    2
 Maximum contraction depth               ...    5
Auxiliary gaussian basis set:
 # of primitive gaussian shells          ... 2740
 # of primitive gaussian functions       ... 7618
 # of contracted shells                  ... 1713
 # of contracted aux-basis functions     ... 5311
 Highest angular momentum                ...    4
 Maximum contraction depth               ...    7
Ratio of auxiliary to basis functions    ...  3.27
Integral package used                  ... LIBINT
 One Electron integrals                  ... done
 Ordering auxiliary basis shells         ... done
 Integral threshhold             Thresh  ...  2.500e-11
 Primitive cut-off               TCut    ...  2.500e-12
 Pre-screening matrix                    ... done
 Shell pair data                         ... 
 Ordering of the shell pairs             ... done (   0.018 sec) 81111 of 274170 pairs
 Determination of significant pairs      ... done (   0.000 sec)
 Creation of shell pair data             ... done (   0.011 sec)
 Storage of shell pair data              ... done (   0.016 sec)
 Shell pair data done in (   0.046 sec)
 Computing two index integrals           ... done
 Cholesky decomposition of the V-matrix  ... done


Timings:
 Total evaluation time                   ...   4.184 sec (  0.070 min)
 One electron matrix time                ...   1.225 sec (  0.020 min) = 29.3%
 Schwartz matrix evaluation time         ...   1.190 sec (  0.020 min) = 28.4%
 Two index repulsion integral time       ...   0.668 sec (  0.011 min) = 16.0%
 Cholesky decomposition of V             ...   1.036 sec (  0.017 min) = 24.8%
 Three index repulsion integral time     ...   0.000 sec (  0.000 min) =  0.0%

-------------------------------------------------------------------------------
                                 ORCA SCF
-------------------------------------------------------------------------------

------------
SCF SETTINGS
------------
Hamiltonian:
 Density Functional     Method          .... DFT(GTOs)
 Exchange Functional    Exchange        .... WB88
 Correlation Functional Correlation     .... LYP
 LDA part of GGA corr.  LDAOpt          .... VWN-5
 Gradients option       PostSCFGGA      .... off
 Hybrid DFT is turned on
   Fraction HF Exchange ScalHFX         ....  0.190000
   Scaling of DF-GGA-X  ScalDFX         ....  0.350000
   Scaling of DF-GGA-C  ScalDFC         ....  0.810000
   Scaling of DF-LDA-C  ScalLDAC        ....  1.000000
   Perturbative correction              ....  0.000000
   Density functional embedding theory  .... OFF
 Long-range corrected/Screened/Range-Separated Hybrid DFT is turned on
   Amount of maximum screened exact exchange              ....  0.460000
   Range separation parameter mu (erf(mu*r12)/r12)        ....  0.330000
 RI-approximation to the Coulomb term is turned on
   Number of auxiliary basis functions  .... 5311
   RIJ-COSX (HFX calculated with COS-X)).... on


General Settings:
 Integral files         IntName         .... N65-2FIC
 Hartree-Fock type      HFTyp           .... RHF
 Total Charge           Charge          ....    0
 Multiplicity           Mult            ....    1
 Number of Electrons    NEL             ....  692
 Basis Dimension        Dim             .... 1624
 Nuclear Repulsion      ENuc            ....  17324.2208862799 Eh

Convergence Acceleration:
 DIIS                   CNVDIIS         .... on
   Start iteration      DIISMaxIt       ....    12
   Startup error        DIISStart       ....  0.200000
   # of expansion vecs  DIISMaxEq       ....     5
   Bias factor          DIISBfac        ....   1.050
   Max. coefficient     DIISMaxC        ....  10.000
 Newton-Raphson         CNVNR           .... off
 SOSCF                  CNVSOSCF        .... on
   Start iteration      SOSCFMaxIt      ....   150
   Startup grad/error   SOSCFStart      ....  0.003300
 Level Shifting         CNVShift        .... on
   Level shift para.    LevelShift      ....    0.2500
   Turn off err/grad.   ShiftErr        ....    0.0010
 Zerner damping         CNVZerner       .... off
 Static damping         CNVDamp         .... on
   Fraction old density DampFac         ....    0.7000
   Max. Damping (<1)    DampMax         ....    0.9800
   Min. Damping (>=0)   DampMin         ....    0.0000
   Turn off err/grad.   DampErr         ....    0.1000
 Fernandez-Rico         CNVRico         .... off

SCF Procedure:
 Maximum # iterations   MaxIter         ....   125
 SCF integral mode      SCFMode         .... Direct
   Integral package                     .... LIBINT
 Reset frequency        DirectResetFreq ....    20
 Integral Threshold     Thresh          ....  2.500e-11 Eh
 Primitive CutOff       TCut            ....  2.500e-12 Eh

Convergence Tolerance:
 Convergence Check Mode ConvCheckMode   .... Total+1el-Energy
 Convergence forced     ConvForced      .... 1
 Energy Change          TolE            ....  1.000e-08 Eh
 1-El. energy change                    ....  1.000e-05 Eh
 Orbital Gradient       TolG            ....  1.000e-05
 Orbital Rotation angle TolX            ....  1.000e-05
 DIIS Error             TolErr          ....  5.000e-07


Diagonalization of the overlap matrix:
Smallest eigenvalue                        ... 1.569e-04
Time for diagonalization                   ...    0.656 sec
Threshold for overlap eigenvalues          ... 1.000e-08
Number of eigenvalues below threshold      ... 0
Time for construction of square roots      ...    0.305 sec
Total time needed                          ...    0.968 sec

-------------------
DFT GRID GENERATION
-------------------

General Integration Accuracy     IntAcc      ...  4.670
Radial Grid Type                 RadialGrid  ... Gauss-Chebyshev
Angular Grid (max. acc.)         AngularGrid ... Lebedev-302
Angular grid pruning method      GridPruning ... 3 (G Style)
Weight generation scheme         WeightScheme... Becke
Basis function cutoff            BFCut       ...    1.0000e-11
Integration weight cutoff        WCut        ...    1.0000e-14
Grids for H and He will be reduced by one unit

# of grid points (after initial pruning)     ... 775040 (   2.0 sec)
# of grid points (after weights+screening)   ... 649651 (  40.9 sec)
nearest neighbour list constructed           ...    0.0 sec
Grid point re-assignment to atoms done       ...    0.1 sec
Grid point division into batches done        ...    2.2 sec
Reduced shell lists constructed in   12.8 sec

Total number of grid points                  ...   649651
Total number of batches                      ...    10225
Average number of points per batch           ...       63
Average number of grid points per atom       ...     4419
Average number of shells per batch           ...   111.76 (15.10%)
Average number of basis functions per batch  ...   225.85 (13.91%)
Average number of large shells per batch     ...    63.01 (56.38%)
Average number of large basis fcns per batch ...   130.24 (57.66%)
Maximum spatial batch extension              ...  21.90, 20.80, 22.62 au
Average spatial batch extension              ...   2.07,  2.03,  2.12 au

Time for grid setup =   55.769 sec

------------------------------
INITIAL GUESS: MODEL POTENTIAL
------------------------------
Loading Hartree-Fock densities                     ... done
Calculating cut-offs                               ... done
Setting up the integral package                    ... done
Initializing the effective Hamiltonian             ... done
Starting the Coulomb interaction                   ... done (  18.8 sec)
Reading the grid                                   ... done
Mapping shells                                     ... done
Starting the XC term evaluation                    ... done (  12.1 sec)
  promolecular density results
     # of electrons  =    691.977246154
     EX              =   -621.246050403
     EC              =    -23.749325173
     EX+EC           =   -644.995375576
Transforming the Hamiltonian                       ... done (   0.3 sec)
Diagonalizing the Hamiltonian                      ... done (   0.6 sec)
Back transforming the eigenvectors                 ... done (   0.1 sec)
Now organizing SCF variables                       ... done
                      ------------------
                      INITIAL GUESS DONE (  88.1 sec)
                      ------------------
--------------------
COSX GRID GENERATION
--------------------

General Integration Accuracy     IntAcc      ...  3.340
Radial Grid Type                 RadialGrid  ... Gauss-Chebyshev
Angular Grid (max. acc.)         AngularGrid ... Lebedev-50
Angular grid pruning method      GridPruning ... 3 (G Style)
Weight generation scheme         WeightScheme... Becke
Basis function cutoff            BFCut       ...    1.0000e-11
Integration weight cutoff        WCut        ...    1.0000e-14
Grids for H and He will be reduced by one unit

# of grid points (after initial pruning)     ...  72708 (   0.1 sec)
# of grid points (after weights+screening)   ...  63919 (   3.8 sec)
nearest neighbour list constructed           ...    0.0 sec
Grid point re-assignment to atoms done       ...    0.0 sec
Grid point division into batches done        ...    0.0 sec
Reduced shell lists constructed in    1.4 sec

Total number of grid points                  ...    63919
Total number of batches                      ...     1078
Average number of points per batch           ...       59
Average number of grid points per atom       ...      435
Average number of shells per batch           ...   138.25 (18.68%)
Average number of basis functions per batch  ...   281.73 (17.35%)
Average number of large shells per batch     ...    77.51 (56.07%)
Average number of large basis fcns per batch ...   162.52 (57.69%)
Maximum spatial batch extension              ...  20.68, 18.04, 24.88 au
Average spatial batch extension              ...   4.30,  4.03,  4.45 au

Overlap Fitting                  UseSFitting ... on
Constructing numerical overlap ... done (      0.9 sec)
Inverting numerical overlap    ... done (      0.1 sec)
Obtaining analytic overlap     ... done (      0.0 sec)
Final contraction and storage  ... done (      0.1 sec)


General Integration Accuracy     IntAcc      ...  3.670
Radial Grid Type                 RadialGrid  ... Gauss-Chebyshev
Angular Grid (max. acc.)         AngularGrid ... Lebedev-50
Angular grid pruning method      GridPruning ... 3 (G Style)
Weight generation scheme         WeightScheme... Becke
Basis function cutoff            BFCut       ...    1.0000e-11
Integration weight cutoff        WCut        ...    1.0000e-14
Grids for H and He will be reduced by one unit

# of grid points (after initial pruning)     ...  90986 (   0.1 sec)
# of grid points (after weights+screening)   ...  79656 (   4.7 sec)
nearest neighbour list constructed           ...    0.0 sec
Grid point re-assignment to atoms done       ...    0.0 sec
Grid point division into batches done        ...    0.0 sec
Reduced shell lists constructed in    1.7 sec

Total number of grid points                  ...    79656
Total number of batches                      ...     1310
Average number of points per batch           ...       60
Average number of grid points per atom       ...      542
Average number of shells per batch           ...   134.41 (18.16%)
Average number of basis functions per batch  ...   273.68 (16.85%)
Average number of large shells per batch     ...    75.36 (56.07%)
Average number of large basis fcns per batch ...   157.65 (57.60%)
Maximum spatial batch extension              ...  22.01, 20.04, 20.86 au
Average spatial batch extension              ...   3.92,  3.73,  4.15 au

Overlap Fitting                  UseSFitting ... on
Constructing numerical overlap ... done (      1.1 sec)
Inverting numerical overlap    ... done (      0.1 sec)
Obtaining analytic overlap     ... done (      0.0 sec)
Final contraction and storage  ... done (      0.1 sec)


General Integration Accuracy     IntAcc      ...  4.010
Radial Grid Type                 RadialGrid  ... Gauss-Chebyshev
Angular Grid (max. acc.)         AngularGrid ... Lebedev-110
Angular grid pruning method      GridPruning ... 3 (G Style)
Weight generation scheme         WeightScheme... Becke
Basis function cutoff            BFCut       ...    1.0000e-11
Integration weight cutoff        WCut        ...    1.0000e-14
Grids for H and He will be reduced by one unit

# of grid points (after initial pruning)     ... 176272 (   0.3 sec)
# of grid points (after weights+screening)   ... 152779 (   9.3 sec)
nearest neighbour list constructed           ...    0.0 sec
Grid point re-assignment to atoms done       ...    0.0 sec
Grid point division into batches done        ...    0.1 sec
Reduced shell lists constructed in    2.8 sec

Total number of grid points                  ...   152779
Total number of batches                      ...     2465
Average number of points per batch           ...       61
Average number of grid points per atom       ...     1039
Average number of shells per batch           ...   127.06 (17.17%)
Average number of basis functions per batch  ...   258.39 (15.91%)
Average number of large shells per batch     ...    71.84 (56.54%)
Average number of large basis fcns per batch ...   149.85 (57.99%)
Maximum spatial batch extension              ...  21.58, 19.85, 20.26 au
Average spatial batch extension              ...   3.31,  3.20,  3.44 au

Overlap Fitting                  UseSFitting ... on
Constructing numerical overlap ... done (      1.9 sec)
Inverting numerical overlap    ... done (      0.1 sec)
Obtaining analytic overlap     ... done (      0.0 sec)
Final contraction and storage  ... done (      0.1 sec)

Time for X-Grid setup             =   28.919 sec
--------------
SCF ITERATIONS
--------------
ITER       Energy         Delta-E        Max-DP      RMS-DP      [F,P]     Damp
               ***  Starting incremental Fock matrix formation  ***
  0  -5547.3860877635   0.000000000000 0.14881617  0.00077764  0.2241735 0.7000
  1  -5548.0942912708  -0.708203507278 0.08697072  0.00055809  0.0958693 0.7000
                               ***Turning on DIIS***
  2  -5548.4119142984  -0.317623027571 0.14656080  0.00104568  0.0413618 0.0000
  3  -5548.9334154200  -0.521501121606 0.04259146  0.00038289  0.0548476 0.0000
  4  -5549.0228215681  -0.089406148138 0.01683497  0.00011993  0.0238228 0.0000
  5  -5549.0294339613  -0.006612393187 0.00743968  0.00004597  0.0092165 0.0000
                      *** Initiating the SOSCF procedure ***
                           *** Shutting down DIIS ***
                      *** Re-Reading the Fockian *** 
                      *** Removing any level shift *** 
ITER      Energy       Delta-E        Grad      Rot      Max-DP    RMS-DP
  6  -5549.03058779  -0.0011538293  0.002546  0.002546  0.002386  0.000024
               *** Restarting incremental Fock matrix formation ***
  7  -5549.03078065  -0.0001928635  0.001799  0.011868  0.002305  0.000025
  8  -5549.03097881  -0.0001981551  0.000756  0.011626  0.002804  0.000028
  9  -5549.03098103  -0.0000022175  0.001049  0.003767  0.001470  0.000011
[...]
  32   4.386     282.7   0.027692   0.025313  54.756904  54.335560     0.22 ( 125-> 134)    0.13 ( 126-> 134)    0.07 ( 125-> 135)
  33   4.418     280.6   0.134852   0.114150  -178.799247  -168.694626     0.21 ( 124-> 134)    0.11 ( 131-> 137)    0.09 ( 132-> 138)
  34   4.457     278.2   0.034889   0.031045  18.327861  17.805171     0.16 ( 124-> 134)    0.15 ( 131-> 137)    0.08 ( 132-> 138)
  35   4.483     276.6   0.307789   0.267613  55.357183  62.402698     0.09 ( 112-> 133)    0.07 ( 113-> 134)    0.06 ( 124-> 134)
  36   4.511     274.8   0.035065   0.030977  18.587038  16.200369     0.11 ( 124-> 134)    0.09 ( 112-> 133)    0.09 ( 112-> 134)
  37   4.517     274.5   0.209866   0.185084  47.734658  49.440683     0.12 ( 113-> 133)    0.09 ( 112-> 134)    0.07 ( 124-> 134)
  38   4.535     273.4   0.299718   0.258360  266.937148  247.054353     0.21 ( 132-> 139)    0.10 ( 130-> 135)    0.05 ( 116-> 133)
  39   4.555     272.2   0.091570   0.080745  -99.205214  -102.748679     0.28 ( 132-> 140)    0.15 ( 117-> 133)    0.07 ( 118-> 133)
  40   4.570     271.3   0.081621   0.073298  18.489415  21.053834     0.09 ( 123-> 134)    0.08 ( 130-> 135)    0.07 ( 132-> 140)
  41   4.625     268.1   0.012396   0.009681  -84.865727  -75.582501     0.26 ( 122-> 134)    0.25 ( 123-> 134)    0.05 ( 130-> 135)
  42   4.652     266.5   0.037258   0.026696  18.084945   6.000932     0.12 ( 130-> 135)    0.09 ( 132-> 139)    0.07 ( 126-> 136)
  43   4.667     265.7   0.212570   0.161881  871.731721  753.338271     0.11 ( 120-> 135)    0.11 ( 112-> 133)    0.09 ( 121-> 136)
  44   4.687     264.5   0.126907   0.098225  -734.087288  -653.629881     0.17 ( 131-> 137)    0.11 ( 121-> 135)    0.08 ( 123-> 134)
  45   4.690     264.4   0.012467   0.009399   7.629950   0.498650     0.11 ( 116-> 133)    0.09 ( 132-> 139)    0.06 ( 132-> 138)
  46   4.711     263.2   0.052338   0.042065  38.341760  38.081134     0.11 ( 118-> 134)    0.09 ( 117-> 134)    0.07 ( 122-> 134)
  47   4.726     262.3   0.050494   0.039783  -333.898710  -292.884143     0.18 ( 132-> 138)    0.11 ( 122-> 134)    0.09 ( 131-> 137)
  48   4.751     261.0   0.015736   0.011588  -11.336341  -8.887824     0.20 ( 117-> 134)    0.10 ( 118-> 134)    0.07 ( 119-> 134)
  49   4.779     259.4   0.011734   0.008619  54.202859  46.528815     0.39 ( 119-> 134)    0.09 ( 129-> 135)    0.05 ( 128-> 135)
  50   4.789     258.9   0.015763   0.012971   7.866768   7.690805     0.19 ( 119-> 134)    0.11 ( 129-> 135)    0.08 ( 117-> 134)
  51   4.836     256.4   0.013296   0.011088   9.076574   7.450389     0.51 ( 127-> 135)    0.09 ( 127-> 137)    0.05 ( 127-> 133)
  52   4.868     254.7   0.005804   0.005346  26.870602  25.679542     0.21 ( 125-> 135)    0.17 ( 128-> 135)    0.12 ( 128-> 137)
  53   4.895     253.3   0.005457   0.004397  -23.820179  -21.772568     0.28 ( 118-> 134)    0.14 ( 117-> 134)    0.07 ( 111-> 133)
  54   4.912     252.4   0.005075   0.003791  -44.857147  -39.218220     0.14 ( 111-> 133)    0.12 ( 130-> 136)    0.11 ( 118-> 134)
  55   4.926     251.7   0.004557   0.002715  11.386976   7.543012     0.30 ( 130-> 136)    0.07 ( 130-> 137)    0.06 ( 111-> 133)
  56   4.952     250.4   0.001015   0.000502   1.784709   1.675269     0.25 ( 129-> 137)    0.13 ( 129-> 136)    0.08 ( 130-> 136)

-----------------------------------------------------------------------------
         ABSORPTION SPECTRUM VIA TRANSITION ELECTRIC DIPOLE MOMENTS
-----------------------------------------------------------------------------
State   Energy  Wavelength   fosc         T2         TX        TY        TZ  
        (cm-1)    (nm)                  (au**2)     (au)      (au)      (au) 
-----------------------------------------------------------------------------
   0   16242.8    615.7   2.062464359  41.80239  -0.35212  -6.41791   0.69918
   1   19248.7    519.5   0.149061592   2.54941  -1.24011   0.07049   1.00328
   2   24015.2    416.4   0.304008903   4.16750  -1.03940  -1.75121   0.14295
   3   25160.7    397.4   0.046420625   0.60738  -0.08195   0.55292   0.54309
   4   25976.0    385.0   0.052788917   0.66903  -0.71868   0.38971   0.02572
   5   26790.1    373.3   0.088105125   1.08269   0.97332   0.11391  -0.34978
   6   27150.8    368.3   0.206974699   2.50964   0.62304  -1.31025   0.63617
   7   27727.8    360.6   0.075325429   0.89434  -0.17978   0.88888   0.26817
   8   28725.2    348.1   0.016679994   0.19117  -0.14735   0.24659  -0.32962
   9   28793.3    347.3   0.042364605   0.48438  -0.50977  -0.46124  -0.10850
  10   28882.0    346.2   0.010390286   0.11843   0.18874  -0.17671   0.22712
  11   29459.2    339.5   0.007629960   0.08527   0.25192  -0.00615  -0.14753
  12   29910.2    334.3   0.006517642   0.07174   0.17202   0.10443   0.17676
  13   30315.2    329.9   0.259864438   2.82203  -0.05322   1.67642  -0.09381
  14   30362.3    329.4   0.050850677   0.55136   0.22185   0.16919   0.68813
  15   31239.3    320.1   0.037945191   0.39988   0.12823   0.61533  -0.06934
  16   31504.6    317.4   0.010507888   0.10980  -0.22028   0.03695  -0.24477
  17   31905.4    313.4   0.006543541   0.06752   0.06568  -0.23677   0.08454
  18   32014.5    312.4   0.036882980   0.37928   0.12700   0.54426   0.25872
  19   32064.4    311.9   0.032114361   0.32972  -0.07996   0.54317  -0.16821
  20   32363.0    309.0   0.027211113   0.27680   0.02328  -0.36392   0.37924
  21   32550.3    307.2   0.050131515   0.50703  -0.11166   0.28885  -0.64119
  22   32607.4    306.7   0.110247353   1.11308   0.21814   1.02405   0.12965
  23   32771.8    305.1   0.011305463   0.11357   0.02786   0.14732   0.30181
  24   32997.4    303.1   0.029174335   0.29107   0.23223   0.07353   0.48138
  25   33471.2    298.8   0.066553425   0.65460  -0.33890   0.71788  -0.15617
  26   33922.2    294.8   0.004644909   0.04508   0.16454  -0.04753   0.12548
  27   33996.8    294.1   0.001253579   0.01214  -0.01259  -0.10503   0.03080
  28   34201.3    292.4   0.063564829   0.61186  -0.28957  -0.72643  -0.01740
  29   34253.5    291.9   0.019706214   0.18940  -0.00077  -0.43368  -0.03632
  30   34539.2    289.5   0.034756906   0.33129   0.11976   0.55490   0.09502
  31   35011.2    285.6   0.042519323   0.39981  -0.36149   0.51878  -0.00221
  32   35378.6    282.7   0.027691630   0.25768   0.36276   0.32588   0.14103
  33   35633.3    280.6   0.134851702   1.24588  -0.72930   0.13512  -0.83411
  34   35950.9    278.2   0.034888855   0.31949   0.47305   0.30630   0.04345
  35   36159.8    276.6   0.307788904   2.80222  -0.09476  -1.63368   0.35261
  36   36385.2    274.8   0.035065463   0.31727   0.40348   0.18924  -0.34447
  37   36433.6    274.5   0.209866374   1.89634  -0.39101  -1.10554  -0.72197
  38   36574.3    273.4   0.299717797   2.69781  -0.61566  -1.52238   0.03383
  39   36736.8    272.2   0.091570385   0.82060  -0.31116   0.83927  -0.13928
  40   36857.2    271.3   0.081621374   0.72905  -0.60750  -0.58246   0.14399
  41   37305.2    268.1   0.012395869   0.10939  -0.00238  -0.10648   0.31313
  42   37520.1    266.5   0.037258476   0.32692  -0.16022  -0.44323  -0.32372
  43   37640.0    265.7   0.212569967   1.85921   1.10120   0.75310   0.28180
  44   37807.1    264.5   0.126907459   1.10507   0.18263   0.07248  -1.03270
  45   37824.1    264.4   0.012467472   0.10851   0.12162   0.24961  -0.17725
  46   37995.0    263.2   0.052337991   0.45349   0.42884   0.11516   0.50629
  47   38120.2    262.3   0.050494212   0.43608   0.36842   0.06611  -0.54404
  48   38316.6    261.0   0.015736054   0.13520  -0.17644   0.00114  -0.32260
  49   38548.1    259.4   0.011734118   0.10021  -0.30094  -0.08092   0.05569
  50   38626.9    258.9   0.015762821   0.13434   0.25633   0.00032  -0.26199
  51   39005.0    256.4   0.013296456   0.11223  -0.33134  -0.04867  -0.00846
  52   39262.2    254.7   0.005803852   0.04867   0.17582   0.01887  -0.13190
  53   39479.0    253.3   0.005457333   0.04551   0.14876   0.03871  -0.14792
  54   39621.4    252.4   0.005075389   0.04217  -0.05510   0.00138  -0.19782
  55   39731.2    251.7   0.004556671   0.03776  -0.19039  -0.03841  -0.00570
  56   39937.7    250.4   0.001014991   0.00837  -0.00119   0.02835  -0.08696

-----------------------------------------------------------------------------
         ABSORPTION SPECTRUM VIA TRANSITION VELOCITY DIPOLE MOMENTS
-----------------------------------------------------------------------------
State   Energy  Wavelength   fosc         P2         PX        PY        PZ  
        (cm-1)    (nm)                  (au**2)     (au)      (au)      (au) 
-----------------------------------------------------------------------------
   0   16242.8    615.7   2.414265508   0.26801  -0.02636  -0.51381   0.05754
   1   19248.7    519.5   0.168900212   0.02222  -0.11462   0.00420   0.09520
   2   24015.2    416.4   0.300243180   0.04928  -0.11670  -0.18823   0.01524
   3   25160.7    397.4   0.048336326   0.00831  -0.01160   0.06383   0.06406
   4   25976.0    385.0   0.051721831   0.00918  -0.08463   0.04489   0.00235
   5   26790.1    373.3   0.073496991   0.01346   0.10592   0.01563  -0.04466
   6   27150.8    368.3   0.189786068   0.03522   0.07006  -0.15761   0.07393
   7   27727.8    360.6   0.079454577   0.01506  -0.02772   0.11580   0.02966
   8   28725.2    348.1   0.012908849   0.00253  -0.01265   0.02752  -0.04021
   9   28793.3    347.3   0.039638199   0.00780  -0.06082  -0.06282  -0.01247
  10   28882.0    346.2   0.011813704   0.00233   0.02411  -0.02753   0.03151
  11   29459.2    339.5   0.005748437   0.00116   0.02816  -0.00007  -0.01909
  12   29910.2    334.3   0.005363531   0.00110   0.02057   0.00969   0.02407
  13   30315.2    329.9   0.239558140   0.04963  -0.00060   0.22250  -0.01128
  14   30362.3    329.4   0.047816750   0.00992   0.02985   0.02177   0.09251
  15   31239.3    320.1   0.030379046   0.00649   0.01582   0.07837  -0.00970
  16   31504.6    317.4   0.008771940   0.00189  -0.02675   0.00921  -0.03299
  17   31905.4    313.4   0.006391601   0.00139   0.01262  -0.03240   0.01359
  18   32014.5    312.4   0.032746172   0.00716   0.01547   0.07557   0.03486
  19   32064.4    311.9   0.027842833   0.00610  -0.01551   0.07297  -0.02316
  20   32363.0    309.0   0.023536618   0.00521   0.00231  -0.04972   0.05223
  21   32550.3    307.2   0.045573633   0.01014  -0.01572   0.04107  -0.09058
  22   32607.4    306.7   0.102572908   0.02286   0.03045   0.14696   0.01826
  23   32771.8    305.1   0.010438615   0.00234   0.00688   0.01856   0.04412
  24   32997.4    303.1   0.026341938   0.00594   0.03300   0.00638   0.06936
  25   33471.2    298.8   0.054626077   0.01250  -0.04314   0.10057  -0.02283
  26   33922.2    294.8   0.003763739   0.00087   0.02396  -0.00392   0.01683
  27   33996.8    294.1   0.000810294   0.00019  -0.00119  -0.01307   0.00402
  28   34201.3    292.4   0.057959524   0.01355  -0.04016  -0.10920  -0.00329
  29   34253.5    291.9   0.017397616   0.00407  -0.00199  -0.06347  -0.00635
  30   34539.2    289.5   0.034667214   0.00818   0.01665   0.08798   0.01286
  31   35011.2    285.6   0.031762648   0.00760  -0.04764   0.07297   0.00263
  32   35378.6    282.7   0.025313470   0.00612   0.05737   0.04854   0.02176
  33   35633.3    280.6   0.114149677   0.02780  -0.10688   0.02157  -0.12614
  34   35950.9    278.2   0.031045398   0.00763   0.07244   0.04838   0.00626
  35   36159.8    276.6   0.267613497   0.06614  -0.01782  -0.25107   0.05275
  36   36385.2    274.8   0.030977148   0.00770   0.05984   0.03290  -0.05513
  37   36433.6    274.5   0.185084247   0.04609  -0.06263  -0.17216  -0.11192
  38   36574.3    273.4   0.258359617   0.06458  -0.09493  -0.23565   0.00604
  39   36736.8    272.2   0.080744826   0.02027  -0.05638   0.12827  -0.02532
  40   36857.2    271.3   0.073297692   0.01846  -0.09307  -0.09632   0.02289
  41   37305.2    268.1   0.009680961   0.00247  -0.00203  -0.01588   0.04703
  42   37520.1    266.5   0.026696084   0.00685  -0.02045  -0.06382  -0.04852
  43   37640.0    265.7   0.161881097   0.04164   0.16285   0.11538   0.04258
  44   37807.1    264.5   0.098225311   0.02538   0.02699   0.00637  -0.15688
  45   37824.1    264.4   0.009398700   0.00243   0.01436   0.03842  -0.02734
  46   37995.0    263.2   0.042064880   0.01092   0.06781   0.02059   0.07682
  47   38120.2    262.3   0.039782685   0.01036   0.05892   0.01122  -0.08226
  48   38316.6    261.0   0.011587805   0.00303  -0.02693  -0.00085  -0.04805
  49   38548.1    259.4   0.008618977   0.00227  -0.04539  -0.01143   0.00896
  50   38626.9    258.9   0.012970623   0.00342   0.04112   0.00115  -0.04162
  51   39005.0    256.4   0.011087789   0.00296  -0.05326  -0.01050  -0.00303
  52   39262.2    254.7   0.005345834   0.00143   0.03150   0.00302  -0.02081
  53   39479.0    253.3   0.004396793   0.00119   0.02297   0.00677  -0.02475
  54   39621.4    252.4   0.003791184   0.00103  -0.00806  -0.00007  -0.03101
  55   39731.2    251.7   0.002715065   0.00074  -0.02575  -0.00852   0.00131
  56   39937.7    250.4   0.000501604   0.00014  -0.00079   0.00329  -0.01120

-------------------------------------------------------------------
                             CD SPECTRUM
-------------------------------------------------------------------
State   Energy Wavelength       R         MX        MY        MZ   
        (cm-1)   (nm)       (1e40*cgs)   (au)      (au)      (au)  
-------------------------------------------------------------------
   0   16242.8    615.7    300.53726  -2.65711   0.31726  -0.24953
   1   19248.7    519.5    -426.44540  -0.00735   0.76978   1.74003
   2   24015.2    416.4    171.75496   0.83333  -0.06571   0.15704
   3   25160.7    397.4    -178.29708   0.13517   0.33000   1.07717
   4   25976.0    385.0     28.06048   0.31908   0.26913   0.20967
   5   26790.1    373.3    -26.20808  -0.27061  -0.56241  -1.25404
   6   27150.8    368.3    272.78397  -1.97481   0.32896   0.79253
   7   27727.8    360.6     11.37082   1.56517  -0.02874   0.96467
   8   28725.2    348.1    -34.00560  -0.16953   0.04124  -0.33103
   9   28793.3    347.3     99.00680   0.96976  -0.10711  -0.22983
  10   28882.0    346.2     19.49922  -0.42514   0.07056   0.04399
  11   29459.2    339.5    -21.65830   0.33827  -0.22702  -0.03570
  12   29910.2    334.3     25.53536  -0.44756  -0.11989  -0.10648
  13   30315.2    329.9    -58.96533  -0.92354   0.10595  -0.24915
  14   30362.3    329.4     26.62679  -0.30258   0.23725  -0.12494
  15   31239.3    320.1      8.66347  -0.03389  -0.09414  -0.36805
  16   31504.6    317.4    -10.29884   0.36812  -0.02292  -0.51324
  17   31905.4    313.4    -10.72078  -0.03787   0.10284   0.85548
  18   32014.5    312.4     25.30792  -0.97617   0.12592  -0.20070
  19   32064.4    311.9      1.09774  -0.57117  -0.08654   0.01975
  20   32363.0    309.0    -35.13160   0.00507   0.26407   0.64608
  21   32550.3    307.2    -33.71534  -0.31297  -0.42208  -0.35871
  22   32607.4    306.7     74.59138  -1.97307   0.16340  -0.41158
  23   32771.8    305.1    -23.82689  -0.41580   0.21352   0.26906
  24   32997.4    303.1    -51.31910  -0.15812   0.14801   0.50593
  25   33471.2    298.8    -20.17993  -0.24878   0.08810   0.39670
  26   33922.2    294.8      4.58616  -0.14060   0.05480   0.05007
  27   33996.8    294.1      1.99935  -0.13306   0.09319  -0.01198
  28   34201.3    292.4    -12.25041   0.12664  -0.10845  -0.56664
  29   34253.5    291.9      3.03390   0.40530  -0.01388   0.51155
  30   34539.2    289.5    -12.41586  -0.32959   0.16303   0.01762
  31   35011.2    285.6    -72.04525  -0.58979   0.17501  -0.74484
  32   35378.6    282.7     54.75690  -0.93426   0.00509   0.74423
  33   35633.3    280.6    -178.79925   0.48014  -0.13135  -1.35046
  34   35950.9    278.2     18.32786  -0.14635  -0.12792   0.70558
  35   36159.8    276.6     55.35718   1.99808   0.17925   0.70145
  36   36385.2    274.8     18.58704  -0.43948  -0.32701  -0.46552
  37   36433.6    274.5     47.73466   1.86653  -0.44580  -0.04774
  38   36574.3    273.4    266.93715   0.82623   0.41897   0.41641
  39   36736.8    272.2    -99.20521  -0.86073   0.13922  -0.25979
  40   36857.2    271.3     18.48941  -0.14479   0.54137   1.03435
  41   37305.2    268.1    -84.86573  -0.22328   0.42461   1.29246
  42   37520.1    266.5     18.08494   2.23210  -0.30861  -0.44522
  43   37640.0    265.7    871.73172  -3.11170  -0.21017  -0.40193
  44   37807.1    264.5    -734.08729  -0.00444  -0.98363  -3.08543
  45   37824.1    264.4      7.62995  -1.04843  -0.20751  -0.82899
  46   37995.0    263.2     38.34176  -1.51457   0.27868   0.89822
  47   38120.2    262.3    -333.89871   0.75109  -0.64799  -2.17378
  48   38316.6    261.0    -11.33634   1.49925  -0.38472  -0.97044
  49   38548.1    259.4     54.20286   0.74996   0.03287  -0.02858
  50   38626.9    258.9      7.86677  -0.76851  -0.12132  -0.62465
  51   39005.0    256.4      9.07657   0.11616   0.08277  -0.47417
  52   39262.2    254.7     26.87060  -0.40247   0.22121   0.35942
  53   39479.0    253.3    -23.82018   0.13540  -0.12190  -0.57888
  54   39621.4    252.4    -44.85715   0.24415  -0.22495  -1.03154
  55   39731.2    251.7     11.38698   0.25842  -0.06142   0.25706
  56   39937.7    250.4      1.78471   0.52785  -0.04498   0.06520

sTD-DFT done

Total run time:        9.489 sec

           *** ORCA-CIS/TD-DFT FINISHED WITHOUT ERROR ***

-------------------------   --------------------
FINAL SINGLE POINT ENERGY     -5549.025677092341
-------------------------   --------------------


                            ***************************************
                            *     ORCA property calculations      *
                            ***************************************

                                    ---------------------
                                    Active property flags
                                    ---------------------
   (+) Dipole Moment


------------------------------------------------------------------------------
                       ORCA ELECTRIC PROPERTIES CALCULATION
------------------------------------------------------------------------------

Dipole Moment Calculation                       ... on
Quadrupole Moment Calculation                   ... off
Polarizability Calculation                      ... off
GBWName                                         ... N65-2FIC.gbw
Electron density file                           ... N65-2FIC.scfp
The origin for moment calculation is the CENTER OF MASS  = ( 2.144921,  0.439724  3.230333)

-------------
DIPOLE MOMENT
-------------
                                X             Y             Z
Electronic contribution:     17.92153      18.94545     -62.16398
Nuclear contribution   :    -19.27638     -19.34877      65.09887
                        -----------------------------------------
Total Dipole Moment    :     -1.35485      -0.40332       2.93489
                        -----------------------------------------
Magnitude (a.u.)       :      3.25758
Magnitude (Debye)      :      8.28011



--------------------
Rotational spectrum 
--------------------
 
Rotational constants in cm-1:     0.000891     0.000203     0.000186 
Rotational constants in MHz :    26.701513     6.095511     5.577842 

 Dipole components along the rotational axes: 
x,y,z [a.u.] :    -0.785421    -1.083410     2.970045 
x,y,z [Debye]:    -1.996382    -2.753810     7.549254 

 

Timings for individual modules:

Sum of individual times         ...     6688.386 sec (= 111.473 min)
GTO integral calculation        ...        4.226 sec (=   0.070 min)   0.1 %
SCF iterations                  ...     6674.591 sec (= 111.243 min)  99.8 %
CIS module                      ...        9.569 sec (=   0.159 min)   0.1 %
                             ****ORCA TERMINATED NORMALLY****
TOTAL RUN TIME: 0 days 1 hours 51 minutes 29 seconds 292 msec
