
                                 *****************
                                 * O   R   C   A *
                                 *****************

           --- An Ab Initio, DFT and Semiempirical electronic structure package ---

                  #######################################################
                  #                        -***-                        #
                  #          Department of theory and spectroscopy      #
                  #               Directorship: Frank Neese             #
                  #        Max Planck Institute fuer Kohlenforschung    #
                  #                Kaiser Wilhelm Platz 1               #
                  #                 D-45470 Muelheim/Ruhr               #
                  #                      Germany                        #
                  #                                                     #
                  #                  All rights reserved                #
                  #                        -***-                        #
                  #######################################################


                         Program Version 4.2.0 -  RELEASE  -


 With contributions from (in alphabetic order):
   Daniel Aravena         : Magnetic Suceptibility
   Michael Atanasov       : Ab Initio Ligand Field Theory (pilot matlab implementation)
   Alexander A. Auer      : GIAO ZORA, VPT2
   Ute Becker             : Parallelization
   Giovanni Bistoni       : ED, misc. LED, open-shell LED, HFLED
   Martin Brehm           : Molecular dynamics
   Dmytro Bykov           : SCF Hessian
   Vijay G. Chilkuri      : MRCI spin determinant printing, contributions to CSF-ICE
   Dipayan Datta          : RHF DLPNO-CCSD density
   Achintya Kumar Dutta   : EOM-CC, STEOM-CC
   Dmitry Ganyushin       : Spin-Orbit,Spin-Spin,Magnetic field MRCI
   Miquel Garcia          : C-PCM Hessian, Gaussian charge scheme
   Yang Guo               : DLPNO-NEVPT2, CIM, IAO-localization
   Andreas Hansen         : Spin unrestricted coupled pair/coupled cluster methods
   Benjamin Helmich-Paris : CASSCF linear response (MC-RPA)
   Lee Huntington         : MR-EOM, pCC
   Robert Izsak           : Overlap fitted RIJCOSX, COSX-SCS-MP3, EOM
   Christian Kollmar      : KDIIS, OOCD, Brueckner-CCSD(T), CCSD density
   Simone Kossmann        : Meta GGA functionals, TD-DFT gradient, OOMP2, MP2 Hessian
   Martin Krupicka        : AUTO-CI
   Lucas Lang             : DCDCAS
   Dagmar Lenk            : GEPOL surface, SMD
   Dimitrios Liakos       : Extrapolation schemes; Compound Job, initial MDCI parallelization
   Dimitrios Manganas     : Further ROCIS development; embedding schemes
   Dimitrios Pantazis     : SARC Basis sets
   Taras Petrenko         : DFT Hessian,TD-DFT gradient, ASA, ECA, R-Raman, ABS, FL, XAS/XES, NRVS
   Peter Pinski           : DLPNO-MP2, DLPNO-MP2 Gradient
   Christoph Reimann      : Effective Core Potentials
   Marius Retegan         : Local ZFS, SOC
   Christoph Riplinger    : Optimizer, TS searches, QM/MM, DLPNO-CCSD(T), (RO)-DLPNO pert. Triples
   Tobias Risthaus        : Range-separated hybrids, TD-DFT gradient, RPA, STAB
   Michael Roemelt        : Original ROCIS implementation
   Masaaki Saitow         : Open-shell DLPNO-CCSD energy and density
   Barbara Sandhoefer     : DKH picture change effects
   Avijit Sen             : IP-ROCIS
   Kantharuban Sivalingam : CASSCF convergence, NEVPT2, FIC-MRCI
   Bernardo de Souza      : ESD, SOC TD-DFT
   Georgi Stoychev        : AutoAux, RI-MP2 NMR
   Willem Van den Heuvel  : Paramagnetic NMR
   Boris Wezisla          : Elementary symmetry handling
   Frank Wennmohs         : Technical directorship


 We gratefully acknowledge several colleagues who have allowed us to
 interface, adapt or use parts of their codes:
   Stefan Grimme, W. Hujo, H. Kruse,             : VdW corrections, initial TS optimization,
                  C. Bannwarth                     DFT functionals, gCP, sTDA/sTD-DF
   Ed Valeev, F. Pavosevic, A. Kumar             : LibInt (2-el integral package), F12 methods
   Garnet Chan, S. Sharma, J. Yang, R. Olivares  : DMRG
   Ulf Ekstrom                                   : XCFun DFT Library
   Mihaly Kallay                                 : mrcc  (arbitrary order and MRCC methods)
   Andreas Klamt, Michael Diedenhofen            : otool_cosmo (COSMO solvation model)
   Jiri Pittner, Ondrej Demel                    : Mk-CCSD
   Frank Weinhold                                : gennbo (NPA and NBO analysis)
   Christopher J. Cramer and Donald G. Truhlar   : smd solvation model
   Lars Goerigk                                  : TD-DFT with DH, B97 family of functionals
   V. Asgeirsson, H. Jonsson                     : NEB implementation
   FAccTs GmbH                                   : IRC, NEB, NEB-TS, Multilevel, MM, QM/MM, CI optimization
   S Lehtola, MJT Oliveira, MAL Marques          : LibXC Library


 Your calculation uses the libint2 library for the computation of 2-el integrals
 For citations please refer to: http://libint.valeyev.net

 Your ORCA version has been built with support for libXC version: 4.2.3
 For citations please refer to: https://tddft.org/programs/libxc/

 This ORCA versions uses:
   CBLAS   interface :  Fast vector & matrix operations
   LAPACKE interface :  Fast linear algebra routines
   SCALAPACK package :  Parallel linear algebra routines


XCFun DFT library Copyright 2009-2010 Ulf Ekstrom and contributors.
See http://admol.org/xcfun for more information. This is free soft-
ware; see the source code for copying conditions. There is ABSOLUTELY
NO WARRANTY; not even for MERCHANTABILITY or FITNESS FOR A PARTICULAR
PURPOSE. For details see the documentation. Scientific users of this 
library should cite U. Ekstrom, L. Visscher, R. Bast, A. J. Thorvald-
sen and K. Ruud; J.Chem.Theor.Comp. 2010, DOI: 10.1021/ct100117s
XCFun Version 0.99 
----- Orbital basis set information -----
Your calculation utilizes the basis: def2-SVP
   F. Weigend and R. Ahlrichs, Phys. Chem. Chem. Phys. 7, 3297 (2005).

----- AuxJ basis set information -----
Your calculation utilizes the auxiliary basis: def2/J
   F. Weigend, Phys. Chem. Chem. Phys. 8, 1057 (2006).

================================================================================
                                        WARNINGS
                       Please study these warnings very carefully!
================================================================================

INFO   : Checking CIS options ...

WARNING: CIS/ROCIS methods need fully converged wavefunctions
  ===> : Setting SCFConvForced true
         You can overwrite this default with %scf ConvForced false 


INFO   : the flag for use of LIBINT has been found!

================================================================================
                                       INPUT FILE
================================================================================
NAME = NITV.inp
|  1> # ORCA input file
|  2> # NITV.out
|  3> ! CAM-B3LYP def2-SVP def2/J RIJCOSX Grid4 TightSCF
|  4> %maxcore 5000
|  5> %tddft
|  6>     Mode sTDDFT
|  7>     Ethresh 5.0
|  8>     maxcore 5000
|  9> end
| 10> * xyz 0 1
| 11>    C       -0.50410        -1.84186        -0.17293
| 12>    C        5.04718         4.45477        -0.71344
| 13>    C       -0.99553        -3.16148        -0.08256
| 14>    C       -0.43812        -4.40205        -0.08943
| 15>    C        5.44481         5.80537        -0.69346
| 16>    C        4.70135         6.94346        -0.56808
| 17>    C        0.90449        -4.95147        -0.17206
| 18>    C        0.75897        -6.36301        -0.15348
| 19>    C       -0.57413        -6.79013        -0.05776
| 20>    C       -1.39751        -5.55716        -0.00240
| 21>    C        5.24756         8.29224        -0.56635
| 22>    C        4.15161         9.17183        -0.42400
| 23>    C        2.92162         8.50453        -0.33234
| 24>    C        3.22949         7.05060        -0.41812
| 25>    C        2.19461        -4.46212        -0.24959
| 26>    C        3.27915        -5.34945        -0.31559
| 27>    C        3.12326        -6.72538        -0.30685
| 28>    C        1.82317        -7.25486        -0.22117
| 29>    C        1.53054        -8.63013        -0.20228
| 30>    C        0.21339        -9.04968        -0.11023
| 31>    C       -0.85192        -8.13870        -0.03434
| 32>    C        4.25181        -7.66151        -0.37708
| 33>    N        3.92531        -9.01540        -0.34798
| 34>    C        2.65582        -9.57947        -0.28596
| 35>    C        5.05418        -9.93801        -0.39987
| 36>    C        5.76826       -10.06883         0.95164
| 37>    C        4.80401       -10.53322         2.03973
| 38>    C        6.92591       -11.05194         0.80399
| 39>    C        1.76996         9.24736        -0.19614
| 40>    C        1.87012        10.64843        -0.15459
| 41>    C        3.08779        11.30344        -0.24531
| 42>    C        4.26909        10.55419        -0.38363
| 43>    C        5.55883        11.10547        -0.49094
| 44>    C        6.64152        10.25053        -0.62963
| 45>    C        6.50456         8.85372        -0.66881
| 46>    C        5.69055        12.56789        -0.45419
| 47>    N        4.50048        13.28068        -0.29665
| 48>    C        3.21116        12.77229        -0.20466
| 49>    C        4.60844        14.73459        -0.23429
| 50>    C        4.46268        15.27508         1.19406
| 51>    C        5.51058        14.66514         2.12097
| 52>    C        4.59295        16.79501         1.16089
| 53>    O        5.40991        -7.30636        -0.46128
| 54>    O        2.49865       -10.78251        -0.30804
| 55>    O       -2.60167        -5.47115         0.09099
| 56>    O        2.42284         6.14102        -0.37100
| 57>    O        6.75481        13.14117        -0.55988
| 58>    O        2.25563        13.51344        -0.10212
| 59>    C       -1.32419        -0.72314        -0.13029
| 60>    C       -0.66483         0.49859        -0.24919
| 61>    C        0.71190         0.33921        -0.38788
| 62>    S        1.15164        -1.34533        -0.37096
| 63>    C        5.93427         3.39092        -0.85341
| 64>    C        5.34404         2.13304        -0.84890
| 65>    C        3.95825         2.21723        -0.70048
| 66>    S        3.41800         3.86476        -0.57411
| 67>    C        1.68800         1.35522        -0.51030
| 68>    C        3.02256         1.15402        -0.63295
| 69>    C        6.13406         0.86864        -0.95934
| 70>    C        6.77280         0.46942         0.38439
| 71>    C        5.70802         0.09615         1.41115
| 72>    C        7.73843        -0.69353         0.17392
| 73>    C       -1.37883         1.81020        -0.19772
| 74>    C       -1.67054         2.25568         1.24798
| 75>    C       -0.38194         2.55335         2.00849
| 76>    C       -2.56964         3.48865         1.23166
| 77>    H       -2.08038        -3.19348         0.00755
| 78>    H        6.51660         5.94493        -0.79625
| 79>    H        2.39867        -3.40550        -0.25901
| 80>    H        4.28289        -4.95472        -0.37686
| 81>    H        0.01722       -10.11175        -0.09686
| 82>    H       -1.86775        -8.49543         0.03992
| 83>    H        5.75663        -9.56173        -1.14733
| 84>    H        4.66382       -10.90834        -0.71096
| 85>    H        6.16980        -9.08708         1.22276
| 86>    H        4.32901       -11.46822         1.75108
| 87>    H        4.02397        -9.79418         2.21449
| 88>    H        5.33788       -10.68772         2.97461
| 89>    H        6.55275       -12.03762         0.53412
| 90>    H        7.47189       -11.13558         1.74038
| 91>    H        7.61643       -10.71935         0.03266
| 92>    H        0.80393         8.77145        -0.12371
| 93>    H        0.97744        11.24758        -0.04967
| 94>    H        7.62491        10.69031        -0.71074
| 95>    H        7.38903         8.24444        -0.77968
| 96>    H        3.82013        15.15423        -0.86391
| 97>    H        5.58711        15.00203        -0.63596
| 98>    H        3.46446        15.01366         1.55940
| 99>    H        6.51054        14.84446         1.73220
|100>    H        5.37006        13.58997         2.21830
|101>    H        5.43801        15.10603         3.11253
|102>    H        5.57820        17.08255         0.80021
|103>    H        4.45781        17.20723         2.15766
|104>    H        3.84283        17.23042         0.50519
|105>    H       -2.39123        -0.80717        -0.01721
|106>    H        6.99473         3.54461        -0.96116
|107>    H        1.32328         2.37254        -0.48623
|108>    H        3.40555         0.14318        -0.66784
|109>    H        6.93175         1.02078        -1.69018
|110>    H        5.50505         0.05183        -1.31425
|111>    H        7.33541         1.33024         0.76311
|112>    H        5.14641        -0.77448         1.07852
|113>    H        5.01274         0.91759         1.56792
|114>    H        6.17269        -0.14459         2.36445
|115>    H        7.21104        -1.55931        -0.22081
|116>    H        8.20177        -0.97653         1.11600
|117>    H        8.52566        -0.42272        -0.52614
|118>    H       -2.32959         1.70475        -0.72528
|119>    H       -0.79954         2.58553        -0.69948
|120>    H       -2.19745         1.44047         1.75701
|121>    H        0.15827         3.37309         1.53945
|122>    H        0.26705         1.68103         2.03605
|123>    H       -0.60976         2.83918         3.03280
|124>    H       -2.07366         4.31027         0.71939
|125>    H       -2.79619         3.80552         2.24690
|126>    H       -3.50739         3.27981         0.72160
|127> *
|128> 
|129>                          ****END OF INPUT****
================================================================================

                       ****************************
                       * Single Point Calculation *
                       ****************************

---------------------------------
CARTESIAN COORDINATES (ANGSTROEM)
---------------------------------
  C     -0.504100   -1.841860   -0.172930
  C      5.047180    4.454770   -0.713440
  C     -0.995530   -3.161480   -0.082560
  C     -0.438120   -4.402050   -0.089430
  C      5.444810    5.805370   -0.693460
  C      4.701350    6.943460   -0.568080
  C      0.904490   -4.951470   -0.172060
  C      0.758970   -6.363010   -0.153480
  C     -0.574130   -6.790130   -0.057760
  C     -1.397510   -5.557160   -0.002400
  C      5.247560    8.292240   -0.566350
  C      4.151610    9.171830   -0.424000
  C      2.921620    8.504530   -0.332340
  C      3.229490    7.050600   -0.418120
  C      2.194610   -4.462120   -0.249590
  C      3.279150   -5.349450   -0.315590
  C      3.123260   -6.725380   -0.306850
  C      1.823170   -7.254860   -0.221170
  C      1.530540   -8.630130   -0.202280
  C      0.213390   -9.049680   -0.110230
  C     -0.851920   -8.138700   -0.034340
  C      4.251810   -7.661510   -0.377080
  N      3.925310   -9.015400   -0.347980
  C      2.655820   -9.579470   -0.285960
  C      5.054180   -9.938010   -0.399870
  C      5.768260  -10.068830    0.951640
  C      4.804010  -10.533220    2.039730
  C      6.925910  -11.051940    0.803990
  C      1.769960    9.247360   -0.196140
  C      1.870120   10.648430   -0.154590
  C      3.087790   11.303440   -0.245310
  C      4.269090   10.554190   -0.383630
  C      5.558830   11.105470   -0.490940
  C      6.641520   10.250530   -0.629630
  C      6.504560    8.853720   -0.668810
  C      5.690550   12.567890   -0.454190
  N      4.500480   13.280680   -0.296650
  C      3.211160   12.772290   -0.204660
  C      4.608440   14.734590   -0.234290
  C      4.462680   15.275080    1.194060
  C      5.510580   14.665140    2.120970
  C      4.592950   16.795010    1.160890
  O      5.409910   -7.306360   -0.461280
  O      2.498650  -10.782510   -0.308040
  O     -2.601670   -5.471150    0.090990
  O      2.422840    6.141020   -0.371000
  O      6.754810   13.141170   -0.559880
  O      2.255630   13.513440   -0.102120
  C     -1.324190   -0.723140   -0.130290
  C     -0.664830    0.498590   -0.249190
  C      0.711900    0.339210   -0.387880
  S      1.151640   -1.345330   -0.370960
  C      5.934270    3.390920   -0.853410
  C      5.344040    2.133040   -0.848900
  C      3.958250    2.217230   -0.700480
  S      3.418000    3.864760   -0.574110
  C      1.688000    1.355220   -0.510300
  C      3.022560    1.154020   -0.632950
  C      6.134060    0.868640   -0.959340
  C      6.772800    0.469420    0.384390
  C      5.708020    0.096150    1.411150
  C      7.738430   -0.693530    0.173920
  C     -1.378830    1.810200   -0.197720
  C     -1.670540    2.255680    1.247980
  C     -0.381940    2.553350    2.008490
  C     -2.569640    3.488650    1.231660
  H     -2.080380   -3.193480    0.007550
  H      6.516600    5.944930   -0.796250
  H      2.398670   -3.405500   -0.259010
  H      4.282890   -4.954720   -0.376860
  H      0.017220  -10.111750   -0.096860
  H     -1.867750   -8.495430    0.039920
  H      5.756630   -9.561730   -1.147330
  H      4.663820  -10.908340   -0.710960
  H      6.169800   -9.087080    1.222760
  H      4.329010  -11.468220    1.751080
  H      4.023970   -9.794180    2.214490
  H      5.337880  -10.687720    2.974610
  H      6.552750  -12.037620    0.534120
  H      7.471890  -11.135580    1.740380
  H      7.616430  -10.719350    0.032660
  H      0.803930    8.771450   -0.123710
  H      0.977440   11.247580   -0.049670
  H      7.624910   10.690310   -0.710740
  H      7.389030    8.244440   -0.779680
  H      3.820130   15.154230   -0.863910
  H      5.587110   15.002030   -0.635960
  H      3.464460   15.013660    1.559400
  H      6.510540   14.844460    1.732200
  H      5.370060   13.589970    2.218300
  H      5.438010   15.106030    3.112530
  H      5.578200   17.082550    0.800210
  H      4.457810   17.207230    2.157660
  H      3.842830   17.230420    0.505190
  H     -2.391230   -0.807170   -0.017210
  H      6.994730    3.544610   -0.961160
  H      1.323280    2.372540   -0.486230
  H      3.405550    0.143180   -0.667840
  H      6.931750    1.020780   -1.690180
  H      5.505050    0.051830   -1.314250
  H      7.335410    1.330240    0.763110
  H      5.146410   -0.774480    1.078520
  H      5.012740    0.917590    1.567920
  H      6.172690   -0.144590    2.364450
  H      7.211040   -1.559310   -0.220810
  H      8.201770   -0.976530    1.116000
  H      8.525660   -0.422720   -0.526140
  H     -2.329590    1.704750   -0.725280
  H     -0.799540    2.585530   -0.699480
  H     -2.197450    1.440470    1.757010
  H      0.158270    3.373090    1.539450
  H      0.267050    1.681030    2.036050
  H     -0.609760    2.839180    3.032800
  H     -2.073660    4.310270    0.719390
  H     -2.796190    3.805520    2.246900
  H     -3.507390    3.279810    0.721600

----------------------------
CARTESIAN COORDINATES (A.U.)
----------------------------
  NO LB      ZA    FRAG     MASS         X           Y           Z
   0 C     6.0000    0    12.011   -0.952611   -3.480611   -0.326790
   1 C     6.0000    0    12.011    9.537788    8.418295   -1.348206
   2 C     6.0000    0    12.011   -1.881279   -5.974331   -0.156016
   3 C     6.0000    0    12.011   -0.827927   -8.318669   -0.168998
   4 C     6.0000    0    12.011   10.289200   10.970559   -1.310449
   5 C     6.0000    0    12.011    8.884264   13.121238   -1.073516
   6 C     6.0000    0    12.011    1.709238   -9.356922   -0.325146
   7 C     6.0000    0    12.011    1.434245  -12.024346   -0.290035
   8 C     6.0000    0    12.011   -1.084948  -12.831486   -0.109151
   9 C     6.0000    0    12.011   -2.640911  -10.501510   -0.004535
  10 C     6.0000    0    12.011    9.916451   15.670063   -1.070246
  11 C     6.0000    0    12.011    7.845406   17.332247   -0.801244
  12 C     6.0000    0    12.011    5.521062   16.071233   -0.628032
  13 C     6.0000    0    12.011    6.102852   13.323703   -0.790132
  14 C     6.0000    0    12.011    4.147212   -8.432185   -0.471657
  15 C     6.0000    0    12.011    6.196695  -10.108995   -0.596379
  16 C     6.0000    0    12.011    5.902106  -12.709126   -0.579862
  17 C     6.0000    0    12.011    3.445292  -13.709699   -0.417951
  18 C     6.0000    0    12.011    2.892301  -16.308582   -0.382254
  19 C     6.0000    0    12.011    0.403249  -17.101417   -0.208305
  20 C     6.0000    0    12.011   -1.609895  -15.379914   -0.064893
  21 C     6.0000    0    12.011    8.034756  -14.478156   -0.712578
  22 N     7.0000    0    14.007    7.417761  -17.036637   -0.657587
  23 C     6.0000    0    12.011    5.018772  -18.102575   -0.540386
  24 C     6.0000    0    12.011    9.551016  -18.780117   -0.755645
  25 C     6.0000    0    12.011   10.900432  -19.027331    1.798339
  26 C     6.0000    0    12.011    9.078263  -19.904901    3.854531
  27 C     6.0000    0    12.011   13.088073  -20.885140    1.519321
  28 C     6.0000    0    12.011    3.344740   17.474978   -0.370651
  29 C     6.0000    0    12.011    3.534015   20.122616   -0.292133
  30 C     6.0000    0    12.011    5.835077   21.360406   -0.463569
  31 C     6.0000    0    12.011    8.067411   19.944529   -0.724956
  32 C     6.0000    0    12.011   10.504666   20.986297   -0.927742
  33 C     6.0000    0    12.011   12.550654   19.370694   -1.189828
  34 C     6.0000    0    12.011   12.291837   16.731106   -1.263868
  35 C     6.0000    0    12.011   10.753581   23.749870   -0.858295
  36 N     7.0000    0    14.007    8.504675   25.096848   -0.560587
  37 C     6.0000    0    12.011    6.068213   24.136130   -0.386751
  38 C     6.0000    0    12.011    8.708690   27.844340   -0.442744
  39 C     6.0000    0    12.011    8.433243   28.865718    2.256446
  40 C     6.0000    0    12.011   10.413487   27.713098    4.008052
  41 C     6.0000    0    12.011    8.679418   31.737969    2.193764
  42 O     8.0000    0    15.999   10.223248  -13.807019   -0.871693
  43 O     8.0000    0    15.999    4.721764  -20.375991   -0.582111
  44 O     8.0000    0    15.999   -4.916444  -10.338975    0.171946
  45 O     8.0000    0    15.999    4.578504   11.604846   -0.701088
  46 O     8.0000    0    15.999   12.764741   24.833212   -1.058020
  47 O     8.0000    0    15.999    4.262523   25.536701   -0.192979
  48 C     6.0000    0    12.011   -2.502356   -1.366537   -0.246212
  49 C     6.0000    0    12.011   -1.256347    0.942199   -0.470901
  50 C     6.0000    0    12.011    1.345296    0.641014   -0.732987
  51 S    16.0000    0    32.060    2.176284   -2.542305   -0.701013
  52 C     6.0000    0    12.011   11.214145    6.407910   -1.612711
  53 C     6.0000    0    12.011   10.098772    4.030861   -1.604189
  54 C     6.0000    0    12.011    7.480008    4.189957   -1.323715
  55 S    16.0000    0    32.060    6.459084    7.303338   -1.084911
  56 C     6.0000    0    12.011    3.189858    2.560995   -0.964327
  57 C     6.0000    0    12.011    5.711811    2.180782   -1.196102
  58 C     6.0000    0    12.011   11.591693    1.641492   -1.812890
  59 C     6.0000    0    12.011   12.798737    0.887075    0.726392
  60 C     6.0000    0    12.011   10.786595    0.181697    2.666687
  61 C     6.0000    0    12.011   14.623513   -1.310582    0.328661
  62 C     6.0000    0    12.011   -2.605611    3.420782   -0.373637
  63 C     6.0000    0    12.011   -3.156863    4.262617    2.358340
  64 C     6.0000    0    12.011   -0.721762    4.825132    3.795496
  65 C     6.0000    0    12.011   -4.855916    6.592593    2.327500
  66 H     1.0000    0     1.008   -3.931348   -6.034803    0.014267
  67 H     1.0000    0     1.008   12.314589   11.234290   -1.504694
  68 H     1.0000    0     1.008    4.532829   -6.435462   -0.489458
  69 H     1.0000    0     1.008    8.093489   -9.363064   -0.712162
  70 H     1.0000    0     1.008    0.032541  -19.108438   -0.183039
  71 H     1.0000    0     1.008   -3.529536  -16.054036    0.075438
  72 H     1.0000    0     1.008   10.878454  -18.069051   -2.168139
  73 H     1.0000    0     1.008    8.813343  -20.613775   -1.343520
  74 H     1.0000    0     1.008   11.659232  -17.172093    2.310682
  75 H     1.0000    0     1.008    8.180643  -21.671795    3.309062
  76 H     1.0000    0     1.008    7.604201  -18.508318    4.184780
  77 H     1.0000    0     1.008   10.087131  -20.196864    5.621198
  78 H     1.0000    0     1.008   12.382903  -22.747805    1.009341
  79 H     1.0000    0     1.008   14.119826  -21.043197    3.288842
  80 H     1.0000    0     1.008   14.392967  -20.256636    0.061718
  81 H     1.0000    0     1.008    1.519208   16.575638   -0.233778
  82 H     1.0000    0     1.008    1.847094   21.254846   -0.093863
  83 H     1.0000    0     1.008   14.408992   20.201758   -1.343104
  84 H     1.0000    0     1.008   13.963243   15.579734   -1.473382
  85 H     1.0000    0     1.008    7.218999   28.637344   -1.632553
  86 H     1.0000    0     1.008   10.558108   28.349728   -1.201790
  87 H     1.0000    0     1.008    6.546881   28.371706    2.946839
  88 H     1.0000    0     1.008   12.303138   28.051964    3.273384
  89 H     1.0000    0     1.008   10.147943   25.681321    4.191979
  90 H     1.0000    0     1.008   10.276350   28.546260    5.881829
  91 H     1.0000    0     1.008   10.541270   32.281341    1.512178
  92 H     1.0000    0     1.008    8.424040   32.516952    4.077386
  93 H     1.0000    0     1.008    7.261896   32.560775    0.954671
  94 H     1.0000    0     1.008   -4.518770   -1.525330   -0.032522
  95 H     1.0000    0     1.008   13.218124    6.698342   -1.816329
  96 H     1.0000    0     1.008    2.500637    4.483451   -0.918842
  97 H     1.0000    0     1.008    6.435557    0.270571   -1.262035
  98 H     1.0000    0     1.008   13.099109    1.928995   -3.193977
  99 H     1.0000    0     1.008   10.403037    0.097945   -2.483573
 100 H     1.0000    0     1.008   13.861916    2.513789    1.442069
 101 H     1.0000    0     1.008    9.725305   -1.463555    2.038107
 102 H     1.0000    0     1.008    9.472706    1.733994    2.962939
 103 H     1.0000    0     1.008   11.664694   -0.273236    4.468163
 104 H     1.0000    0     1.008   13.626891   -2.946669   -0.417270
 105 H     1.0000    0     1.008   15.499099   -1.845374    2.108934
 106 H     1.0000    0     1.008   16.111163   -0.798825   -0.994261
 107 H     1.0000    0     1.008   -4.402287    3.221511   -1.370581
 108 H     1.0000    0     1.008   -1.510912    4.885944   -1.321826
 109 H     1.0000    0     1.008   -4.152579    2.722094    3.320268
 110 H     1.0000    0     1.008    0.299087    6.374216    2.909139
 111 H     1.0000    0     1.008    0.504651    3.176686    3.847577
 112 H     1.0000    0     1.008   -1.152279    5.365273    5.731161
 113 H     1.0000    0     1.008   -3.918649    8.145230    1.359450
 114 H     1.0000    0     1.008   -5.284033    7.191391    4.246026
 115 H     1.0000    0     1.008   -6.628007    6.197943    1.363626

--------------------------------
INTERNAL COORDINATES (ANGSTROEM)
--------------------------------
 C      0   0   0     0.000000000000     0.00000000     0.00000000
 C      1   0   0     8.411682950242     0.00000000     0.00000000
 C      1   2   0     1.411051780127   159.06887605     0.00000000
 C      3   1   2     1.360061406665   135.23317823   356.59095425
 C      2   1   3     1.408058655490   154.61751096   190.37022659
 C      5   2   1     1.365174627694   130.32730093   355.86542773
 C      4   3   1     1.453028446177   136.37611355     1.08756775
 C      7   4   3     1.419142860462   106.29612832   181.26824925
 C      8   7   4     1.403121314356   113.64652191   359.67472195
 C      9   8   7     1.483655746762   106.07196537   359.79329255
 C      6   5   2     1.455182409666   124.63850572   180.15297788
 C     11   6   5     1.412461855450   106.62326916   179.65515737
 C     12  11   6     1.402343126949   113.00508577   359.96379109
 C      6   5   2     1.483353916232   127.57998191   359.85810668
 C      7   4   3     1.381985505640   137.04480192     1.78584065
 C     15   7   4     1.402831971585   120.02532674   179.92643499
 C     16  15   7     1.384760428594   122.76292894     0.00000000
 C      8   7   4     1.390143876942   123.98525256   179.74304810
 C     18   8   7     1.406185166292   117.87114940   180.44034710
 C     19  18   8     1.385416734236   119.66418213   359.61951827
 C      9   8   7     1.377082722788   119.40114586   179.80802128
 C     17  16  15     1.467956652051   123.14735759   179.92808894
 N     22  17  16     1.393006529812   116.01522547   179.55144065
 C     23  22  17     1.390548922332   127.52925429     1.33353125
 C     23  22  17     1.458852035369   115.62957492   180.80124641
 C     25  23  22     1.534145820612   112.50523282    77.98574083
 C     26  25  23     1.526229334897   111.09598291    57.77806555
 C     26  25  23     1.525929001330   108.83339391   179.81739497
 C     13  12  11     1.377195557828   118.89865467   180.27960861
 C     29  13  12     1.405259966341   118.75673878     0.02744914
 C     30  29  13     1.385636477363   122.14095748   359.96057827
 C     12  11   6     1.387930278112   123.88245831   180.21855201
 C     32  12  11     1.406717577234   117.75584005     0.00000000
 C     33  32  12     1.386497369561   118.81149264   359.95335814
 C     11   6   5     1.380509631259   135.94438576   359.83618561
 C     33  32  12     1.468799842490   118.06685284   179.77054013
 N     36  33  32     1.396121427599   115.76701688     0.77416853
 C     37  36  33     1.388981142637   127.72364043   358.25582061
 C     37  36  33     1.459245839227   116.77199199   178.98373271
 C     39  37  36     1.534131396002   112.56804520   256.45786798
 C     40  39  37     1.526198991515   111.06461214    57.78558700
 C     40  39  37     1.525862944927   108.81957318   179.82768917
 O     22  17  16     1.214255645447   123.36930277   359.26849202
 O     24  23  22     1.213464122626   121.30509936   177.67603960
 O     10   9   8     1.210834719439   127.86602102   180.48511604
 O     14   6   5     1.216651261989   127.42972188     0.54659791
 O     36  33  32     1.213453617614   123.15173001   181.18695499
 O     38  37  36     1.213612522595   120.85859892   181.87608338
 C      1   2   5     1.387768069996    77.79157995     7.11888520
 C     49   1   2     1.393383297051   115.12283930     2.08744598
 C     50  49   1     1.392846866457   112.07983231   359.93594205
 S      1   2   5     1.739894499503    31.90070913   183.27028323
 C      2   1   3     1.392227384984    81.66055383     7.03529057
 C     53   2   1     1.389479718240   114.88352311     1.70083844
 C     54  53   2     1.396255842101   111.55287689   359.96095617
 S      2   1   3     1.738318762886    28.62955561   183.49454768
 C     51  50  49     1.414225649074   127.49027710   181.09364965
 C     57  51  50     1.355202883741   125.51116413   179.44237829
 C     54  53   2     1.495003663541   122.74730789   181.29069111
 C     59  54  53     1.540446593979   111.95387148    79.59206690
 C     60  59  54     1.525556632479   111.16746754    66.37482343
 C     60  59  54     1.526168935701   109.84864909   188.82103485
 C     50  49   1     1.494244274876   122.72356125   181.25969574
 C     63  50  49     1.540647800278   112.12363257    81.16277005
 C     64  63  50     1.525605731832   111.36240066    65.89494777
 C     64  63  50     1.526060999207   109.58081640   188.08239832
 H      3   1   2     1.089056166871   112.31543839   177.08513026
 H      5   2   1     1.085714779212   113.62365145   175.92976693
 H     15   7   4     1.076185413579   121.67870335     0.06515875
 H     16  15   7     1.080305407466   119.33171777   179.94176734
 H     20  19  18     1.080117637436   118.11645901   180.05263501
 H     21   9   8     1.079204072175   120.98095111   179.92374048
 H     25  23  22     1.092574524918   107.70003981   317.29830358
 H     25  23  22     1.091191196170   107.19921918   199.02223074
 H     26  25  23     1.094793810953   108.20470906   297.97710196
 H     27  26  25     1.087735639988   110.38048179    55.99777198
 H     27  26  25     1.088661371042   111.13525828   295.87396010
 H     27  26  25     1.087606565491   110.23768151   176.07686827
 H     28  26  25     1.087953705311   110.33414164   297.74044448
 H     28  26  25     1.087159621261   110.31773892   177.95145890
 H     28  26  25     1.087374796195   110.69222174    57.97883557
 H     29  13  12     1.079328677419   121.14879196   179.91765504
 H     30  29  13     1.080215955863   119.80004560   179.90859223
 H     34  33  32     1.080296798385   117.86068229   179.99961545
 H     35  11   6     1.079722860830   121.60015671   359.79733572
 H     39  37  36     1.092680982767   107.73666725   135.71898355
 H     39  37  36     1.091172722991   107.14689639    17.47914751
 H     40  39  37     1.094649213401   108.25473760   297.97476708
 H     41  40  39     1.087758142649   110.37982479    56.15563845
 H     41  40  39     1.088673288090   111.12248149   296.02697275
 H     41  40  39     1.087585229120   110.23581716   176.23382874
 H     42  40  39     1.087881830210   110.35352469   297.79419394
 H     42  40  39     1.087078001295   110.31490613   177.98285236
 H     42  40  39     1.087292220381   110.67742862    58.04016122
 H     49   1   2     1.076300371133   121.74559344   181.84999380
 H     53   2   1     1.076942937300   121.89947769   181.40891733
 H     57  51  50     1.080990298615   116.18743237     0.47777694
 H     58  57  51     1.081524922413   119.36737535     1.60293711
 H     59  54  53     1.092512252243   108.51044647   319.90695642
 H     59  54  53     1.090317964770   110.65739392   201.67019083
 H     60  59  54     1.095887732799   108.10471102   307.34367057
 H     61  60  59     1.088138367075   110.50331181    62.76122330
 H     61  60  59     1.087545302459   111.00347524   302.24755238
 H     61  60  59     1.087499354712   110.23812243   182.24493233
 H     62  60  59     1.087900268131   110.47118825   299.20877612
 H     62  60  59     1.087330530244   110.39308820   179.46331319
 H     62  60  59     1.087728427780   110.91368919    59.41652240
 H     63  50  49     1.092421088088   108.33091580   321.53455205
 H     63  50  49     1.090172743468   110.76344204   203.26820623
 H     64  63  50     1.096044266031   108.16555080   306.58136904
 H     65  64  63     1.088025290745   110.57772465    62.04514220
 H     65  64  63     1.087607353828   111.10948907   301.37354448
 H     65  64  63     1.087571476915   110.11140635   181.54303215
 H     66  64  63     1.087876894552   110.28110533   298.81666220
 H     66  64  63     1.087402297680   110.37710403   179.14809579
 H     66  64  63     1.087727177053   110.96647575    59.06847209

---------------------------
INTERNAL COORDINATES (A.U.)
---------------------------
 C      0   0   0     0.000000000000     0.00000000     0.00000000
 C      1   0   0    15.895777101333     0.00000000     0.00000000
 C      1   2   0     2.666501425222   159.06887605     0.00000000
 C      3   1   2     2.570143583913   135.23317823   356.59095425
 C      2   1   3     2.660845239373   154.61751096   190.37022659
 C      5   2   1     2.579806171320   130.32730093   355.86542773
 C      4   3   1     2.745825828072   136.37611355     1.08756775
 C      7   4   3     2.681791351183   106.29612832   181.26824925
 C      8   7   4     2.651515016800   113.64652191   359.67472195
 C      9   8   7     2.803703038399   106.07196537   359.79329255
 C      6   5   2     2.749896229167   124.63850572   180.15297788
 C     11   6   5     2.669166081410   106.62326916   179.65515737
 C     12  11   6     2.650044455720   113.00508577   359.96379109
 C      6   5   2     2.803132661358   127.57998191   359.85810668
 C      7   4   3     2.611574126709   137.04480192     1.78584065
 C     15   7   4     2.650968238204   120.02532674   179.92643499
 C     16  15   7     2.616817971134   122.76292894     0.00000000
 C      8   7   4     2.626991214168   123.98525256   179.74304810
 C     18   8   7     2.657304857875   117.87114940   180.44034710
 C     19  18   8     2.618058209057   119.66418213   359.61951827
 C      9   8   7     2.602309209823   119.40114586   179.80802128
 C     17  16  15     2.774036048844   123.14735759   179.92808894
 N     22  17  16     2.632400844109   116.01522547   179.55144065
 C     23  22  17     2.627756639028   127.52925429     1.33353125
 C     23  22  17     2.756830816761   115.62957492   180.80124641
 C     25  23  22     2.899115450456   112.50523282    77.98574083
 C     26  25  23     2.884155460512   111.09598291    57.77806555
 C     26  25  23     2.883587912322   108.83339391   179.81739497
 C     13  12  11     2.602522437147   118.89865467   180.27960861
 C     29  13  12     2.655556483347   118.75673878     0.02744914
 C     30  29  13     2.618473463388   122.14095748   359.96057827
 C     12  11   6     2.622808118609   123.88245831   180.21855201
 C     32  12  11     2.658310968746   117.75584005     0.00000000
 C     33  32  12     2.620100313873   118.81149264   359.95335814
 C     11   6   5     2.608785128321   135.94438576   359.83618561
 C     33  32  12     2.775629447854   118.06685284   179.77054013
 N     36  33  32     2.638287147861   115.76701688     0.77416853
 C     37  36  33     2.624793964764   127.72364043   358.25582061
 C     37  36  33     2.757574998202   116.77199199   178.98373271
 C     39  37  36     2.899088191895   112.56804520   256.45786798
 C     40  39  37     2.884098119829   111.06461214    57.78558700
 C     40  39  37     2.883463083810   108.81957318   179.82768917
 O     22  17  16     2.294610626463   123.36930277   359.26849202
 O     24  23  22     2.293114865102   121.30509936   177.67603960
 O     10   9   8     2.288146013184   127.86602102   180.48511604
 O     14   6   5     2.299137685649   127.42972188     0.54659791
 O     36  33  32     2.293095013506   123.15173001   181.18695499
 O     38  37  36     2.293395300402   120.85859892   181.87608338
 C      1   2   5     2.622501589693    77.79157995     7.11888520
 C     49   1   2     2.633112831006   115.12283930     2.08744598
 C     50  49   1     2.632099124095   112.07983231   359.93594205
 S      1   2   5     3.287924105976    31.90070913   183.27028323
 C      2   1   3     2.630928473766    81.66055383     7.03529057
 C     53   2   1     2.625736136111   114.88352311     1.70083844
 C     54  53   2     2.638541154458   111.55287689   359.96095617
 S      2   1   3     3.284946395311    28.62955561   183.49454768
 C     51  50  49     2.672499168318   127.49027710   181.09364965
 C     57  51  50     2.560962306171   125.51116413   179.44237829
 C     54  53   2     2.825147493301   122.74730789   181.29069111
 C     59  54  53     2.911022186551   111.95387148    79.59206690
 C     60  59  54     2.882884237172   111.16746754    66.37482343
 C     60  59  54     2.884041322574   109.84864909   188.82103485
 C     50  49   1     2.823712456696   122.72356125   181.25969574
 C     63  50  49     2.911402411353   112.12363257    81.16277005
 C     64  63  50     2.882977021504   111.36240066    65.89494777
 C     64  63  50     2.883837352159   109.58081640   188.08239832
 H      3   1   2     2.058017899844   112.31543839   177.08513026
 H      5   2   1     2.051703592262   113.62365145   175.92976693
 H     15   7   4     2.033695700985   121.67870335     0.06515875
 H     16  15   7     2.041481361105   119.33171777   179.94176734
 H     20  19  18     2.041126527172   118.11645901   180.05263501
 H     21   9   8     2.039400139024   120.98095111   179.92374048
 H     25  23  22     2.064666632994   107.70003981   317.29830358
 H     25  23  22     2.062052520508   107.19921918   199.02223074
 H     26  25  23     2.068860475812   108.20470906   297.97710196
 H     27  26  25     2.055522465683   110.38048179    55.99777198
 H     27  26  25     2.057271843849   111.13525828   295.87396010
 H     27  26  25     2.055278550233   110.23768151   176.07686827
 H     28  26  25     2.055934549423   110.33414164   297.74044448
 H     28  26  25     2.054433948041   110.31773892   177.95145890
 H     28  26  25     2.054840569737   110.69222174    57.97883557
 H     29  13  12     2.039635608810   121.14879196   179.91765504
 H     30  29  13     2.041312322072   119.80004560   179.90859223
 H     34  33  32     2.041465092299   117.86068229   179.99961545
 H     35  11   6     2.040380507504   121.60015671   359.79733572
 H     39  37  36     2.064867809173   107.73666725   135.71898355
 H     39  37  36     2.062017611258   107.14689639    17.47914751
 H     40  39  37     2.068587226041   108.25473760   297.97476708
 H     41  40  39     2.055564989550   110.37982479    56.15563845
 H     41  40  39     2.057294363805   111.12248149   296.02697275
 H     41  40  39     2.055238230335   110.23581716   176.23382874
 H     42  40  39     2.055798725165   110.35352469   297.79419394
 H     42  40  39     2.054279708658   110.31490613   177.98285236
 H     42  40  39     2.054684524062   110.67742862    58.04016122
 H     49   1   2     2.033912939278   121.74559344   181.84999380
 H     53   2   1     2.035127213357   121.89947769   181.40891733
 H     57  51  50     2.042775617808   116.18743237     0.47777694
 H     58  57  51     2.043785910371   119.36737535     1.60293711
 H     59  54  53     2.064548954692   108.51044647   319.90695642
 H     59  54  53     2.060402352310   110.65739392   201.67019083
 H     60  59  54     2.070927688515   108.10471102   307.34367057
 H     61  60  59     2.056283509583   110.50331181    62.76122330
 H     61  60  59     2.055162779880   111.00347524   302.24755238
 H     61  60  59     2.055075951223   110.23812243   182.24493233
 H     62  60  59     2.055833567788   110.47118825   299.20877612
 H     62  60  59     2.054756919212   110.39308820   179.46331319
 H     62  60  59     2.055508836584   110.91368919    59.41652240
 H     63  50  49     2.064376679407   108.33091580   321.53455205
 H     63  50  49     2.060127923820   110.76344204   203.26820623
 H     64  63  50     2.071223493454   108.16555080   306.58136904
 H     65  64  63     2.056069826287   110.57772465    62.04514220
 H     65  64  63     2.055280039973   111.10948907   301.37354448
 H     65  64  63     2.055212242434   110.11140635   181.54303215
 H     66  64  63     2.055789398124   110.28110533   298.81666220
 H     66  64  63     2.054892540012   110.37710403   179.14809579
 H     66  64  63     2.055506473054   110.96647575    59.06847209

---------------------
BASIS SET INFORMATION
---------------------
There are 5 groups of distinct atoms

 Group   1 Type C   : 7s4p1d contracted to 3s2p1d pattern {511/31/1}
 Group   2 Type N   : 7s4p1d contracted to 3s2p1d pattern {511/31/1}
 Group   3 Type O   : 7s4p1d contracted to 3s2p1d pattern {511/31/1}
 Group   4 Type S   : 10s7p1d contracted to 4s3p1d pattern {5311/511/1}
 Group   5 Type H   : 4s1p contracted to 2s1p pattern {31/1}

Atom   0C    basis set group =>   1
Atom   1C    basis set group =>   1
Atom   2C    basis set group =>   1
Atom   3C    basis set group =>   1
Atom   4C    basis set group =>   1
Atom   5C    basis set group =>   1
Atom   6C    basis set group =>   1
Atom   7C    basis set group =>   1
Atom   8C    basis set group =>   1
Atom   9C    basis set group =>   1
Atom  10C    basis set group =>   1
Atom  11C    basis set group =>   1
Atom  12C    basis set group =>   1
Atom  13C    basis set group =>   1
Atom  14C    basis set group =>   1
Atom  15C    basis set group =>   1
Atom  16C    basis set group =>   1
Atom  17C    basis set group =>   1
Atom  18C    basis set group =>   1
Atom  19C    basis set group =>   1
Atom  20C    basis set group =>   1
Atom  21C    basis set group =>   1
Atom  22N    basis set group =>   2
Atom  23C    basis set group =>   1
Atom  24C    basis set group =>   1
Atom  25C    basis set group =>   1
Atom  26C    basis set group =>   1
Atom  27C    basis set group =>   1
Atom  28C    basis set group =>   1
Atom  29C    basis set group =>   1
Atom  30C    basis set group =>   1
Atom  31C    basis set group =>   1
Atom  32C    basis set group =>   1
Atom  33C    basis set group =>   1
Atom  34C    basis set group =>   1
Atom  35C    basis set group =>   1
Atom  36N    basis set group =>   2
Atom  37C    basis set group =>   1
Atom  38C    basis set group =>   1
Atom  39C    basis set group =>   1
Atom  40C    basis set group =>   1
Atom  41C    basis set group =>   1
Atom  42O    basis set group =>   3
Atom  43O    basis set group =>   3
Atom  44O    basis set group =>   3
Atom  45O    basis set group =>   3
Atom  46O    basis set group =>   3
Atom  47O    basis set group =>   3
Atom  48C    basis set group =>   1
Atom  49C    basis set group =>   1
Atom  50C    basis set group =>   1
Atom  51S    basis set group =>   4
Atom  52C    basis set group =>   1
Atom  53C    basis set group =>   1
Atom  54C    basis set group =>   1
Atom  55S    basis set group =>   4
Atom  56C    basis set group =>   1
Atom  57C    basis set group =>   1
Atom  58C    basis set group =>   1
Atom  59C    basis set group =>   1
Atom  60C    basis set group =>   1
Atom  61C    basis set group =>   1
Atom  62C    basis set group =>   1
Atom  63C    basis set group =>   1
Atom  64C    basis set group =>   1
Atom  65C    basis set group =>   1
Atom  66H    basis set group =>   5
Atom  67H    basis set group =>   5
Atom  68H    basis set group =>   5
Atom  69H    basis set group =>   5
Atom  70H    basis set group =>   5
Atom  71H    basis set group =>   5
Atom  72H    basis set group =>   5
Atom  73H    basis set group =>   5
Atom  74H    basis set group =>   5
Atom  75H    basis set group =>   5
Atom  76H    basis set group =>   5
Atom  77H    basis set group =>   5
Atom  78H    basis set group =>   5
Atom  79H    basis set group =>   5
Atom  80H    basis set group =>   5
Atom  81H    basis set group =>   5
Atom  82H    basis set group =>   5
Atom  83H    basis set group =>   5
Atom  84H    basis set group =>   5
Atom  85H    basis set group =>   5
Atom  86H    basis set group =>   5
Atom  87H    basis set group =>   5
Atom  88H    basis set group =>   5
Atom  89H    basis set group =>   5
Atom  90H    basis set group =>   5
Atom  91H    basis set group =>   5
Atom  92H    basis set group =>   5
Atom  93H    basis set group =>   5
Atom  94H    basis set group =>   5
Atom  95H    basis set group =>   5
Atom  96H    basis set group =>   5
Atom  97H    basis set group =>   5
Atom  98H    basis set group =>   5
Atom  99H    basis set group =>   5
Atom 100H    basis set group =>   5
Atom 101H    basis set group =>   5
Atom 102H    basis set group =>   5
Atom 103H    basis set group =>   5
Atom 104H    basis set group =>   5
Atom 105H    basis set group =>   5
Atom 106H    basis set group =>   5
Atom 107H    basis set group =>   5
Atom 108H    basis set group =>   5
Atom 109H    basis set group =>   5
Atom 110H    basis set group =>   5
Atom 111H    basis set group =>   5
Atom 112H    basis set group =>   5
Atom 113H    basis set group =>   5
Atom 114H    basis set group =>   5
Atom 115H    basis set group =>   5
---------------------------------
AUXILIARY/J BASIS SET INFORMATION
---------------------------------
There are 5 groups of distinct atoms

 Group   1 Type C   : 12s5p4d2f1g contracted to 6s4p3d1f1g pattern {711111/2111/211/2/1}
 Group   2 Type N   : 12s5p4d2f1g contracted to 6s4p3d1f1g pattern {711111/2111/211/2/1}
 Group   3 Type O   : 12s5p4d2f1g contracted to 6s4p3d1f1g pattern {711111/2111/211/2/1}
 Group   4 Type S   : 14s5p5d2f1g contracted to 8s4p3d1f1g pattern {71111111/2111/311/2/1}
 Group   5 Type H   : 5s2p1d contracted to 3s1p1d pattern {311/2/1}

Atom   0C    basis set group =>   1
Atom   1C    basis set group =>   1
Atom   2C    basis set group =>   1
Atom   3C    basis set group =>   1
Atom   4C    basis set group =>   1
Atom   5C    basis set group =>   1
Atom   6C    basis set group =>   1
Atom   7C    basis set group =>   1
Atom   8C    basis set group =>   1
Atom   9C    basis set group =>   1
Atom  10C    basis set group =>   1
Atom  11C    basis set group =>   1
Atom  12C    basis set group =>   1
Atom  13C    basis set group =>   1
Atom  14C    basis set group =>   1
Atom  15C    basis set group =>   1
Atom  16C    basis set group =>   1
Atom  17C    basis set group =>   1
Atom  18C    basis set group =>   1
Atom  19C    basis set group =>   1
Atom  20C    basis set group =>   1
Atom  21C    basis set group =>   1
Atom  22N    basis set group =>   2
Atom  23C    basis set group =>   1
Atom  24C    basis set group =>   1
Atom  25C    basis set group =>   1
Atom  26C    basis set group =>   1
Atom  27C    basis set group =>   1
Atom  28C    basis set group =>   1
Atom  29C    basis set group =>   1
Atom  30C    basis set group =>   1
Atom  31C    basis set group =>   1
Atom  32C    basis set group =>   1
Atom  33C    basis set group =>   1
Atom  34C    basis set group =>   1
Atom  35C    basis set group =>   1
Atom  36N    basis set group =>   2
Atom  37C    basis set group =>   1
Atom  38C    basis set group =>   1
Atom  39C    basis set group =>   1
Atom  40C    basis set group =>   1
Atom  41C    basis set group =>   1
Atom  42O    basis set group =>   3
Atom  43O    basis set group =>   3
Atom  44O    basis set group =>   3
Atom  45O    basis set group =>   3
Atom  46O    basis set group =>   3
Atom  47O    basis set group =>   3
Atom  48C    basis set group =>   1
Atom  49C    basis set group =>   1
Atom  50C    basis set group =>   1
Atom  51S    basis set group =>   4
Atom  52C    basis set group =>   1
Atom  53C    basis set group =>   1
Atom  54C    basis set group =>   1
Atom  55S    basis set group =>   4
Atom  56C    basis set group =>   1
Atom  57C    basis set group =>   1
Atom  58C    basis set group =>   1
Atom  59C    basis set group =>   1
Atom  60C    basis set group =>   1
Atom  61C    basis set group =>   1
Atom  62C    basis set group =>   1
Atom  63C    basis set group =>   1
Atom  64C    basis set group =>   1
Atom  65C    basis set group =>   1
Atom  66H    basis set group =>   5
Atom  67H    basis set group =>   5
Atom  68H    basis set group =>   5
Atom  69H    basis set group =>   5
Atom  70H    basis set group =>   5
Atom  71H    basis set group =>   5
Atom  72H    basis set group =>   5
Atom  73H    basis set group =>   5
Atom  74H    basis set group =>   5
Atom  75H    basis set group =>   5
Atom  76H    basis set group =>   5
Atom  77H    basis set group =>   5
Atom  78H    basis set group =>   5
Atom  79H    basis set group =>   5
Atom  80H    basis set group =>   5
Atom  81H    basis set group =>   5
Atom  82H    basis set group =>   5
Atom  83H    basis set group =>   5
Atom  84H    basis set group =>   5
Atom  85H    basis set group =>   5
Atom  86H    basis set group =>   5
Atom  87H    basis set group =>   5
Atom  88H    basis set group =>   5
Atom  89H    basis set group =>   5
Atom  90H    basis set group =>   5
Atom  91H    basis set group =>   5
Atom  92H    basis set group =>   5
Atom  93H    basis set group =>   5
Atom  94H    basis set group =>   5
Atom  95H    basis set group =>   5
Atom  96H    basis set group =>   5
Atom  97H    basis set group =>   5
Atom  98H    basis set group =>   5
Atom  99H    basis set group =>   5
Atom 100H    basis set group =>   5
Atom 101H    basis set group =>   5
Atom 102H    basis set group =>   5
Atom 103H    basis set group =>   5
Atom 104H    basis set group =>   5
Atom 105H    basis set group =>   5
Atom 106H    basis set group =>   5
Atom 107H    basis set group =>   5
Atom 108H    basis set group =>   5
Atom 109H    basis set group =>   5
Atom 110H    basis set group =>   5
Atom 111H    basis set group =>   5
Atom 112H    basis set group =>   5
Atom 113H    basis set group =>   5
Atom 114H    basis set group =>   5
Atom 115H    basis set group =>   5
------------------------------------------------------------------------------
                           ORCA GTO INTEGRAL CALCULATION
                           -- RI-GTO INTEGRALS CHOSEN --
------------------------------------------------------------------------------

                         BASIS SET STATISTICS AND STARTUP INFO

Gaussian basis set:
 # of primitive gaussian shells          ... 1054
 # of primitive gaussian functions       ... 1958
 # of contracted shells                  ...  550
 # of contracted basis functions         ... 1182
 Highest angular momentum                ...    2
 Maximum contraction depth               ...    5
Auxiliary gaussian basis set:
 # of primitive gaussian shells          ... 1990
 # of primitive gaussian functions       ... 5434
 # of contracted shells                  ... 1244
 # of contracted aux-basis functions     ... 3788
 Highest angular momentum                ...    4
 Maximum contraction depth               ...    7
Ratio of auxiliary to basis functions    ...  3.20
Integral package used                  ... LIBINT
 One Electron integrals                  ... done
 Ordering auxiliary basis shells         ... done
 Integral threshhold             Thresh  ...  2.500e-11
 Primitive cut-off               TCut    ...  2.500e-12
 Pre-screening matrix                    ... done
 Shell pair data                         ... 
 Ordering of the shell pairs             ... done (   0.011 sec) 49287 of 151525 pairs
 Determination of significant pairs      ... done (   0.000 sec)
 Creation of shell pair data             ... done (   0.008 sec)
 Storage of shell pair data              ... done (   0.010 sec)
 Shell pair data done in (   0.029 sec)
 Computing two index integrals           ... done
 Cholesky decomposition of the V-matrix  ... done


Timings:
 Total evaluation time                   ...   2.238 sec (  0.037 min)
 One electron matrix time                ...   0.645 sec (  0.011 min) = 28.8%
 Schwartz matrix evaluation time         ...   0.618 sec (  0.010 min) = 27.6%
 Two index repulsion integral time       ...   0.394 sec (  0.007 min) = 17.6%
 Cholesky decomposition of V             ...   0.534 sec (  0.009 min) = 23.9%
 Three index repulsion integral time     ...   0.000 sec (  0.000 min) =  0.0%

-------------------------------------------------------------------------------
                                 ORCA SCF
-------------------------------------------------------------------------------

------------
SCF SETTINGS
------------
Hamiltonian:
 Density Functional     Method          .... DFT(GTOs)
 Exchange Functional    Exchange        .... WB88
 Correlation Functional Correlation     .... LYP
 LDA part of GGA corr.  LDAOpt          .... VWN-5
 Gradients option       PostSCFGGA      .... off
 Hybrid DFT is turned on
   Fraction HF Exchange ScalHFX         ....  0.190000
   Scaling of DF-GGA-X  ScalDFX         ....  0.350000
   Scaling of DF-GGA-C  ScalDFC         ....  0.810000
   Scaling of DF-LDA-C  ScalLDAC        ....  1.000000
   Perturbative correction              ....  0.000000
   Density functional embedding theory  .... OFF
 Long-range corrected/Screened/Range-Separated Hybrid DFT is turned on
   Amount of maximum screened exact exchange              ....  0.460000
   Range separation parameter mu (erf(mu*r12)/r12)        ....  0.330000
 RI-approximation to the Coulomb term is turned on
   Number of auxiliary basis functions  .... 3788
   RIJ-COSX (HFX calculated with COS-X)).... on


General Settings:
 Integral files         IntName         .... NITV
 Hartree-Fock type      HFTyp           .... RHF
 Total Charge           Charge          ....    0
 Multiplicity           Mult            ....    1
 Number of Electrons    NEL             ....  480
 Basis Dimension        Dim             .... 1182
 Nuclear Repulsion      ENuc            ....   9160.2085927670 Eh

Convergence Acceleration:
 DIIS                   CNVDIIS         .... on
   Start iteration      DIISMaxIt       ....    12
   Startup error        DIISStart       ....  0.200000
   # of expansion vecs  DIISMaxEq       ....     5
   Bias factor          DIISBfac        ....   1.050
   Max. coefficient     DIISMaxC        ....  10.000
 Newton-Raphson         CNVNR           .... off
 SOSCF                  CNVSOSCF        .... on
   Start iteration      SOSCFMaxIt      ....   150
   Startup grad/error   SOSCFStart      ....  0.003300
 Level Shifting         CNVShift        .... on
   Level shift para.    LevelShift      ....    0.2500
   Turn off err/grad.   ShiftErr        ....    0.0010
 Zerner damping         CNVZerner       .... off
 Static damping         CNVDamp         .... on
   Fraction old density DampFac         ....    0.7000
   Max. Damping (<1)    DampMax         ....    0.9800
   Min. Damping (>=0)   DampMin         ....    0.0000
   Turn off err/grad.   DampErr         ....    0.1000
 Fernandez-Rico         CNVRico         .... off

SCF Procedure:
 Maximum # iterations   MaxIter         ....   125
 SCF integral mode      SCFMode         .... Direct
   Integral package                     .... LIBINT
 Reset frequency        DirectResetFreq ....    20
 Integral Threshold     Thresh          ....  2.500e-11 Eh
 Primitive CutOff       TCut            ....  2.500e-12 Eh

Convergence Tolerance:
 Convergence Check Mode ConvCheckMode   .... Total+1el-Energy
 Convergence forced     ConvForced      .... 1
 Energy Change          TolE            ....  1.000e-08 Eh
 1-El. energy change                    ....  1.000e-05 Eh
 Orbital Gradient       TolG            ....  1.000e-05
 Orbital Rotation angle TolX            ....  1.000e-05
 DIIS Error             TolErr          ....  5.000e-07


Diagonalization of the overlap matrix:
Smallest eigenvalue                        ... 1.866e-04
Time for diagonalization                   ...    0.423 sec
Threshold for overlap eigenvalues          ... 1.000e-08
Number of eigenvalues below threshold      ... 0
Time for construction of square roots      ...    0.159 sec
Total time needed                          ...    0.589 sec

-------------------
DFT GRID GENERATION
-------------------

General Integration Accuracy     IntAcc      ...  4.670
Radial Grid Type                 RadialGrid  ... Gauss-Chebyshev
Angular Grid (max. acc.)         AngularGrid ... Lebedev-302
Angular grid pruning method      GridPruning ... 3 (G Style)
Weight generation scheme         WeightScheme... Becke
Basis function cutoff            BFCut       ...    1.0000e-11
Integration weight cutoff        WCut        ...    1.0000e-14
Grids for H and He will be reduced by one unit

# of grid points (after initial pruning)     ... 580960 (   2.2 sec)
# of grid points (after weights+screening)   ... 493205 (  19.8 sec)
nearest neighbour list constructed           ...    0.0 sec
Grid point re-assignment to atoms done       ...    0.1 sec
Grid point division into batches done        ...    1.6 sec
Reduced shell lists constructed in    8.3 sec

Total number of grid points                  ...   493205
Total number of batches                      ...     7766
Average number of points per batch           ...       63
Average number of grid points per atom       ...     4252
Average number of shells per batch           ...    97.35 (17.70%)
Average number of basis functions per batch  ...   194.45 (16.45%)
Average number of large shells per batch     ...    59.13 (60.74%)
Average number of large basis fcns per batch ...   119.64 (61.53%)
Maximum spatial batch extension              ...  21.02, 20.29, 23.12 au
Average spatial batch extension              ...   2.02,  1.95,  2.23 au

Time for grid setup =   30.410 sec

------------------------------
INITIAL GUESS: MODEL POTENTIAL
------------------------------
Loading Hartree-Fock densities                     ... done
Calculating cut-offs                               ... done
Setting up the integral package                    ... done
Initializing the effective Hamiltonian             ... done
Starting the Coulomb interaction                   ... done (   8.9 sec)
Reading the grid                                   ... done
Mapping shells                                     ... done
Starting the XC term evaluation                    ... done (   8.2 sec)
  promolecular density results
     # of electrons  =    479.974402349
     EX              =   -413.435759357
     EC              =    -16.418941580
     EX+EC           =   -429.854700936
Transforming the Hamiltonian                       ... done (   0.1 sec)
Diagonalizing the Hamiltonian                      ... done (   0.4 sec)
Back transforming the eigenvectors                 ... done (   0.1 sec)
Now organizing SCF variables                       ... done
                      ------------------
                      INITIAL GUESS DONE (  48.3 sec)
                      ------------------
--------------------
COSX GRID GENERATION
--------------------

General Integration Accuracy     IntAcc      ...  3.340
Radial Grid Type                 RadialGrid  ... Gauss-Chebyshev
Angular Grid (max. acc.)         AngularGrid ... Lebedev-50
Angular grid pruning method      GridPruning ... 3 (G Style)
Weight generation scheme         WeightScheme... Becke
Basis function cutoff            BFCut       ...    1.0000e-11
Integration weight cutoff        WCut        ...    1.0000e-14
Grids for H and He will be reduced by one unit

# of grid points (after initial pruning)     ...  54504 (   0.1 sec)
# of grid points (after weights+screening)   ...  48303 (   1.8 sec)
nearest neighbour list constructed           ...    0.0 sec
Grid point re-assignment to atoms done       ...    0.0 sec
Grid point division into batches done        ...    0.0 sec
Reduced shell lists constructed in    0.9 sec

Total number of grid points                  ...    48303
Total number of batches                      ...      812
Average number of points per batch           ...       59
Average number of grid points per atom       ...      416
Average number of shells per batch           ...   117.62 (21.39%)
Average number of basis functions per batch  ...   237.30 (20.08%)
Average number of large shells per batch     ...    71.91 (61.14%)
Average number of large basis fcns per batch ...   148.14 (62.43%)
Maximum spatial batch extension              ...  20.92, 20.14, 35.81 au
Average spatial batch extension              ...   3.90,  3.67,  5.15 au

Overlap Fitting                  UseSFitting ... on
Constructing numerical overlap ... done (      0.5 sec)
Inverting numerical overlap    ... done (      0.0 sec)
Obtaining analytic overlap     ... done (      0.0 sec)
Final contraction and storage  ... done (      0.1 sec)


General Integration Accuracy     IntAcc      ...  3.670
Radial Grid Type                 RadialGrid  ... Gauss-Chebyshev
Angular Grid (max. acc.)         AngularGrid ... Lebedev-50
Angular grid pruning method      GridPruning ... 3 (G Style)
Weight generation scheme         WeightScheme... Becke
Basis function cutoff            BFCut       ...    1.0000e-11
Integration weight cutoff        WCut        ...    1.0000e-14
Grids for H and He will be reduced by one unit

# of grid points (after initial pruning)     ...  68868 (   0.1 sec)
# of grid points (after weights+screening)   ...  60740 (   2.3 sec)
nearest neighbour list constructed           ...    0.0 sec
Grid point re-assignment to atoms done       ...    0.0 sec
Grid point division into batches done        ...    0.0 sec
Reduced shell lists constructed in    1.1 sec

Total number of grid points                  ...    60740
Total number of batches                      ...     1008
Average number of points per batch           ...       60
Average number of grid points per atom       ...      524
Average number of shells per batch           ...   115.06 (20.92%)
Average number of basis functions per batch  ...   231.82 (19.61%)
Average number of large shells per batch     ...    70.18 (60.99%)
Average number of large basis fcns per batch ...   144.17 (62.19%)
Maximum spatial batch extension              ...  22.87, 21.65, 33.72 au
Average spatial batch extension              ...   3.69,  3.44,  4.75 au

Overlap Fitting                  UseSFitting ... on
Constructing numerical overlap ... done (      0.6 sec)
Inverting numerical overlap    ... done (      0.0 sec)
Obtaining analytic overlap     ... done (      0.0 sec)
Final contraction and storage  ... done (      0.1 sec)


General Integration Accuracy     IntAcc      ...  4.010
Radial Grid Type                 RadialGrid  ... Gauss-Chebyshev
Angular Grid (max. acc.)         AngularGrid ... Lebedev-110
Angular grid pruning method      GridPruning ... 3 (G Style)
Weight generation scheme         WeightScheme... Becke
Basis function cutoff            BFCut       ...    1.0000e-11
Integration weight cutoff        WCut        ...    1.0000e-14
Grids for H and He will be reduced by one unit

# of grid points (after initial pruning)     ... 130340 (   0.2 sec)
# of grid points (after weights+screening)   ... 114181 (   4.4 sec)
nearest neighbour list constructed           ...    0.0 sec
Grid point re-assignment to atoms done       ...    0.0 sec
Grid point division into batches done        ...    0.1 sec
Reduced shell lists constructed in    1.9 sec

Total number of grid points                  ...   114181
Total number of batches                      ...     1847
Average number of points per batch           ...       61
Average number of grid points per atom       ...      984
Average number of shells per batch           ...   109.89 (19.98%)
Average number of basis functions per batch  ...   221.16 (18.71%)
Average number of large shells per batch     ...    67.20 (61.15%)
Average number of large basis fcns per batch ...   137.59 (62.21%)
Maximum spatial batch extension              ...  19.92, 20.50, 21.92 au
Average spatial batch extension              ...   3.14,  2.98,  3.86 au

Overlap Fitting                  UseSFitting ... on
Constructing numerical overlap ... done (      1.1 sec)
Inverting numerical overlap    ... done (      0.0 sec)
Obtaining analytic overlap     ... done (      0.0 sec)
Final contraction and storage  ... done (      0.1 sec)

Time for X-Grid setup             =   15.469 sec
--------------
SCF ITERATIONS
--------------
ITER       Energy         Delta-E        Max-DP      RMS-DP      [F,P]     Damp
               ***  Starting incremental Fock matrix formation  ***
  0  -3516.3910163265   0.000000000000 0.09133217  0.00102496  0.2381685 0.7000
  1  -3516.9927327653  -0.601716438778 0.06276996  0.00072227  0.1046698 0.7000
                               ***Turning on DIIS***
  2  -3517.2607749215  -0.268042156238 0.10484976  0.00128427  0.0428666 0.0000
  3  -3517.6983935352  -0.437618613718 0.04933620  0.00048506  0.0519532 0.0000
  4  -3517.7747502408  -0.076356705607 0.01114942  0.00012795  0.0146971 0.0000
  5  -3517.7787970823  -0.004046841468 0.00515612  0.00005497  0.0083584 0.0000
                      *** Initiating the SOSCF procedure ***
                           *** Shutting down DIIS ***
                      *** Re-Reading the Fockian *** 
                      *** Removing any level shift *** 
ITER      Energy       Delta-E        Grad      Rot      Max-DP    RMS-DP
  6  -3517.77963717  -0.0008400832  0.002829  0.002829  0.002768  0.000026
               *** Restarting incremental Fock matrix formation ***
  7  -3517.77986007  -0.0002229017  0.001782  0.009584  0.002744  0.000026
  8  -3517.78000885  -0.0001487801  0.000781  0.011046  0.002862  0.000030
  9  -3517.78002445  -0.0000156073  0.000566  0.003553  0.001135  0.000012
 10  -3517.78005557  -0.0000311183  0.000123  0.000761  0.000531  0.000005
 11  -3517.78005491   0.0000006629  0.000108  0.000461  0.000240  0.000003
 12  -3517.78005686  -0.0000019481  0.000009  0.000045  0.000064  0.000001
 13  -3517.78005688  -0.0000000242  0.000006  0.000017  0.000025  0.000000
 14  -3517.78005689  -0.0000000028  0.000003  0.000009  0.000018  0.000000
                  ***Gradient check signals convergence***
              ***Rediagonalizing the Fockian in SOSCF/NRSCF***

               *****************************************************
               *                     SUCCESS                       *
               *           SCF CONVERGED AFTER  15 CYCLES          *
               *****************************************************

Setting up the final grid:

General Integration Accuracy     IntAcc      ...  5.010
Radial Grid Type                 RadialGrid  ... Gauss-Chebyshev
Angular Grid (max. acc.)         AngularGrid ... Lebedev-434
Angular grid pruning method      GridPruning ... 3 (G Style)
Weight generation scheme         WeightScheme... Becke
Basis function cutoff            BFCut       ...    1.0000e-11
Integration weight cutoff        WCut        ...    1.0000e-14
Grids for H and He will be reduced by one unit

# of grid points (after initial pruning)     ... 1043400 (   2.6 sec)
# of grid points (after weights+screening)   ... 883285 (  36.4 sec)
nearest neighbour list constructed           ...    0.0 sec
Grid point re-assignment to atoms done       ...    0.2 sec
Grid point division into batches done        ...    5.4 sec
Reduced shell lists constructed in   16.8 sec

Total number of grid points                  ...   883285
Total number of batches                      ...    13857
Average number of points per batch           ...       63
Average number of grid points per atom       ...     7615
Average number of shells per batch           ...    93.69 (17.04%)
Average number of basis functions per batch  ...   186.55 (15.78%)
Average number of large shells per batch     ...    56.80 (60.63%)
Average number of large basis fcns per batch ...   114.51 (61.38%)
Maximum spatial batch extension              ...  21.39, 21.10, 23.86 au
Average spatial batch extension              ...   1.65,  1.61,  1.78 au

Final grid set up in   55.9 sec
Final integration                            ... done (  21.9 sec)
Change in XC energy                          ...    -0.000045706
Integrated number of electrons               ...   480.000028075
Previous integrated no of electrons          ...   479.999583259
Old exchange energy                            =   -117.549922810 Eh
New exchange energy                            =   -117.549693105 Eh
Exchange energy change after final integration =      0.000229705 Eh
Total energy after final integration           =  -3517.779872813 Eh
Final COS-X integration done in                =   402.120 sec

----------------
TOTAL SCF ENERGY
----------------

Total Energy       :        -3517.77987281 Eh          -95723.65684 eV

Components:
Nuclear Repulsion  :         9160.20859277 Eh          249261.94804 eV
Electronic Energy  :       -12677.98846558 Eh         -344985.60488 eV
One Electron Energy:       -23037.27602514 Eh         -626876.15041 eV
Two Electron Energy:        10359.28755956 Eh          281890.54553 eV

Virial components:
Potential Energy   :        -7007.12434578 Eh         -190673.54710 eV
Kinetic Energy     :         3489.34447297 Eh           94949.89027 eV
Virial Ratio       :            2.00814921


DFT components:
N(Alpha)           :      240.000014037497 electrons
N(Beta)            :      240.000014037497 electrons
N(Total)           :      480.000028074994 electrons
E(XC)              :     -320.676316409235 Eh       
DFET-embed. en.    :        0.000000000000 Eh       

---------------
SCF CONVERGENCE
---------------

  Last Energy change         ...    7.2860e-08  Tolerance :   1.0000e-08
  Last MAX-Density change    ...    7.5495e-15  Tolerance :   1.0000e-07
  Last RMS-Density change    ...    3.1894e-17  Tolerance :   5.0000e-09
  Last Orbital Gradient      ...    2.2688e-06  Tolerance :   1.0000e-05
  Last Orbital Rotation      ...    4.4904e-06  Tolerance :   1.0000e-05

             **** THE GBW FILE WAS UPDATED (NITV.gbw) ****
             **** DENSITY FILE WAS UPDATED (NITV.scfp) ****
             **** ENERGY FILE WAS UPDATED (NITV.en.tmp) ****
             **** THE GBW FILE WAS UPDATED (NITV.gbw) ****
             **** DENSITY FILE WAS UPDATED (NITV.scfp) ****
----------------
ORBITAL ENERGIES
----------------

  NO   OCC          E(Eh)            E(eV) 
   0   2.0000     -88.966159     -2420.8923 
   1   2.0000     -88.955871     -2420.6123 
   2   2.0000     -19.220591      -523.0189 
   3   2.0000     -19.209776      -522.7246 
   4   2.0000     -19.198923      -522.4293 
   5   2.0000     -19.196919      -522.3747 
   6   2.0000     -19.196777      -522.3709 
   7   2.0000     -19.195328      -522.3314 
   8   2.0000     -14.454205      -393.3189 
   9   2.0000     -14.452887      -393.2831 
  10   2.0000     -10.387131      -282.6482 
  11   2.0000     -10.386094      -282.6200 
  12   2.0000     -10.385969      -282.6166 
  13   2.0000     -10.383814      -282.5579 
  14   2.0000     -10.370807      -282.2040 
  15   2.0000     -10.359960      -281.9088 
  16   2.0000     -10.316115      -280.7158 
  17   2.0000     -10.314170      -280.6628 
  18   2.0000     -10.313365      -280.6409 
  19   2.0000     -10.310280      -280.5570 
  20   2.0000     -10.303785      -280.3802 
  21   2.0000     -10.302973      -280.3582 
  22   2.0000     -10.302880      -280.3556 
  23   2.0000     -10.302721      -280.3513 
  24   2.0000     -10.299774      -280.2711 
  25   2.0000     -10.299454      -280.2624 
  26   2.0000     -10.298802      -280.2447 
  27   2.0000     -10.298351      -280.2324 
  28   2.0000     -10.297322      -280.2044 
  29   2.0000     -10.296214      -280.1742 
  30   2.0000     -10.295271      -280.1486 
  31   2.0000     -10.295101      -280.1439 
  32   2.0000     -10.295006      -280.1414 
  33   2.0000     -10.294923      -280.1391 
  34   2.0000     -10.294000      -280.1140 
  35   2.0000     -10.293348      -280.0962 
  36   2.0000     -10.293037      -280.0878 
  37   2.0000     -10.292563      -280.0749 
  38   2.0000     -10.292346      -280.0690 
  39   2.0000     -10.291246      -280.0390 
  40   2.0000     -10.289664      -279.9960 
  41   2.0000     -10.289149      -279.9820 
  42   2.0000     -10.289092      -279.9804 
  43   2.0000     -10.288323      -279.9595 
  44   2.0000     -10.288001      -279.9507 
  45   2.0000     -10.287206      -279.9291 
  46   2.0000     -10.286219      -279.9022 
  47   2.0000     -10.285990      -279.8960 
  48   2.0000     -10.285794      -279.8907 
  49   2.0000     -10.284673      -279.8602 
  50   2.0000     -10.283913      -279.8395 
  51   2.0000     -10.283719      -279.8342 
  52   2.0000     -10.273985      -279.5693 
  53   2.0000     -10.273887      -279.5667 
  54   2.0000     -10.273225      -279.5487 
  55   2.0000     -10.272070      -279.5172 
  56   2.0000     -10.255577      -279.0684 
  57   2.0000     -10.255381      -279.0631 
  58   2.0000     -10.254899      -279.0500 
  59   2.0000     -10.254590      -279.0416 
  60   2.0000     -10.253967      -279.0246 
  61   2.0000     -10.251555      -278.9590 
  62   2.0000     -10.243796      -278.7479 
  63   2.0000     -10.243244      -278.7328 
  64   2.0000     -10.240454      -278.6569 
  65   2.0000     -10.239523      -278.6316 
  66   2.0000      -8.061146      -219.3549 
  67   2.0000      -8.049756      -219.0450 
  68   2.0000      -6.030297      -164.0927 
  69   2.0000      -6.026450      -163.9881 
  70   2.0000      -6.023323      -163.9030 
  71   2.0000      -6.019078      -163.7874 
  72   2.0000      -6.014720      -163.6688 
  73   2.0000      -6.011948      -163.5934 
  74   2.0000      -1.147592       -31.2276 
  75   2.0000      -1.146010       -31.1845 
  76   2.0000      -1.134726       -30.8775 
  77   2.0000      -1.125063       -30.6145 
  78   2.0000      -1.123769       -30.5793 
  79   2.0000      -1.123312       -30.5669 
  80   2.0000      -1.025912       -27.9165 
  81   2.0000      -1.024366       -27.8744 
  82   2.0000      -1.007970       -27.4283 
  83   2.0000      -1.004299       -27.3284 
  84   2.0000      -0.998076       -27.1590 
  85   2.0000      -0.991447       -26.9787 
  86   2.0000      -0.947162       -25.7736 
  87   2.0000      -0.941770       -25.6269 
  88   2.0000      -0.935147       -25.4466 
  89   2.0000      -0.932228       -25.3672 
  90   2.0000      -0.917855       -24.9761 
  91   2.0000      -0.911770       -24.8105 
  92   2.0000      -0.908255       -24.7149 
  93   2.0000      -0.891226       -24.2515 
  94   2.0000      -0.884877       -24.0787 
  95   2.0000      -0.878931       -23.9169 
  96   2.0000      -0.871454       -23.7135 
  97   2.0000      -0.855732       -23.2856 
  98   2.0000      -0.853527       -23.2256 
  99   2.0000      -0.847930       -23.0734 
 100   2.0000      -0.845156       -22.9979 
 101   2.0000      -0.843396       -22.9500 
 102   2.0000      -0.836777       -22.7699 
 103   2.0000      -0.828964       -22.5573 
 104   2.0000      -0.811168       -22.0730 
 105   2.0000      -0.796401       -21.6712 
 106   2.0000      -0.786852       -21.4113 
 107   2.0000      -0.771102       -20.9828 
 108   2.0000      -0.768678       -20.9168 
 109   2.0000      -0.767782       -20.8924 
 110   2.0000      -0.765672       -20.8350 
 111   2.0000      -0.765416       -20.8280 
 112   2.0000      -0.763848       -20.7854 
 113   2.0000      -0.763135       -20.7660 
 114   2.0000      -0.755477       -20.5576 
 115   2.0000      -0.754782       -20.5387 
 116   2.0000      -0.742696       -20.2098 
 117   2.0000      -0.727208       -19.7883 
 118   2.0000      -0.721502       -19.6331 
 119   2.0000      -0.717593       -19.5267 
 120   2.0000      -0.710610       -19.3367 
 121   2.0000      -0.706571       -19.2268 
 122   2.0000      -0.692169       -18.8349 
 123   2.0000      -0.676373       -18.4050 
 124   2.0000      -0.667337       -18.1592 
 125   2.0000      -0.660042       -17.9607 
 126   2.0000      -0.656346       -17.8601 
 127   2.0000      -0.651289       -17.7225 
 128   2.0000      -0.647329       -17.6147 
 129   2.0000      -0.642267       -17.4770 
 130   2.0000      -0.641057       -17.4440 
 131   2.0000      -0.636423       -17.3180 
 132   2.0000      -0.631643       -17.1879 
 133   2.0000      -0.630220       -17.1492 
 134   2.0000      -0.618244       -16.8233 
 135   2.0000      -0.614707       -16.7270 
 136   2.0000      -0.609959       -16.5978 
 137   2.0000      -0.604909       -16.4604 
 138   2.0000      -0.601781       -16.3753 
 139   2.0000      -0.593830       -16.1589 
 140   2.0000      -0.589066       -16.0293 
 141   2.0000      -0.576409       -15.6849 
 142   2.0000      -0.574103       -15.6221 
 143   2.0000      -0.565004       -15.3745 
 144   2.0000      -0.563793       -15.3416 
 145   2.0000      -0.562121       -15.2961 
 146   2.0000      -0.559914       -15.2360 
 147   2.0000      -0.555930       -15.1276 
 148   2.0000      -0.554763       -15.0959 
 149   2.0000      -0.547323       -14.8934 
 150   2.0000      -0.545685       -14.8488 
 151   2.0000      -0.541694       -14.7403 
 152   2.0000      -0.539221       -14.6730 
 153   2.0000      -0.533686       -14.5223 
 154   2.0000      -0.533300       -14.5118 
 155   2.0000      -0.530410       -14.4332 
 156   2.0000      -0.528269       -14.3749 
 157   2.0000      -0.527126       -14.3438 
 158   2.0000      -0.526789       -14.3347 
[...]
Transforming integrals ... 

SCF atom population (using active MOs):

   2.041   2.065   2.126   2.103   1.999   2.040   1.924   2.159   2.038   1.915
   1.994   2.071   1.970   1.712   2.200   2.272   1.991   2.016   1.901   2.217
   2.239   1.648   2.419   1.633   2.392   2.481   2.985   2.978   2.157   2.203
   1.896   1.887   1.938   2.213   2.246   1.622   2.391   1.626   2.368   2.477
   2.984   2.973   4.616   4.606   4.465   4.071   4.579   4.591   2.122   2.133
   2.161   3.638   2.122   2.126   2.161   3.613   2.149   2.147   2.463   2.366
   2.951   2.931   2.492   2.377   2.963   2.938   0.577   0.506   0.498   0.563
   0.542   0.541   0.654   0.623   0.611   0.655   0.691   0.671   0.661   0.670
   0.688   0.506   0.534   0.529   0.521   0.649   0.620   0.609   0.654   0.692
   0.671   0.661   0.667   0.688   0.475   0.473   0.496   0.505   0.664   0.575
   0.564   0.641   0.683   0.674   0.652   0.657   0.683   0.673   0.576   0.567
   0.644   0.684   0.675   0.652   0.660   0.684

Number of electrons in sTDA:  194.000

ax(DF)   :  0.3800
s^k      :  2.0000
beta  (J):  1.8600
alpha (K):  0.9000

hardness table read
setting up gammas ...
computing q(ij,n)
memory needed for q data:             9.7 MB 
memory available for q data:       2481.1 MB 

CSF included by energy:           31 
CSF considered in PT2:          7147 

ordered frontier orbitals
           eV         # centers 
  86      -9.082      16.0
  87      -9.029       3.4
  88      -8.997       5.8
  89      -8.974      12.1
  90      -8.949      12.4
  91      -8.875       8.7
  92      -8.724       5.0
  93      -8.544      21.2
  94      -8.136      26.0
  95      -7.619      27.9
  96      -6.614      18.0

  97      -2.420      25.6
  98      -2.052      13.8
  99      -1.943      14.6
 100      -1.536      20.7
 101      -0.345      26.1
 102       0.119       8.0
 103       0.198       8.0
 104       0.601      30.8
 105       0.969       9.2
 106       1.040      25.1
 107       1.087      12.2

           eV        nm       excitation i->a                     eV 
   0      2.52     491.5    96 ->  97      gap,J,K:    4.194     2.324     0.327
   1      2.94     421.1    96 ->  98      gap,J,K:    4.562     1.746     0.064
   2      3.09     401.0    96 ->  99      gap,J,K:    4.671     1.715     0.068
   3      3.47     357.4    96 -> 100      gap,J,K:    5.077     2.203     0.297
   4      3.67     338.2    95 ->  97      gap,J,K:    5.199     2.063     0.265
   5      4.09     302.8    95 ->  98      gap,J,K:    5.567     1.766     0.146
   6      4.14     299.3    95 ->  99      gap,J,K:    5.676     1.955     0.210
   7      4.15     298.6    94 ->  97      gap,J,K:    5.716     1.891     0.164
   8      4.21     294.2    87 ->  99      gap,J,K:    7.086     2.891     0.010
   9      4.23     293.4    88 ->  98      gap,J,K:    6.945     2.855     0.068
  10      4.37     283.6    83 ->  98      gap,J,K:    7.168     2.796     0.000
  11      4.43     280.1    84 ->  99      gap,J,K:    7.246     2.821     0.000
  12      4.46     277.7    93 ->  97      gap,J,K:    6.124     2.082     0.211
  13      4.47     277.6    89 ->  98      gap,J,K:    6.923     2.829     0.186
  14      4.49     275.9    88 ->  97      gap,J,K:    6.577     2.105     0.012
  15      4.53     274.0    92 ->  97      gap,J,K:    6.304     2.311     0.266
  16      4.56     272.1    95 -> 100      gap,J,K:    6.082     2.052     0.263
  17      4.67     265.5    96 -> 101      gap,J,K:    6.269     2.229     0.315
  18      4.68     265.0    94 ->  98      gap,J,K:    6.084     1.964     0.280
  19      4.76     260.4    91 ->  97      gap,J,K:    6.455     2.039     0.172
  20      4.78     259.6    87 ->  97      gap,J,K:    6.609     1.836     0.002
  21      4.85     255.7    80 ->  98      gap,J,K:    7.567     2.749     0.015
  22      4.86     255.3    92 ->  98      gap,J,K:    6.672     1.921     0.053
  23      4.86     255.1    90 ->  99      gap,J,K:    7.006     2.509     0.181
  24      4.86     255.0    94 ->  99      gap,J,K:    6.193     1.842     0.255

average / max PT2 energy lowering (eV):       0.041       0.099

CSF included by PT:                   264 
total number of CSF included:         295 
 
sTD-DFT procedure...
setting up A+B and A-B matrices...  done
estimated time (min):    0.001
calculating (A-B)^0.5 ... done
calculating (A+B)*(A-B)^0.5 ... done
calculating (A-B)^0.5 *(A+B)*(A-B)^0.5 ... done
diagonalizing ...using LAPACKE_ssyevr ...done

   32 roots found, lowest/highest eigenvalue :     2.279     4.990

excitation energies, transition moments and amplitudes

molecular weight:  911.144
state   eV        nm        fL         fV        Rl        RV
   0   2.279     544.1   1.887487   2.248097  -173.814972  -184.523081     0.96 (  96->  97)    0.01 (  95-> 100)    0.01 (  96->  98)
   1   2.683     462.1   0.027461   0.029897  -0.325880  -0.498677     0.81 (  96->  98)    0.11 (  95->  98)    0.02 (  96-> 100)
   2   2.842     436.2   0.072893   0.082122  25.658430  27.083888     0.82 (  96->  99)    0.12 (  95->  99)    0.01 (  96->  98)
   3   3.198     387.7   0.006223   0.006395  87.750841  89.402930     0.93 (  96-> 100)    0.02 (  95-> 101)    0.02 (  96->  98)
   4   3.386     366.1   0.010967   0.012473  80.978797  79.758957     0.90 (  95->  97)    0.06 (  94-> 100)    0.01 (  95->  98)
   5   3.521     352.1   0.000352   0.000538  -1.174269  -2.286289     0.32 (  88->  98)    0.21 (  88->  97)    0.14 (  88-> 100)
   6   3.702     334.9   0.000797   0.000766   5.271191   4.850026     0.47 (  87->  99)    0.21 (  87-> 100)    0.12 (  87->  97)
   7   3.736     331.8   0.051673   0.046431  -8.835317  -8.368148     0.43 (  94->  97)    0.16 (  94->  98)    0.13 (  95->  98)
   8   3.830     323.7   0.097068   0.094780   9.346155  10.217591     0.34 (  95->  98)    0.29 (  94->  97)    0.14 (  94->  98)
   9   3.885     319.1   0.161932   0.156720  10.704710  10.660992     0.54 (  95->  99)    0.20 (  94->  99)    0.10 (  96->  99)
  10   4.010     309.2   0.000192   0.000323  -1.758421  -1.856507     0.31 (  83->  98)    0.23 (  88->  98)    0.20 (  88->  97)
  11   4.037     307.1   0.053192   0.055705  -0.501537  -1.852288     0.49 (  93->  97)    0.23 (  92->  97)    0.05 (  95-> 100)
  12   4.061     305.3   0.001382   0.001154  -7.240934  -6.678518     0.59 (  84->  99)    0.17 (  87->  99)    0.09 (  87->  97)
  13   4.080     303.9   0.002229   0.001793   0.252597  -0.185293     0.50 (  83->  98)    0.13 (  88->  97)    0.09 (  89->  98)
  14   4.125     300.6   0.022755   0.022555  11.872968  11.549500     0.15 (  92->  97)    0.12 (  93->  97)    0.11 (  96-> 101)
  15   4.155     298.4   0.022351   0.017194   4.010780   3.245484     0.26 (  90->  99)    0.19 (  91->  99)    0.08 (  91->  97)
  16   4.206     294.8   0.023550   0.020394   4.465302   5.447415     0.21 (  89->  98)    0.14 (  92->  97)    0.13 (  93->  97)
  17   4.226     293.4   0.001112   0.000710  16.296143  12.409881     0.34 (  87->  97)    0.20 (  87->  99)    0.18 (  84->  99)
  18   4.277     289.9   0.206919   0.193607  -1.126769  -1.493438     0.21 (  96-> 101)    0.17 (  92->  97)    0.12 (  95-> 100)
  19   4.334     286.1   0.171536   0.160226  13.694730  12.120638     0.30 (  93->  98)    0.15 (  94->  98)    0.07 (  89->  98)
  20   4.417     280.7   0.026515   0.020948  -1.082756   0.604350     0.21 (  81->  99)    0.18 (  86->  99)    0.15 (  91->  97)
  21   4.443     279.1   0.134113   0.113391  -46.748563  -43.643040     0.37 (  80->  98)    0.08 (  85->  98)    0.06 (  93->  98)
  22   4.451     278.5   0.193550   0.176761  -1.994282  -2.958882     0.32 (  91->  97)    0.14 (  96-> 101)    0.09 (  90->  97)
  23   4.513     274.7   0.098813   0.093549  36.397208  32.656548     0.20 (  81->  99)    0.16 (  94->  99)    0.15 (  93->  99)
  24   4.583     270.5   0.132187   0.121946  -6.722467  -5.256506     0.35 (  95-> 100)    0.15 (  96-> 101)    0.06 (  94->  97)
  25   4.595     269.8   0.018391   0.015523  -1.549643  -1.494633     0.20 (  90->  97)    0.17 (  86->  97)    0.08 (  91->  99)
  26   4.609     269.0   0.004133   0.001724   1.029161   0.198508     0.14 (  85->  97)    0.12 (  92->  98)    0.11 (  89->  98)
  27   4.631     267.7   0.009511   0.011704   3.469624   3.246281     0.43 (  92->  98)    0.07 (  85->  97)    0.05 (  94->  98)
  28   4.671     265.4   0.037589   0.027812  -4.873669  -4.359307     0.28 (  85->  98)    0.18 (  89->  97)    0.09 (  80->  98)
  29   4.718     262.8   0.051322   0.037356  -4.966873  -4.924488     0.23 (  86->  99)    0.11 (  81->  99)    0.11 (  94->  99)
  30   4.954     250.3   0.210372   0.176732  -8.927015  -8.756443     0.26 (  94-> 100)    0.15 (  93-> 100)    0.10 (  82->  97)
  31   4.990     248.5   0.008333   0.007353   0.940222   0.693612     0.48 (  91->  99)    0.38 (  90->  99)    0.04 (  92->  99)

-----------------------------------------------------------------------------
         ABSORPTION SPECTRUM VIA TRANSITION ELECTRIC DIPOLE MOMENTS
-----------------------------------------------------------------------------
State   Energy  Wavelength   fosc         T2         TX        TY        TZ  
        (cm-1)    (nm)                  (au**2)     (au)      (au)      (au) 
-----------------------------------------------------------------------------
   0   18380.1    544.1   1.887486629  33.80734   1.64236   5.57593  -0.13800
   1   21641.1    462.1   0.027460735   0.41774   0.17290   0.62276   0.00452
   2   22923.5    436.2   0.072893447   1.04685  -1.01688  -0.10571   0.04023
   3   25792.4    387.7   0.006223178   0.07943   0.22030  -0.08632  -0.15312
   4   27313.4    366.1   0.010966677   0.13218   0.34847   0.05728   0.08645
   5   28397.6    352.1   0.000352026   0.00408  -0.00424  -0.00932  -0.06306
   6   29857.5    334.9   0.000796577   0.00878  -0.04161  -0.08098   0.02222
   7   30136.7    331.8   0.051672631   0.56447   0.55589   0.50417  -0.03565
   8   30893.4    323.7   0.097067856   1.03439   0.35893  -0.94782  -0.08486
   9   31334.8    319.1   0.161931906   1.70130   0.84128  -0.99532  -0.05376
  10   32343.8    309.2   0.000191937   0.00195   0.00582   0.03583  -0.02522
  11   32559.8    307.1   0.053191748   0.53782   0.25024  -0.68594  -0.06846
  12   32754.0    305.3   0.001382429   0.01389   0.02139  -0.09465   0.06692
  13   32909.3    303.9   0.002229207   0.02230   0.03782  -0.01126  -0.14402
  14   33269.3    300.6   0.022755234   0.22517  -0.47293   0.02970  -0.02512
  15   33510.8    298.4   0.022351453   0.21958   0.33733   0.32494  -0.01428
  16   33925.9    294.8   0.023550117   0.22853   0.27646   0.38921  -0.02479
  17   34085.4    293.4   0.001111628   0.01074  -0.03882   0.05647   0.07772
  18   34499.3    289.9   0.206918655   1.97454   1.38964  -0.14812  -0.14666
  19   34954.8    286.1   0.171535603   1.61556  -0.13869   1.26244   0.05057
  20   35623.9    280.7   0.026515021   0.24503  -0.28150  -0.40631   0.02658
  21   35834.0    279.1   0.134112792   1.23211   0.78477  -0.77694  -0.11227
  22   35900.5    278.5   0.193550241   1.77488  -1.06564   0.79508   0.08449
  23   36402.6    274.7   0.098813045   0.89363  -0.90778   0.25584   0.06416
  24   36967.4    270.5   0.132187028   1.17719   0.33832  -1.03073  -0.01776
  25   37059.9    269.8   0.018390613   0.16337  -0.37448   0.14370   0.04983
  26   37176.3    269.0   0.004133261   0.03660  -0.18771   0.03439   0.01355
  27   37352.7    267.7   0.009510854   0.08382  -0.12775  -0.25796   0.03103
  28   37677.5    265.4   0.037588605   0.32843  -0.49087  -0.29375   0.03459
  29   38050.1    262.8   0.051321818   0.44404   0.20231   0.63480  -0.01201
  30   39954.2    250.3   0.210371530   1.73341  -0.27114   1.28789   0.03516
  31   40245.3    248.5   0.008332762   0.06816  -0.14174   0.21894   0.01163

-----------------------------------------------------------------------------
         ABSORPTION SPECTRUM VIA TRANSITION VELOCITY DIPOLE MOMENTS
-----------------------------------------------------------------------------
State   Energy  Wavelength   fosc         P2         PX        PY        PZ  
        (cm-1)    (nm)                  (au**2)     (au)      (au)      (au) 
-----------------------------------------------------------------------------
   0   18380.1    544.1   2.248097123   0.28240   0.15378   0.50852  -0.01281
   1   21641.1    462.1   0.029897138   0.00442   0.01515   0.06474   0.00080
   2   22923.5    436.2   0.082122350   0.01287  -0.11291  -0.00979   0.00465
   3   25792.4    387.7   0.006394686   0.00113   0.02574  -0.01142  -0.01828
   4   27313.4    366.1   0.012473264   0.00233   0.04634   0.00874   0.01023
   5   28397.6    352.1   0.000538421   0.00010  -0.00180  -0.00204  -0.00985
   6   29857.5    334.9   0.000766043   0.00016  -0.00457  -0.01057   0.00486
   7   30136.7    331.8   0.046431495   0.00956   0.07054   0.06759  -0.00435
   8   30893.4    323.7   0.094779701   0.02001   0.04645  -0.13312  -0.01158
   9   31334.8    319.1   0.156719658   0.03356   0.11751  -0.14035  -0.00745
  10   32343.8    309.2   0.000323399   0.00007   0.00062   0.00479  -0.00694
  11   32559.8    307.1   0.055704984   0.01240   0.04729  -0.10016  -0.01133
  12   32754.0    305.3   0.001153644   0.00026   0.00387  -0.01439   0.00601
  13   32909.3    303.9   0.001792508   0.00040   0.00682  -0.00043  -0.01888
  14   33269.3    300.6   0.022554940   0.00513  -0.07124   0.00655  -0.00333
  15   33510.8    298.4   0.017194388   0.00394   0.04524   0.04344  -0.00214
  16   33925.9    294.8   0.020393683   0.00473   0.03446   0.05938  -0.00393
  17   34085.4    293.4   0.000709747   0.00017  -0.00652   0.00621   0.00918
  18   34499.3    289.9   0.193607486   0.04565   0.21086  -0.02651  -0.02204
  19   34954.8    286.1   0.160225859   0.03828  -0.02776   0.19348   0.00860
  20   35623.9    280.7   0.020947512   0.00510  -0.04418  -0.05602   0.00320
  21   35834.0    279.1   0.113391467   0.02777   0.11382  -0.12072  -0.01558
  22   35900.5    278.5   0.176761079   0.04337  -0.16576   0.12531   0.01386
  23   36402.6    274.7   0.093548996   0.02327  -0.14740   0.03773   0.01115
  24   36967.4    270.5   0.121946447   0.03081   0.04554  -0.16951  -0.00202
  25   37059.9    269.8   0.015522652   0.00393  -0.05907   0.01954   0.00776
  26   37176.3    269.0   0.001723528   0.00044  -0.02071   0.00268   0.00130
  27   37352.7    267.7   0.011704362   0.00299  -0.02665  -0.04744   0.00520
  28   37677.5    265.4   0.027811929   0.00716  -0.07018  -0.04703   0.00498
  29   38050.1    262.8   0.037356340   0.00971   0.02867   0.09428  -0.00199
  30   39954.2    250.3   0.176732147   0.04826  -0.04741   0.21442   0.00606
  31   40245.3    248.5   0.007352655   0.00202  -0.02550   0.03696   0.00245

-------------------------------------------------------------------
                             CD SPECTRUM
-------------------------------------------------------------------
State   Energy Wavelength       R         MX        MY        MZ   
        (cm-1)   (nm)       (1e40*cgs)   (au)      (au)      (au)  
-------------------------------------------------------------------
   0   18380.1    544.1    -173.81497  -0.52146   0.24160  -1.78737
   1   21641.1    462.1     -0.32588  -0.11728   0.04071  -0.81594
   2   22923.5    436.2     25.65843   0.16297  -0.07341   1.22087
   3   25792.4    387.7     87.75084   0.32733  -0.05061   2.93058
   4   27313.4    366.1     80.97880  -0.31750   0.08085  -2.74764
   5   28397.6    352.1     -1.17427  -0.23332  -0.36245  -0.00977
   6   29857.5    334.9      5.27119   0.60732  -0.09236  -0.20555
   7   30136.7    331.8     -8.83532   0.01028   0.04517  -0.25225
   8   30893.4    323.7      9.34615   0.30925  -0.02370   2.04003
   9   31334.8    319.1     10.70471  -0.10588   0.03008  -1.36920
  10   32343.8    309.2     -1.75842   0.36988   0.10462  -0.06184
  11   32559.8    307.1     -0.50154   0.18760  -0.02157   0.87076
  12   32754.0    305.3     -7.24093  -0.14211  -0.29644   0.08516
  13   32909.3    303.9      0.25260   0.02516   0.20119  -0.00169
  14   33269.3    300.6     11.87297   0.07437  -0.04416   0.55266
  15   33510.8    298.4      4.01078  -0.13173   0.04705  -0.84938
  16   33925.9    294.8      4.46530   0.07140  -0.04322   0.88169
  17   34085.4    293.4     16.29614   0.06110  -0.23049  -0.69149
  18   34499.3    289.9     -1.12677   0.19236   0.02533   1.76446
  19   34954.8    286.1     13.69473  -0.19004  -0.04225  -0.61534
  20   35623.9    280.7     -1.08276   0.05577   0.05661   1.62896
  21   35834.0    279.1    -46.74856   0.17319  -0.14398   0.44054
  22   35900.5    278.5     -1.99428   0.00044  -0.12833   1.31329
  23   36402.6    274.7     36.39721   0.29032  -0.12686   2.20699
  24   36967.4    270.5     -6.72247   0.09524   0.00305   0.03135
  25   37059.9    269.8     -1.54964  -0.06694   0.00174  -0.37615
  26   37176.3    269.0      1.02916  -0.08230  -0.09530  -1.22039
  27   37352.7    267.7      3.46962  -0.03760   0.01744  -0.48420
  28   37677.5    265.4     -4.87367  -0.15993  -0.05778  -2.16271
  29   38050.1    262.8     -4.96687  -0.17011   0.06427  -1.22356
  30   39954.2    250.3     -8.92701  -0.13132  -0.01910   0.76403
  31   40245.3    248.5      0.94022   0.03615  -0.01572   0.39363

sTD-DFT done

Total run time:        4.199 sec

           *** ORCA-CIS/TD-DFT FINISHED WITHOUT ERROR ***

-------------------------   --------------------
FINAL SINGLE POINT ENERGY     -3517.779872813097
-------------------------   --------------------


                            ***************************************
                            *     ORCA property calculations      *
                            ***************************************

                                    ---------------------
                                    Active property flags
                                    ---------------------
   (+) Dipole Moment


------------------------------------------------------------------------------
                       ORCA ELECTRIC PROPERTIES CALCULATION
------------------------------------------------------------------------------

Dipole Moment Calculation                       ... on
Quadrupole Moment Calculation                   ... off
Polarizability Calculation                      ... off
GBWName                                         ... NITV.gbw
Electron density file                           ... NITV.scfp
The origin for moment calculation is the CENTER OF MASS  = ( 5.612246,  2.994133 -0.114179)

-------------
DIPOLE MOMENT
-------------
                                X             Y             Z
Electronic contribution:    -26.81978      -8.87269     -28.64491
Nuclear contribution   :     27.28845       9.46158      28.81036
                        -----------------------------------------
Total Dipole Moment    :      0.46867       0.58889       0.16545
                        -----------------------------------------
Magnitude (a.u.)       :      0.77060
Magnitude (Debye)      :      1.95870



--------------------
Rotational spectrum 
--------------------
 
Rotational constants in cm-1:     0.002597     0.000284     0.000260 
Rotational constants in MHz :    77.857798     8.528710     7.801993 

 Dipole components along the rotational axes: 
x,y,z [a.u.] :    -0.633024     0.401070     0.179555 
x,y,z [Debye]:    -1.609019     1.019440     0.456392 

 

Timings for individual modules:

Sum of individual times         ...     3460.417 sec (=  57.674 min)
GTO integral calculation        ...        3.557 sec (=   0.059 min)   0.1 %
SCF iterations                  ...     3452.430 sec (=  57.540 min)  99.8 %
CIS module                      ...        4.431 sec (=   0.074 min)   0.1 %
                             ****ORCA TERMINATED NORMALLY****
TOTAL RUN TIME: 0 days 0 hours 57 minutes 41 seconds 145 msec
