
                                 *****************
                                 * O   R   C   A *
                                 *****************

           --- An Ab Initio, DFT and Semiempirical electronic structure package ---

                  #######################################################
                  #                        -***-                        #
                  #          Department of theory and spectroscopy      #
                  #               Directorship: Frank Neese             #
                  #        Max Planck Institute fuer Kohlenforschung    #
                  #                Kaiser Wilhelm Platz 1               #
                  #                 D-45470 Muelheim/Ruhr               #
                  #                      Germany                        #
                  #                                                     #
                  #                  All rights reserved                #
                  #                        -***-                        #
                  #######################################################


                         Program Version 4.2.0 -  RELEASE  -


 With contributions from (in alphabetic order):
   Daniel Aravena         : Magnetic Suceptibility
   Michael Atanasov       : Ab Initio Ligand Field Theory (pilot matlab implementation)
   Alexander A. Auer      : GIAO ZORA, VPT2
   Ute Becker             : Parallelization
   Giovanni Bistoni       : ED, misc. LED, open-shell LED, HFLED
   Martin Brehm           : Molecular dynamics
   Dmytro Bykov           : SCF Hessian
   Vijay G. Chilkuri      : MRCI spin determinant printing, contributions to CSF-ICE
   Dipayan Datta          : RHF DLPNO-CCSD density
   Achintya Kumar Dutta   : EOM-CC, STEOM-CC
   Dmitry Ganyushin       : Spin-Orbit,Spin-Spin,Magnetic field MRCI
   Miquel Garcia          : C-PCM Hessian, Gaussian charge scheme
   Yang Guo               : DLPNO-NEVPT2, CIM, IAO-localization
   Andreas Hansen         : Spin unrestricted coupled pair/coupled cluster methods
   Benjamin Helmich-Paris : CASSCF linear response (MC-RPA)
   Lee Huntington         : MR-EOM, pCC
   Robert Izsak           : Overlap fitted RIJCOSX, COSX-SCS-MP3, EOM
   Christian Kollmar      : KDIIS, OOCD, Brueckner-CCSD(T), CCSD density
   Simone Kossmann        : Meta GGA functionals, TD-DFT gradient, OOMP2, MP2 Hessian
   Martin Krupicka        : AUTO-CI
   Lucas Lang             : DCDCAS
   Dagmar Lenk            : GEPOL surface, SMD
   Dimitrios Liakos       : Extrapolation schemes; Compound Job, initial MDCI parallelization
   Dimitrios Manganas     : Further ROCIS development; embedding schemes
   Dimitrios Pantazis     : SARC Basis sets
   Taras Petrenko         : DFT Hessian,TD-DFT gradient, ASA, ECA, R-Raman, ABS, FL, XAS/XES, NRVS
   Peter Pinski           : DLPNO-MP2, DLPNO-MP2 Gradient
   Christoph Reimann      : Effective Core Potentials
   Marius Retegan         : Local ZFS, SOC
   Christoph Riplinger    : Optimizer, TS searches, QM/MM, DLPNO-CCSD(T), (RO)-DLPNO pert. Triples
   Tobias Risthaus        : Range-separated hybrids, TD-DFT gradient, RPA, STAB
   Michael Roemelt        : Original ROCIS implementation
   Masaaki Saitow         : Open-shell DLPNO-CCSD energy and density
   Barbara Sandhoefer     : DKH picture change effects
   Avijit Sen             : IP-ROCIS
   Kantharuban Sivalingam : CASSCF convergence, NEVPT2, FIC-MRCI
   Bernardo de Souza      : ESD, SOC TD-DFT
   Georgi Stoychev        : AutoAux, RI-MP2 NMR
   Willem Van den Heuvel  : Paramagnetic NMR
   Boris Wezisla          : Elementary symmetry handling
   Frank Wennmohs         : Technical directorship


 We gratefully acknowledge several colleagues who have allowed us to
 interface, adapt or use parts of their codes:
   Stefan Grimme, W. Hujo, H. Kruse,             : VdW corrections, initial TS optimization,
                  C. Bannwarth                     DFT functionals, gCP, sTDA/sTD-DF
   Ed Valeev, F. Pavosevic, A. Kumar             : LibInt (2-el integral package), F12 methods
   Garnet Chan, S. Sharma, J. Yang, R. Olivares  : DMRG
   Ulf Ekstrom                                   : XCFun DFT Library
   Mihaly Kallay                                 : mrcc  (arbitrary order and MRCC methods)
   Andreas Klamt, Michael Diedenhofen            : otool_cosmo (COSMO solvation model)
   Jiri Pittner, Ondrej Demel                    : Mk-CCSD
   Frank Weinhold                                : gennbo (NPA and NBO analysis)
   Christopher J. Cramer and Donald G. Truhlar   : smd solvation model
   Lars Goerigk                                  : TD-DFT with DH, B97 family of functionals
   V. Asgeirsson, H. Jonsson                     : NEB implementation
   FAccTs GmbH                                   : IRC, NEB, NEB-TS, Multilevel, MM, QM/MM, CI optimization
   S Lehtola, MJT Oliveira, MAL Marques          : LibXC Library


 Your calculation uses the libint2 library for the computation of 2-el integrals
 For citations please refer to: http://libint.valeyev.net

 Your ORCA version has been built with support for libXC version: 4.2.3
 For citations please refer to: https://tddft.org/programs/libxc/

 This ORCA versions uses:
   CBLAS   interface :  Fast vector & matrix operations
   LAPACKE interface :  Fast linear algebra routines
   SCALAPACK package :  Parallel linear algebra routines


XCFun DFT library Copyright 2009-2010 Ulf Ekstrom and contributors.
See http://admol.org/xcfun for more information. This is free soft-
ware; see the source code for copying conditions. There is ABSOLUTELY
NO WARRANTY; not even for MERCHANTABILITY or FITNESS FOR A PARTICULAR
PURPOSE. For details see the documentation. Scientific users of this 
library should cite U. Ekstrom, L. Visscher, R. Bast, A. J. Thorvald-
sen and K. Ruud; J.Chem.Theor.Comp. 2010, DOI: 10.1021/ct100117s
XCFun Version 0.99 
----- Orbital basis set information -----
Your calculation utilizes the basis: def2-SVP
   F. Weigend and R. Ahlrichs, Phys. Chem. Chem. Phys. 7, 3297 (2005).

----- AuxJ basis set information -----
Your calculation utilizes the auxiliary basis: def2/J
   F. Weigend, Phys. Chem. Chem. Phys. 8, 1057 (2006).

================================================================================
                                        WARNINGS
                       Please study these warnings very carefully!
================================================================================

INFO   : Checking CIS options ...

WARNING: CIS/ROCIS methods need fully converged wavefunctions
  ===> : Setting SCFConvForced true
         You can overwrite this default with %scf ConvForced false 


INFO   : the flag for use of LIBINT has been found!

================================================================================
                                       INPUT FILE
================================================================================
NAME = O-IDTBR.inp
|  1> # ORCA input file
|  2> # O-IDTBR.out
|  3> ! CAM-B3LYP def2-SVP def2/J RIJCOSX Grid4 TightSCF
|  4> %maxcore 5000
|  5> %tddft
|  6>     Mode sTDDFT
|  7>     Ethresh 5.0
|  8>     maxcore 5000
|  9> end
| 10> * xyz 0 1
| 11>    S        0.59402        -2.16021        -0.28280
| 12>    C        2.17822        -1.54834        -0.75208
| 13>    S        3.39585        -2.50266        -1.27372
| 14>    N        2.23583        -0.19839        -0.63438
| 15>    C        3.43254         0.56200        -0.93727
| 16>    C        4.39340         0.57033         0.24490
| 17>    C        1.09751         0.43038        -0.17297
| 18>    O        1.00766         1.62922        -0.01988
| 19>    C        0.03402        -0.55273         0.09014
| 20>    C       -1.15571        -0.11252         0.56801
| 21>    C       -2.35308        -0.79387         0.92646
| 22>    C       -2.57173        -2.19059         0.79800
| 23>    N       -1.72259        -3.09068         0.31674
| 24>    S       -2.40126        -4.54740         0.35639
| 25>    N       -3.81336        -4.11133         0.98754
| 26>    C       -3.81752        -2.79611         1.19689
| 27>    C       -4.87205        -2.00954         1.73835
| 28>    C       -4.61831        -0.64390         1.83988
| 29>    C       -3.42103        -0.06505         1.45138
| 30>    C       -6.11004        -2.58343         2.15512
| 31>    C       -6.50295        -3.91057         2.10750
| 32>    C       -7.78716        -4.09968         2.60509
| 33>    C       -8.37889        -2.92579         3.04397
| 34>    S       -7.36518        -1.56068         2.83978
| 35>    C       -9.69751        -3.17111         3.53076
| 36>    C       -9.93515        -4.56071         3.39735
| 37>    C       -8.71039        -5.26732         2.84269
| 38>    C       -9.02161        -6.03257         1.54801
| 39>    C       -9.54266        -5.12017         0.44344
| 40>    C       -8.03087        -6.17483         3.89496
| 41>    C       -8.85873        -7.34997         4.39717
| 42>    C      -11.15900        -5.08382         3.74552
| 43>    C      -12.11689        -4.20598         4.24966
| 44>    C      -11.87885        -2.81565         4.37574
| 45>    C      -10.65631        -2.29134         4.02731
| 46>    C      -13.09881        -2.10500         4.93195
| 47>    C      -12.77738        -1.30202         6.20037
| 48>    C      -12.22087        -2.17748         7.31733
| 49>    C      -13.79607        -1.23192         3.86163
| 50>    C      -12.97331        -0.07774         3.30549
| 51>    C      -14.00680        -3.27553         5.20769
| 52>    C      -13.42625        -4.45576         4.76333
| 53>    S      -14.42828        -5.82392         5.01817
| 54>    C      -15.65290        -4.80006         5.73668
| 55>    C      -15.26771        -3.46555         5.75273
| 56>    C      -16.86417        -5.36660         6.23073
| 57>    C      -17.10809        -6.76315         6.13588
| 58>    N      -16.30148        -7.67341         5.59789
| 59>    S      -16.99315        -9.12092         5.71797
| 60>    N      -18.34620        -8.66306         6.45786
| 61>    C      -18.31688        -7.34570         6.64463
| 62>    C      -19.32020        -6.54484         7.26487
| 63>    C      -19.04478        -5.17994         7.32973
| 64>    C      -17.87380        -4.62052         6.83648
| 65>    C      -20.47501        -7.22313         7.75055
| 66>    C      -21.60748        -6.80824         8.38171
| 67>    S      -22.79645        -8.03431         8.82476
| 68>    C      -23.87240        -6.84435         9.52745
| 69>    S      -25.31467        -7.18965        10.21023
| 70>    N      -23.33170        -5.60660         9.40698
| 71>    C      -23.99906        -4.42693         9.92386
| 72>    C      -23.71704        -4.23976        11.40906
| 73>    C      -22.09147        -5.49331         8.79780
| 74>    O      -21.55192        -4.41419         8.65787
| 75>    H        3.10435         1.57747        -1.17027
| 76>    H        3.90754         0.10953        -1.81081
| 77>    H        3.91605         1.01418         1.11513
| 78>    H        5.27465         1.15233        -0.00668
| 79>    H        4.70201        -0.44379         0.48620
| 80>    H       -1.18542         0.96474         0.70635
| 81>    H       -5.39367        -0.00819         2.24218
| 82>    H       -3.30420         1.00269         1.56425
| 83>    H       -5.85903        -4.67579         1.71605
| 84>    H       -9.76979        -6.79743         1.75855
| 85>    H       -8.11061        -6.53029         1.20939
| 86>    H      -10.44462        -4.60428         0.76631
| 87>    H       -9.77850        -5.70372        -0.44331
| 88>    H       -8.79787        -4.37449         0.17446
| 89>    H       -7.75577        -5.55014         4.74897
| 90>    H       -7.10657        -6.55142         3.45074
| 91>    H       -9.73687        -7.00599         4.93626
| 92>    H       -8.25637        -7.94491         5.08040
| 93>    H       -9.17302        -7.99334         3.57987
| 94>    H      -11.39522        -6.13071         3.63758
| 95>    H      -10.42127        -1.24391         4.13486
| 96>    H      -13.68969        -0.80937         6.54331
| 97>    H      -12.04688        -0.52974         5.95746
| 98>    H      -12.94371        -2.93497         7.61159
| 99>    H      -11.98703        -1.56954         8.18814
|100>    H      -11.31182        -2.67927         6.99281
|101>    H      -14.71194        -0.83678         4.30724
|102>    H      -14.08652        -1.88511         3.03460
|103>    H      -12.64987         0.59654         4.09385
|104>    H      -13.58193         0.49093         2.60569
|105>    H      -12.10100        -0.44414         2.77166
|106>    H      -15.88294        -2.68120         6.15387
|107>    H      -19.77133        -4.52808         7.78524
|108>    H      -17.74585        -3.55424         6.93463
|109>    H      -20.42247        -8.29312         7.57616
|110>    H      -25.07125        -4.54364         9.75074
|111>    H      -23.61566        -3.57806         9.35284
|112>    H      -24.08527        -5.09311        11.97352
|113>    H      -24.21924        -3.34456        11.76357
|114>    H      -22.64818        -4.13344        11.57968
|115> *
|116> 
|117>                          ****END OF INPUT****
================================================================================

                       ****************************
                       * Single Point Calculation *
                       ****************************

---------------------------------
CARTESIAN COORDINATES (ANGSTROEM)
---------------------------------
  S      0.594020   -2.160210   -0.282800
  C      2.178220   -1.548340   -0.752080
  S      3.395850   -2.502660   -1.273720
  N      2.235830   -0.198390   -0.634380
  C      3.432540    0.562000   -0.937270
  C      4.393400    0.570330    0.244900
  C      1.097510    0.430380   -0.172970
  O      1.007660    1.629220   -0.019880
  C      0.034020   -0.552730    0.090140
  C     -1.155710   -0.112520    0.568010
  C     -2.353080   -0.793870    0.926460
  C     -2.571730   -2.190590    0.798000
  N     -1.722590   -3.090680    0.316740
  S     -2.401260   -4.547400    0.356390
  N     -3.813360   -4.111330    0.987540
  C     -3.817520   -2.796110    1.196890
  C     -4.872050   -2.009540    1.738350
  C     -4.618310   -0.643900    1.839880
  C     -3.421030   -0.065050    1.451380
  C     -6.110040   -2.583430    2.155120
  C     -6.502950   -3.910570    2.107500
  C     -7.787160   -4.099680    2.605090
  C     -8.378890   -2.925790    3.043970
  S     -7.365180   -1.560680    2.839780
  C     -9.697510   -3.171110    3.530760
  C     -9.935150   -4.560710    3.397350
  C     -8.710390   -5.267320    2.842690
  C     -9.021610   -6.032570    1.548010
  C     -9.542660   -5.120170    0.443440
  C     -8.030870   -6.174830    3.894960
  C     -8.858730   -7.349970    4.397170
  C    -11.159000   -5.083820    3.745520
  C    -12.116890   -4.205980    4.249660
  C    -11.878850   -2.815650    4.375740
  C    -10.656310   -2.291340    4.027310
  C    -13.098810   -2.105000    4.931950
  C    -12.777380   -1.302020    6.200370
  C    -12.220870   -2.177480    7.317330
  C    -13.796070   -1.231920    3.861630
  C    -12.973310   -0.077740    3.305490
  C    -14.006800   -3.275530    5.207690
  C    -13.426250   -4.455760    4.763330
  S    -14.428280   -5.823920    5.018170
  C    -15.652900   -4.800060    5.736680
  C    -15.267710   -3.465550    5.752730
  C    -16.864170   -5.366600    6.230730
  C    -17.108090   -6.763150    6.135880
  N    -16.301480   -7.673410    5.597890
  S    -16.993150   -9.120920    5.717970
  N    -18.346200   -8.663060    6.457860
  C    -18.316880   -7.345700    6.644630
  C    -19.320200   -6.544840    7.264870
  C    -19.044780   -5.179940    7.329730
  C    -17.873800   -4.620520    6.836480
  C    -20.475010   -7.223130    7.750550
  C    -21.607480   -6.808240    8.381710
  S    -22.796450   -8.034310    8.824760
  C    -23.872400   -6.844350    9.527450
  S    -25.314670   -7.189650   10.210230
  N    -23.331700   -5.606600    9.406980
  C    -23.999060   -4.426930    9.923860
  C    -23.717040   -4.239760   11.409060
  C    -22.091470   -5.493310    8.797800
  O    -21.551920   -4.414190    8.657870
  H      3.104350    1.577470   -1.170270
  H      3.907540    0.109530   -1.810810
  H      3.916050    1.014180    1.115130
  H      5.274650    1.152330   -0.006680
  H      4.702010   -0.443790    0.486200
  H     -1.185420    0.964740    0.706350
  H     -5.393670   -0.008190    2.242180
  H     -3.304200    1.002690    1.564250
  H     -5.859030   -4.675790    1.716050
  H     -9.769790   -6.797430    1.758550
  H     -8.110610   -6.530290    1.209390
  H    -10.444620   -4.604280    0.766310
  H     -9.778500   -5.703720   -0.443310
  H     -8.797870   -4.374490    0.174460
  H     -7.755770   -5.550140    4.748970
  H     -7.106570   -6.551420    3.450740
  H     -9.736870   -7.005990    4.936260
  H     -8.256370   -7.944910    5.080400
  H     -9.173020   -7.993340    3.579870
  H    -11.395220   -6.130710    3.637580
  H    -10.421270   -1.243910    4.134860
  H    -13.689690   -0.809370    6.543310
  H    -12.046880   -0.529740    5.957460
  H    -12.943710   -2.934970    7.611590
  H    -11.987030   -1.569540    8.188140
  H    -11.311820   -2.679270    6.992810
  H    -14.711940   -0.836780    4.307240
  H    -14.086520   -1.885110    3.034600
  H    -12.649870    0.596540    4.093850
  H    -13.581930    0.490930    2.605690
  H    -12.101000   -0.444140    2.771660
  H    -15.882940   -2.681200    6.153870
  H    -19.771330   -4.528080    7.785240
  H    -17.745850   -3.554240    6.934630
  H    -20.422470   -8.293120    7.576160
  H    -25.071250   -4.543640    9.750740
  H    -23.615660   -3.578060    9.352840
  H    -24.085270   -5.093110   11.973520
  H    -24.219240   -3.344560   11.763570
  H    -22.648180   -4.133440   11.579680

----------------------------
CARTESIAN COORDINATES (A.U.)
----------------------------
  NO LB      ZA    FRAG     MASS         X           Y           Z
   0 S    16.0000    0    32.060    1.122535   -4.082205   -0.534415
   1 C     6.0000    0    12.011    4.116239   -2.925939   -1.421225
   2 S    16.0000    0    32.060    6.417226   -4.729342   -2.406982
   3 N     7.0000    0    14.007    4.225106   -0.374903   -1.198804
   4 C     6.0000    0    12.011    6.486561    1.062026   -1.771184
   5 C     6.0000    0    12.011    8.302323    1.077768    0.462794
   6 C     6.0000    0    12.011    2.073993    0.813300   -0.326866
   7 O     8.0000    0    15.999    1.904201    3.078780   -0.037568
   8 C     6.0000    0    12.011    0.064288   -1.044508    0.170340
   9 C     6.0000    0    12.011   -2.183975   -0.212632    1.073383
  10 C     6.0000    0    12.011   -4.446677   -1.500197    1.750756
  11 C     6.0000    0    12.011   -4.859865   -4.139615    1.508001
  12 N     7.0000    0    14.007   -3.255223   -5.840539    0.598552
  13 S    16.0000    0    32.060   -4.537724   -8.593341    0.673479
  14 N     7.0000    0    14.007   -7.206206   -7.769288    1.866180
  15 C     6.0000    0    12.011   -7.214067   -5.283882    2.261794
  16 C     6.0000    0    12.011   -9.206840   -3.797480    3.285005
  17 C     6.0000    0    12.011   -8.727341   -1.216795    3.476869
  18 C     6.0000    0    12.011   -6.464810   -0.122927    2.742711
  19 C     6.0000    0    12.011  -11.546302   -4.881975    4.072587
  20 C     6.0000    0    12.011  -12.288795   -7.389906    3.982598
  21 C     6.0000    0    12.011  -14.715600   -7.747272    4.922907
  22 C     6.0000    0    12.011  -15.833807   -5.528942    5.752270
  23 S    16.0000    0    32.060  -13.918173   -2.949258    5.366406
  24 C     6.0000    0    12.011  -18.325638   -5.992529    6.672169
  25 C     6.0000    0    12.011  -18.774713   -8.618493    6.420061
  26 C     6.0000    0    12.011  -16.460252   -9.953792    5.371906
  27 C     6.0000    0    12.011  -17.048372  -11.399905    2.925315
  28 C     6.0000    0    12.011  -18.033014   -9.675719    0.837980
  29 C     6.0000    0    12.011  -15.176145  -11.668738    7.360408
  30 C     6.0000    0    12.011  -16.740574  -13.889430    8.309447
  31 C     6.0000    0    12.011  -21.087454   -9.607028    7.078007
  32 C     6.0000    0    12.011  -22.897604   -7.948150    8.030694
  33 C     6.0000    0    12.011  -22.447773   -5.320807    8.268950
  34 C     6.0000    0    12.011  -20.137507   -4.330005    7.610513
  35 C     6.0000    0    12.011  -24.753164   -3.977874    9.320035
  36 C     6.0000    0    12.011  -24.145749   -2.460461   11.717001
  37 C     6.0000    0    12.011  -23.094097   -4.114841   13.827750
  38 C     6.0000    0    12.011  -26.070794   -2.327991    7.297423
  39 C     6.0000    0    12.011  -24.516003   -0.146907    6.246471
  40 C     6.0000    0    12.011  -26.469016   -6.189855    9.841108
  41 C     6.0000    0    12.011  -25.371936   -8.420166    9.001389
  42 S    16.0000    0    32.060  -27.265498  -11.005614    9.482967
  43 C     6.0000    0    12.011  -29.579694   -9.070799   10.840754
  44 C     6.0000    0    12.011  -28.851791   -6.548940   10.871084
  45 C     6.0000    0    12.011  -31.868663  -10.141404   11.774373
  46 C     6.0000    0    12.011  -32.329605  -12.780501   11.595133
  47 N     7.0000    0    14.007  -30.805333  -14.500643   10.578479
  48 S    16.0000    0    32.060  -32.112400  -17.236041   10.805397
  49 N     7.0000    0    14.007  -34.669294  -16.370811   12.203587
  50 C     6.0000    0    12.011  -34.613887  -13.881361   12.556531
  51 C     6.0000    0    12.011  -36.509887  -12.367955   13.728615
  52 C     6.0000    0    12.011  -35.989418   -9.788668   13.851182
  53 C     6.0000    0    12.011  -33.776587   -8.731517   12.919075
  54 C     6.0000    0    12.011  -38.692161  -13.649738   14.646417
  55 C     6.0000    0    12.011  -40.832220  -12.865709   15.839136
  56 S    16.0000    0    32.060  -43.079047  -15.182646   16.676380
  57 C     6.0000    0    12.011  -45.112298  -12.933947   18.004271
  58 S    16.0000    0    32.060  -47.837793  -13.586469   19.294538
  59 N     7.0000    0    14.007  -44.090523  -10.594939   17.776616
  60 C     6.0000    0    12.011  -45.351651   -8.365685   18.753378
  61 C     6.0000    0    12.011  -44.818710   -8.011985   21.559999
  62 C     6.0000    0    12.011  -41.746828  -10.380851   16.625433
  63 O     8.0000    0    15.999  -40.727226   -8.341610   16.361003
  64 H     1.0000    0     1.008    5.866371    2.980986   -2.211490
  65 H     1.0000    0     1.008    7.384180    0.206982   -3.421935
  66 H     1.0000    0     1.008    7.400262    1.916522    2.107290
  67 H     1.0000    0     1.008    9.967644    2.177588   -0.012623
  68 H     1.0000    0     1.008    8.885511   -0.838642    0.918785
  69 H     1.0000    0     1.008   -2.240119    1.823094    1.334808
  70 H     1.0000    0     1.008  -10.192559   -0.015477    4.237106
  71 H     1.0000    0     1.008   -6.244033    1.894809    2.956004
  72 H     1.0000    0     1.008  -11.071962   -8.835963    3.242865
  73 H     1.0000    0     1.008  -18.462227  -12.845281    3.323178
  74 H     1.0000    0     1.008  -15.326832  -12.340460    2.285416
  75 H     1.0000    0     1.008  -19.737471   -8.700828    1.448116
  76 H     1.0000    0     1.008  -18.478687  -10.778469   -0.837734
  77 H     1.0000    0     1.008  -16.625565   -8.266588    0.329682
  78 H     1.0000    0     1.008  -14.656281  -10.488245    8.974253
  79 H     1.0000    0     1.008  -13.429471  -12.380390    6.520954
  80 H     1.0000    0     1.008  -18.400018  -13.239402    9.328180
  81 H     1.0000    0     1.008  -15.602278  -15.013704    9.600565
  82 H     1.0000    0     1.008  -17.334496  -15.105223    6.764974
  83 H     1.0000    0     1.008  -21.533845  -11.585363    6.874030
  84 H     1.0000    0     1.008  -19.693346   -2.350649    7.813753
  85 H     1.0000    0     1.008  -25.869765   -1.529488   12.365064
  86 H     1.0000    0     1.008  -22.765304   -1.001064   11.257968
  87 H     1.0000    0     1.008  -24.460067   -5.546290   14.383821
  88 H     1.0000    0     1.008  -22.652204   -2.966001   15.473342
  89 H     1.0000    0     1.008  -21.376242   -5.063087   13.214496
  90 H     1.0000    0     1.008  -27.801537   -1.581285    8.139504
  91 H     1.0000    0     1.008  -26.619665   -3.562342    5.734563
  92 H     1.0000    0     1.008  -23.904790    1.127297    7.736255
  93 H     1.0000    0     1.008  -25.666128    0.927723    4.924040
  94 H     1.0000    0     1.008  -22.867576   -0.839303    5.237678
  95 H     1.0000    0     1.008  -30.014407   -5.066734   11.629129
  96 H     1.0000    0     1.008  -37.362399   -8.556831   14.711971
  97 H     1.0000    0     1.008  -33.534797   -6.716540   13.104552
  98 H     1.0000    0     1.008  -38.592875  -15.671726   14.316868
  99 H     1.0000    0     1.008  -47.377796   -8.586235   18.426228
 100 H     1.0000    0     1.008  -44.627130   -6.761553   17.674306
 101 H     1.0000    0     1.008  -45.514564   -9.624583   22.626674
 102 H     1.0000    0     1.008  -45.767731   -6.320302   22.229926
 103 H     1.0000    0     1.008  -42.798858   -7.811070   21.882424

--------------------------------
INTERNAL COORDINATES (ANGSTROEM)
--------------------------------
 S      0   0   0     0.000000000000     0.00000000     0.00000000
 C      1   0   0     1.761901885832     0.00000000     0.00000000
 S      2   1   0     1.632622972061   123.55223799     0.00000000
 N      2   1   3     1.356295397249   111.14512638   179.35041496
 C      4   2   1     1.449844863529   122.61149255   179.05515961
 C      5   4   2     1.523432715088   111.18337081   276.95994368
 C      4   2   1     1.379863516222   116.58476932     0.69070577
 O      7   4   2     1.211910440668   123.65305155   180.03426042
 C      7   4   2     1.471986115526   110.57600866   359.70123160
 C      9   7   4     1.355581813798   118.69956337   179.14715624
 C     10   9   7     1.423523495380   132.18723522   180.58493124
 C     11  10   9     1.419555054410   125.28944983   357.44016372
 N     12  11  10     1.327709281168   126.96412039   359.19057377
 S     13  12  11     1.607544167294   109.59543518   180.26893876
 N     14  13  12     1.607026377319    97.74493745     0.03322075
 C     15  14  13     1.331783907584   109.41811979     0.00000000
 C     16  15  14     1.422640087092   127.45673945   179.87605799
 C     17  16  15     1.392718542312   115.77526632   180.57750350
 C     18  17  16     1.385452623116   123.13990456   359.69061964
 C     17  16  15     1.426767747428   122.13788178     0.76658602
 C     20  17  16     1.384899459203   128.43182643   359.39319352
 C     21  20  17     1.390163200599   112.34234993   179.94123060
 C     22  21  20     1.385921274604   113.11275792   359.54560831
 S     23  22  21     1.712549804327   112.62411538     0.44724388
 C     23  22  21     1.426851467708   110.91488647   179.38586927
 C     25  23  22     1.416071734659   106.95750732     0.38141806
 C     22  21  20     1.507378705734   136.68451020   182.14726001
 C     27  22  21     1.535793525608   112.16093191   300.36966506
 C     28  27  22     1.524480812408   112.44808575   306.78152030
 C     27  22  21     1.546801210046   107.01574645    63.23311666
 C     30  27  22     1.522669065588   115.99684899   173.85675604
 C     26  25  23     1.375745341079   119.90573638   182.42966443
 C     32  26  25     1.393669063049   117.61146912   358.66885014
 C     33  32  26     1.416183857026   122.34762593     1.69079312
 C     34  33  32     1.375103084354   120.07979772   358.31003756
 C     34  33  32     1.517463471784   110.93234242   179.17073442
 C     36  34  33     1.535247023023   112.30005242   124.27519779
 C     37  36  34     1.524379622437   112.42271705   300.85383946
 C     36  34  33     1.547263744938   111.90044348   250.91287538
 C     39  36  34     1.522615246738   115.90556371   296.79701229
 C     36  34  33     1.506857282094   100.81983142     4.41236565
 C     41  36  34     1.388321636005   110.47656502   355.47404481
 S     42  41  36     1.714896303600   112.72604914   181.25721853
 C     43  42  41     1.750497090572    90.17954139   359.95262383
 C     41  36  34     1.386748077374   136.57342241   177.48242337
 C     44  43  42     1.425562340622   120.28000148   180.91399169
 C     46  44  43     1.420860792407   120.88690689   359.22315459
 N     47  46  44     1.329897063611   126.55763311   359.33449609
 S     48  47  46     1.608760950359   108.95899342   179.93376862
 N     49  48  47     1.608669417314    98.03975487   359.96251585
 C     50  49  48     1.330856891217   109.13230682     0.03866315
 C     51  50  49     1.425736798852   126.98226580   180.04920632
 C     52  51  50     1.393920731606   115.54491498   180.28541090
 C     53  52  51     1.388322894467   123.00280457   359.60896052
 C     52  51  50     1.424622238560   116.82759440     0.65253142
 C     55  52  51     1.361243901217   133.41925935   179.95725444
 S     56  55  52     1.764423590950   117.72590728   180.60665798
 C     57  56  55     1.751412698424    92.44118377   180.06192767
 S     58  57  56     1.632655313071   124.52645094   179.82964620
 N     58  57  56     1.356058469757   109.84988041     0.32797919
 C     60  58  57     1.450570788655   121.81622654   181.03038540
 C     61  60  58     1.523281631643   111.23350164    83.36054650
 C     60  58  57     1.386400140436   118.05454288   359.47810191
 O     63  60  58     1.214575885567   121.37370142   179.96725832
 H      5   4   2     1.092326415043   106.50687325   156.54370399
 H      5   4   2     1.092440493803   107.98203284    38.20911775
 H      6   5   4     1.087274619358   110.26791272   300.25147083
 H      6   5   4     1.085641772824   109.57762557   180.46385556
 H      6   5   4     1.087154633205   110.25367030    60.82879624
 H     10   9   7     1.086512653999   113.00782019     0.03555072
 H     18  17  16     1.080349769149   118.25384508   179.75817562
 H     19  18  17     1.080026663282   118.50455655   180.06616893
 H     21  20  17     1.073977521785   121.68332084   359.56647741
 H     28  27  22     1.090463765377   109.01222776   185.81756688
 H     28  27  22     1.091929348813   108.63156739    68.10231834
 H     29  28  27     1.088080590122   110.61519045   301.56785487
 H     29  28  27     1.087417431624   110.10846620   181.70174428
 H     29  28  27     1.087704485097   110.82069805    61.84606957
 H     30  27  22     1.093275210640   107.86113046    51.75861689
 H     30  27  22     1.092465984139   107.29601714   296.14265279
 H     31  30  27     1.086310327715   111.02654840   295.45362476
 H     31  30  27     1.087931250631   109.15627228   176.50195107
 H     31  30  27     1.086592127249   111.47759616    57.30010322
 H     32  26  25     1.078623940074   122.58472307   178.38054745
 H     35  34  33     1.078851430457   122.58929686   181.88775587
 H     37  36  34     1.092072068226   108.69265399   179.45431310
 H     37  36  34     1.090436571516   109.06472863    61.85423063
 H     38  37  36     1.087601817441   110.83042479   298.74779391
 H     38  37  36     1.087465974318   110.13234143   178.80437677
 H     38  37  36     1.087877905374   110.57209603    58.91863564
 H     39  36  34     1.092484209771   107.44107035   174.48103282
 H     39  36  34     1.093159183056   107.81295254    58.79769844
 H     40  39  36     1.086636296835   111.48245389   302.18576167
 H     40  39  36     1.087898852513   109.20126402   182.94260780
 H     40  39  36     1.086346245448   110.96002824    63.97740190
 H     45  41  36     1.074535329805   124.56241839   357.87601124
 H     53  52  51     1.077165596461   118.61798578   179.76870177
 H     54  53  52     1.078405148077   117.78488292   180.24762931
 H     55  52  51     1.085380543312   112.04612261     0.23784265
 H     61  60  58     1.092329233610   107.95200377   322.03534735
 H     61  60  58     1.092538181163   106.50992391   203.74851234
 H     62  61  60     1.087388912487   110.30376889   298.94746239
 H     62  61  60     1.085939786590   109.50961673   179.34047938
 H     62  61  60     1.087601409709   110.29883019    59.60037047

---------------------------
INTERNAL COORDINATES (A.U.)
---------------------------
 S      0   0   0     0.000000000000     0.00000000     0.00000000
 C      1   0   0     3.329512039063     0.00000000     0.00000000
 S      2   1   0     3.085210297143   123.55223799     0.00000000
 N      2   1   3     2.563026857499   111.14512638   179.35041496
 C      4   2   1     2.739809728741   122.61149255   179.05515961
 C      5   4   2     2.878870614972   111.18337081   276.95994368
 C      4   2   1     2.607564147849   116.58476932     0.69070577
 O      7   4   2     2.290178831702   123.65305155   180.03426042
 C      7   4   2     2.781650631278   110.57600866   359.70123160
 C      9   7   4     2.561678380203   118.69956337   179.14715624
 C     10   9   7     2.690069551471   132.18723522   180.58493124
 C     11  10   9     2.682570284858   125.28944983   357.44016372
 N     12  11  10     2.509006926873   126.96412039   359.19057377
 S     13  12  11     3.037818224368   109.59543518   180.26893876
 N     14  13  12     3.036839743121    97.74493745     0.03322075
 C     15  14  13     2.516706854897   109.41811979     0.00000000
 C     16  15  14     2.688400151741   127.45673945   179.87605799
 C     17  16  15     2.631856626604   115.77526632   180.57750350
 C     18  17  16     2.618126029213   123.13990456   359.69061964
 C     17  16  15     2.696200299350   122.13788178     0.76658602
 C     20  17  16     2.617080700909   128.43182643   359.39319352
 C     21  20  17     2.627027730588   112.34234993   179.94123060
 C     22  21  20     2.619011652177   113.11275792   359.54560831
 S     23  22  21     3.236250120878   112.62411538     0.44724388
 C     23  22  21     2.696358507751   110.91488647   179.38586927
 C     25  23  22     2.675987764492   106.95750732     0.38141806
 C     22  21  20     2.848532933942   136.68451020   182.14726001
 C     27  22  21     2.902229161649   112.16093191   300.36966506
 C     28  27  22     2.880851231869   112.44808575   306.78152030
 C     27  22  21     2.923030670605   107.01574645    63.23311666
 C     30  27  22     2.877427526556   115.99684899   173.85675604
 C     26  25  23     2.599781924657   119.90573638   182.42966443
 C     32  26  25     2.633652850481   117.61146912   358.66885014
 C     33  32  26     2.676199645059   122.34762593     1.69079312
 C     34  33  32     2.598568235340   120.07979772   358.31003756
 C     34  33  32     2.867590379902   110.93234242   179.17073442
 C     36  34  33     2.901196421431   112.30005242   124.27519779
 C     37  36  34     2.880660010535   112.42271705   300.85383946
 C     36  34  33     2.923904734878   111.90044348   250.91287538
 C     39  36  34     2.877325823668   115.90556371   296.79701229
 C     36  34  33     2.847547586063   100.81983142     4.41236565
 C     41  36  34     2.623547677847   110.47656502   355.47404481
 S     42  41  36     3.240684361877   112.72604914   181.25721853
 C     43  42  41     3.307960099406    90.17954139   359.95262383
 C     41  36  34     2.620574082978   136.57342241   177.48242337
 C     44  43  42     2.693922410608   120.28000148   180.91399169
 C     46  44  43     2.685037772076   120.88690689   359.22315459
 N     47  46  44     2.513141236530   126.55763311   359.33449609
 S     48  47  46     3.040117611125   108.95899342   179.93376862
 N     49  48  47     3.039944638737    98.03975487   359.96251585
 C     50  49  48     2.514955047842   109.13230682     0.03866315
 C     51  50  49     2.694252088883   126.98226580   180.04920632
 C     52  51  50     2.634128435130   115.54491498   180.28541090
 C     53  52  51     2.623550055995   123.00280457   359.60896052
 C     52  51  50     2.692145875172   116.82759440     0.65253142
 C     55  52  51     2.572378174770   133.41925935   179.95725444
 S     56  55  52     3.334277371125   117.72590728   180.60665798
 C     57  56  55     3.309690347493    92.44118377   180.06192767
 S     58  57  56     3.085271412796   124.52645094   179.82964620
 N     58  57  56     2.562579129425   109.84988041     0.32797919
 C     60  58  57     2.741181528425   121.81622654   181.03038540
 C     61  60  58     2.878585108637   111.23350164    83.36054650
 C     60  58  57     2.619916577453   118.05454288   359.47810191
 O     63  60  58     2.295215792586   121.37370142   179.96725832
 H      5   4   2     2.064197773279   106.50687325   156.54370399
 H      5   4   2     2.064413350893   107.98203284    38.20911775
 H      6   5   4     2.054651262950   110.26791272   300.25147083
 H      6   5   4     2.051565630182   109.57762557   180.46385556
 H      6   5   4     2.054424521982   110.25367030    60.82879624
 H     10   9   7     2.053211357098   113.00782019     0.03555072
 H     18  17  16     2.041565192536   118.25384508   179.75817562
 H     19  18  17     2.040954610936   118.50455655   180.06616893
 H     21  20  17     2.029523390162   121.68332084   359.56647741
 H     28  27  22     2.060677875527   109.01222776   185.81756688
 H     28  27  22     2.063447426848   108.63156739    68.10231834
 H     29  28  27     2.056174326966   110.61519045   301.56785487
 H     29  28  27     2.054921139022   110.10846620   181.70174428
 H     29  28  27     2.055463591471   110.82069805    61.84606957
 H     30  27  22     2.065990737115   107.86113046    51.75861689
 H     30  27  22     2.064461520647   107.29601714   296.14265279
 H     31  30  27     2.052829015831   111.02654840   295.45362476
 H     31  30  27     2.055892116227   109.15627228   176.50195107
 H     31  30  27     2.053361539776   111.47759616    57.30010322
 H     32  26  25     2.038303848230   122.58472307   178.38054745
 H     35  34  33     2.038733742754   122.58929686   181.88775587
 H     37  36  34     2.063717127453   108.69265399   179.45431310
 H     37  36  34     2.060626486578   109.06472863    61.85423063
 H     38  37  36     2.055269577718   110.83042479   298.74779391
 H     38  37  36     2.055012871419   110.13234143   178.80437677
 H     38  37  36     2.055791308300   110.57209603    58.91863564
 H     39  36  34     2.064495962101   107.44107035   174.48103282
 H     39  36  34     2.065771476757   107.81295254    58.79769844
 H     40  39  36     2.053445008197   111.48245389   302.18576167
 H     40  39  36     2.055830892658   109.20126402   182.94260780
 H     40  39  36     2.052896890511   110.96002824    63.97740190
 H     45  41  36     2.030577494555   124.56241839   357.87601124
 H     53  52  51     2.035547978194   118.61798578   179.76870177
 H     54  53  52     2.037890391277   117.78488292   180.24762931
 H     55  52  51     2.051071977946   112.04612261     0.23784265
 H     61  60  58     2.064203099600   107.95200377   322.03534735
 H     61  60  58     2.064597953251   106.50992391   203.74851234
 H     62  61  60     2.054867245663   110.30376889   298.94746239
 H     62  61  60     2.052128794585   109.50961673   179.34047938
 H     62  61  60     2.055268807216   110.29883019    59.60037047

---------------------
BASIS SET INFORMATION
---------------------
There are 5 groups of distinct atoms

 Group   1 Type S   : 10s7p1d contracted to 4s3p1d pattern {5311/511/1}
 Group   2 Type C   : 7s4p1d contracted to 3s2p1d pattern {511/31/1}
 Group   3 Type N   : 7s4p1d contracted to 3s2p1d pattern {511/31/1}
 Group   4 Type O   : 7s4p1d contracted to 3s2p1d pattern {511/31/1}
 Group   5 Type H   : 4s1p contracted to 2s1p pattern {31/1}

Atom   0S    basis set group =>   1
Atom   1C    basis set group =>   2
Atom   2S    basis set group =>   1
Atom   3N    basis set group =>   3
Atom   4C    basis set group =>   2
Atom   5C    basis set group =>   2
Atom   6C    basis set group =>   2
Atom   7O    basis set group =>   4
Atom   8C    basis set group =>   2
Atom   9C    basis set group =>   2
Atom  10C    basis set group =>   2
Atom  11C    basis set group =>   2
Atom  12N    basis set group =>   3
Atom  13S    basis set group =>   1
Atom  14N    basis set group =>   3
Atom  15C    basis set group =>   2
Atom  16C    basis set group =>   2
Atom  17C    basis set group =>   2
Atom  18C    basis set group =>   2
Atom  19C    basis set group =>   2
Atom  20C    basis set group =>   2
Atom  21C    basis set group =>   2
Atom  22C    basis set group =>   2
Atom  23S    basis set group =>   1
Atom  24C    basis set group =>   2
Atom  25C    basis set group =>   2
Atom  26C    basis set group =>   2
Atom  27C    basis set group =>   2
Atom  28C    basis set group =>   2
Atom  29C    basis set group =>   2
Atom  30C    basis set group =>   2
Atom  31C    basis set group =>   2
Atom  32C    basis set group =>   2
Atom  33C    basis set group =>   2
Atom  34C    basis set group =>   2
Atom  35C    basis set group =>   2
Atom  36C    basis set group =>   2
Atom  37C    basis set group =>   2
Atom  38C    basis set group =>   2
Atom  39C    basis set group =>   2
Atom  40C    basis set group =>   2
Atom  41C    basis set group =>   2
Atom  42S    basis set group =>   1
Atom  43C    basis set group =>   2
Atom  44C    basis set group =>   2
Atom  45C    basis set group =>   2
Atom  46C    basis set group =>   2
Atom  47N    basis set group =>   3
Atom  48S    basis set group =>   1
Atom  49N    basis set group =>   3
Atom  50C    basis set group =>   2
Atom  51C    basis set group =>   2
Atom  52C    basis set group =>   2
Atom  53C    basis set group =>   2
Atom  54C    basis set group =>   2
Atom  55C    basis set group =>   2
Atom  56S    basis set group =>   1
Atom  57C    basis set group =>   2
Atom  58S    basis set group =>   1
Atom  59N    basis set group =>   3
Atom  60C    basis set group =>   2
Atom  61C    basis set group =>   2
Atom  62C    basis set group =>   2
Atom  63O    basis set group =>   4
Atom  64H    basis set group =>   5
Atom  65H    basis set group =>   5
Atom  66H    basis set group =>   5
Atom  67H    basis set group =>   5
Atom  68H    basis set group =>   5
Atom  69H    basis set group =>   5
Atom  70H    basis set group =>   5
Atom  71H    basis set group =>   5
Atom  72H    basis set group =>   5
Atom  73H    basis set group =>   5
Atom  74H    basis set group =>   5
Atom  75H    basis set group =>   5
Atom  76H    basis set group =>   5
Atom  77H    basis set group =>   5
Atom  78H    basis set group =>   5
Atom  79H    basis set group =>   5
Atom  80H    basis set group =>   5
Atom  81H    basis set group =>   5
Atom  82H    basis set group =>   5
Atom  83H    basis set group =>   5
Atom  84H    basis set group =>   5
Atom  85H    basis set group =>   5
Atom  86H    basis set group =>   5
Atom  87H    basis set group =>   5
Atom  88H    basis set group =>   5
Atom  89H    basis set group =>   5
Atom  90H    basis set group =>   5
Atom  91H    basis set group =>   5
Atom  92H    basis set group =>   5
Atom  93H    basis set group =>   5
Atom  94H    basis set group =>   5
Atom  95H    basis set group =>   5
Atom  96H    basis set group =>   5
Atom  97H    basis set group =>   5
Atom  98H    basis set group =>   5
Atom  99H    basis set group =>   5
Atom 100H    basis set group =>   5
Atom 101H    basis set group =>   5
Atom 102H    basis set group =>   5
Atom 103H    basis set group =>   5
---------------------------------
AUXILIARY/J BASIS SET INFORMATION
---------------------------------
There are 5 groups of distinct atoms

 Group   1 Type S   : 14s5p5d2f1g contracted to 8s4p3d1f1g pattern {71111111/2111/311/2/1}
 Group   2 Type C   : 12s5p4d2f1g contracted to 6s4p3d1f1g pattern {711111/2111/211/2/1}
 Group   3 Type N   : 12s5p4d2f1g contracted to 6s4p3d1f1g pattern {711111/2111/211/2/1}
 Group   4 Type O   : 12s5p4d2f1g contracted to 6s4p3d1f1g pattern {711111/2111/211/2/1}
 Group   5 Type H   : 5s2p1d contracted to 3s1p1d pattern {311/2/1}

Atom   0S    basis set group =>   1
Atom   1C    basis set group =>   2
Atom   2S    basis set group =>   1
Atom   3N    basis set group =>   3
Atom   4C    basis set group =>   2
Atom   5C    basis set group =>   2
Atom   6C    basis set group =>   2
Atom   7O    basis set group =>   4
Atom   8C    basis set group =>   2
Atom   9C    basis set group =>   2
Atom  10C    basis set group =>   2
Atom  11C    basis set group =>   2
Atom  12N    basis set group =>   3
Atom  13S    basis set group =>   1
Atom  14N    basis set group =>   3
Atom  15C    basis set group =>   2
Atom  16C    basis set group =>   2
Atom  17C    basis set group =>   2
Atom  18C    basis set group =>   2
Atom  19C    basis set group =>   2
Atom  20C    basis set group =>   2
Atom  21C    basis set group =>   2
Atom  22C    basis set group =>   2
Atom  23S    basis set group =>   1
Atom  24C    basis set group =>   2
Atom  25C    basis set group =>   2
Atom  26C    basis set group =>   2
Atom  27C    basis set group =>   2
Atom  28C    basis set group =>   2
Atom  29C    basis set group =>   2
Atom  30C    basis set group =>   2
Atom  31C    basis set group =>   2
Atom  32C    basis set group =>   2
Atom  33C    basis set group =>   2
Atom  34C    basis set group =>   2
Atom  35C    basis set group =>   2
Atom  36C    basis set group =>   2
Atom  37C    basis set group =>   2
Atom  38C    basis set group =>   2
Atom  39C    basis set group =>   2
Atom  40C    basis set group =>   2
Atom  41C    basis set group =>   2
Atom  42S    basis set group =>   1
Atom  43C    basis set group =>   2
Atom  44C    basis set group =>   2
Atom  45C    basis set group =>   2
Atom  46C    basis set group =>   2
Atom  47N    basis set group =>   3
Atom  48S    basis set group =>   1
Atom  49N    basis set group =>   3
Atom  50C    basis set group =>   2
Atom  51C    basis set group =>   2
Atom  52C    basis set group =>   2
Atom  53C    basis set group =>   2
Atom  54C    basis set group =>   2
Atom  55C    basis set group =>   2
Atom  56S    basis set group =>   1
Atom  57C    basis set group =>   2
Atom  58S    basis set group =>   1
Atom  59N    basis set group =>   3
Atom  60C    basis set group =>   2
Atom  61C    basis set group =>   2
Atom  62C    basis set group =>   2
Atom  63O    basis set group =>   4
Atom  64H    basis set group =>   5
Atom  65H    basis set group =>   5
Atom  66H    basis set group =>   5
Atom  67H    basis set group =>   5
Atom  68H    basis set group =>   5
Atom  69H    basis set group =>   5
Atom  70H    basis set group =>   5
Atom  71H    basis set group =>   5
Atom  72H    basis set group =>   5
Atom  73H    basis set group =>   5
Atom  74H    basis set group =>   5
Atom  75H    basis set group =>   5
Atom  76H    basis set group =>   5
Atom  77H    basis set group =>   5
Atom  78H    basis set group =>   5
Atom  79H    basis set group =>   5
Atom  80H    basis set group =>   5
Atom  81H    basis set group =>   5
Atom  82H    basis set group =>   5
Atom  83H    basis set group =>   5
Atom  84H    basis set group =>   5
Atom  85H    basis set group =>   5
Atom  86H    basis set group =>   5
Atom  87H    basis set group =>   5
Atom  88H    basis set group =>   5
Atom  89H    basis set group =>   5
Atom  90H    basis set group =>   5
Atom  91H    basis set group =>   5
Atom  92H    basis set group =>   5
Atom  93H    basis set group =>   5
Atom  94H    basis set group =>   5
Atom  95H    basis set group =>   5
Atom  96H    basis set group =>   5
Atom  97H    basis set group =>   5
Atom  98H    basis set group =>   5
Atom  99H    basis set group =>   5
Atom 100H    basis set group =>   5
Atom 101H    basis set group =>   5
Atom 102H    basis set group =>   5
Atom 103H    basis set group =>   5
------------------------------------------------------------------------------
                           ORCA GTO INTEGRAL CALCULATION
                           -- RI-GTO INTEGRALS CHOSEN --
------------------------------------------------------------------------------

                         BASIS SET STATISTICS AND STARTUP INFO

Gaussian basis set:
 # of primitive gaussian shells          ... 1016
 # of primitive gaussian functions       ... 1912
 # of contracted shells                  ...  520
 # of contracted basis functions         ... 1128
 Highest angular momentum                ...    2
 Maximum contraction depth               ...    5
Auxiliary gaussian basis set:
 # of primitive gaussian shells          ... 1880
 # of primitive gaussian functions       ... 5176
 # of contracted shells                  ... 1176
 # of contracted aux-basis functions     ... 3592
 Highest angular momentum                ...    4
 Maximum contraction depth               ...    7
Ratio of auxiliary to basis functions    ...  3.18
Integral package used                  ... LIBINT
 One Electron integrals                  ... done
 Ordering auxiliary basis shells         ... done
 Integral threshhold             Thresh  ...  2.500e-11
 Primitive cut-off               TCut    ...  2.500e-12
 Pre-screening matrix                    ... done
 Shell pair data                         ... 
 Ordering of the shell pairs             ... done (   0.011 sec) 45306 of 135460 pairs
 Determination of significant pairs      ... done (   0.000 sec)
 Creation of shell pair data             ... done (   0.007 sec)
 Storage of shell pair data              ... done (   0.011 sec)
 Shell pair data done in (   0.029 sec)
 Computing two index integrals           ... done
 Cholesky decomposition of the V-matrix  ... done


Timings:
 Total evaluation time                   ...   2.234 sec (  0.037 min)
 One electron matrix time                ...   0.629 sec (  0.010 min) = 28.2%
 Schwartz matrix evaluation time         ...   0.704 sec (  0.012 min) = 31.5%
 Two index repulsion integral time       ...   0.328 sec (  0.005 min) = 14.7%
 Cholesky decomposition of V             ...   0.525 sec (  0.009 min) = 23.5%
 Three index repulsion integral time     ...   0.000 sec (  0.000 min) =  0.0%

-------------------------------------------------------------------------------
                                 ORCA SCF
-------------------------------------------------------------------------------

------------
SCF SETTINGS
------------
Hamiltonian:
 Density Functional     Method          .... DFT(GTOs)
 Exchange Functional    Exchange        .... WB88
 Correlation Functional Correlation     .... LYP
 LDA part of GGA corr.  LDAOpt          .... VWN-5
 Gradients option       PostSCFGGA      .... off
 Hybrid DFT is turned on
   Fraction HF Exchange ScalHFX         ....  0.190000
   Scaling of DF-GGA-X  ScalDFX         ....  0.350000
   Scaling of DF-GGA-C  ScalDFC         ....  0.810000
   Scaling of DF-LDA-C  ScalLDAC        ....  1.000000
   Perturbative correction              ....  0.000000
   Density functional embedding theory  .... OFF
 Long-range corrected/Screened/Range-Separated Hybrid DFT is turned on
   Amount of maximum screened exact exchange              ....  0.460000
   Range separation parameter mu (erf(mu*r12)/r12)        ....  0.330000
 RI-approximation to the Coulomb term is turned on
   Number of auxiliary basis functions  .... 3592
   RIJ-COSX (HFX calculated with COS-X)).... on


General Settings:
 Integral files         IntName         .... O-IDTBR
 Hartree-Fock type      HFTyp           .... RHF
 Total Charge           Charge          ....    0
 Multiplicity           Mult            ....    1
 Number of Electrons    NEL             ....  514
 Basis Dimension        Dim             .... 1128
 Nuclear Repulsion      ENuc            ....  10018.5319708885 Eh

Convergence Acceleration:
 DIIS                   CNVDIIS         .... on
   Start iteration      DIISMaxIt       ....    12
   Startup error        DIISStart       ....  0.200000
   # of expansion vecs  DIISMaxEq       ....     5
   Bias factor          DIISBfac        ....   1.050
   Max. coefficient     DIISMaxC        ....  10.000
 Newton-Raphson         CNVNR           .... off
 SOSCF                  CNVSOSCF        .... on
   Start iteration      SOSCFMaxIt      ....   150
   Startup grad/error   SOSCFStart      ....  0.003300
 Level Shifting         CNVShift        .... on
   Level shift para.    LevelShift      ....    0.2500
   Turn off err/grad.   ShiftErr        ....    0.0010
 Zerner damping         CNVZerner       .... off
 Static damping         CNVDamp         .... on
   Fraction old density DampFac         ....    0.7000
   Max. Damping (<1)    DampMax         ....    0.9800
   Min. Damping (>=0)   DampMin         ....    0.0000
   Turn off err/grad.   DampErr         ....    0.1000
 Fernandez-Rico         CNVRico         .... off

SCF Procedure:
 Maximum # iterations   MaxIter         ....   125
 SCF integral mode      SCFMode         .... Direct
   Integral package                     .... LIBINT
 Reset frequency        DirectResetFreq ....    20
 Integral Threshold     Thresh          ....  2.500e-11 Eh
 Primitive CutOff       TCut            ....  2.500e-12 Eh

Convergence Tolerance:
 Convergence Check Mode ConvCheckMode   .... Total+1el-Energy
 Convergence forced     ConvForced      .... 1
 Energy Change          TolE            ....  1.000e-08 Eh
 1-El. energy change                    ....  1.000e-05 Eh
 Orbital Gradient       TolG            ....  1.000e-05
 Orbital Rotation angle TolX            ....  1.000e-05
 DIIS Error             TolErr          ....  5.000e-07


Diagonalization of the overlap matrix:
Smallest eigenvalue                        ... 1.594e-04
Time for diagonalization                   ...    0.413 sec
Threshold for overlap eigenvalues          ... 1.000e-08
Number of eigenvalues below threshold      ... 0
Time for construction of square roots      ...    0.131 sec
Total time needed                          ...    0.549 sec

-------------------
DFT GRID GENERATION
-------------------

General Integration Accuracy     IntAcc      ...  4.670
Radial Grid Type                 RadialGrid  ... Gauss-Chebyshev
Angular Grid (max. acc.)         AngularGrid ... Lebedev-302
Angular grid pruning method      GridPruning ... 3 (G Style)
Weight generation scheme         WeightScheme... Becke
Basis function cutoff            BFCut       ...    1.0000e-11
Integration weight cutoff        WCut        ...    1.0000e-14
Grids for H and He will be reduced by one unit

# of grid points (after initial pruning)     ... 538400 (   1.5 sec)
# of grid points (after weights+screening)   ... 459491 (  24.8 sec)
nearest neighbour list constructed           ...    0.0 sec
Grid point re-assignment to atoms done       ...    0.1 sec
Grid point division into batches done        ...    1.6 sec
Reduced shell lists constructed in    8.9 sec

Total number of grid points                  ...   459491
Total number of batches                      ...     7228
Average number of points per batch           ...       63
Average number of grid points per atom       ...     4418
Average number of shells per batch           ...    96.01 (18.46%)
Average number of basis functions per batch  ...   194.58 (17.25%)
Average number of large shells per batch     ...    58.77 (61.21%)
Average number of large basis fcns per batch ...   120.36 (61.85%)
Maximum spatial batch extension              ...  20.99, 23.71, 23.09 au
Average spatial batch extension              ...   2.10,  2.13,  2.28 au

Time for grid setup =   35.267 sec

------------------------------
INITIAL GUESS: MODEL POTENTIAL
------------------------------
Loading Hartree-Fock densities                     ... done
Calculating cut-offs                               ... done
Setting up the integral package                    ... done
Initializing the effective Hamiltonian             ... done
Starting the Coulomb interaction                   ... done (   8.8 sec)
Reading the grid                                   ... done
Mapping shells                                     ... done
Starting the XC term evaluation                    ... done (   8.8 sec)
  promolecular density results
     # of electrons  =    513.978737556
     EX              =   -512.615295425
     EC              =    -18.168802787
     EX+EC           =   -530.784098212
Transforming the Hamiltonian                       ... done (   0.1 sec)
Diagonalizing the Hamiltonian                      ... done (   0.3 sec)
Back transforming the eigenvectors                 ... done (   0.0 sec)
Now organizing SCF variables                       ... done
                      ------------------
                      INITIAL GUESS DONE (  53.7 sec)
                      ------------------
--------------------
COSX GRID GENERATION
--------------------

General Integration Accuracy     IntAcc      ...  3.340
Radial Grid Type                 RadialGrid  ... Gauss-Chebyshev
Angular Grid (max. acc.)         AngularGrid ... Lebedev-50
Angular grid pruning method      GridPruning ... 3 (G Style)
Weight generation scheme         WeightScheme... Becke
Basis function cutoff            BFCut       ...    1.0000e-11
Integration weight cutoff        WCut        ...    1.0000e-14
Grids for H and He will be reduced by one unit

# of grid points (after initial pruning)     ...  50844 (   0.1 sec)
# of grid points (after weights+screening)   ...  45356 (   2.4 sec)
nearest neighbour list constructed           ...    0.0 sec
Grid point re-assignment to atoms done       ...    0.0 sec
Grid point division into batches done        ...    0.0 sec
Reduced shell lists constructed in    0.9 sec

Total number of grid points                  ...    45356
Total number of batches                      ...      763
Average number of points per batch           ...       59
Average number of grid points per atom       ...      436
Average number of shells per batch           ...   116.54 (22.41%)
Average number of basis functions per batch  ...   238.99 (21.19%)
Average number of large shells per batch     ...    71.79 (61.60%)
Average number of large basis fcns per batch ...   149.59 (62.59%)
Maximum spatial batch extension              ...  16.79, 18.46, 28.97 au
Average spatial batch extension              ...   4.20,  4.16,  5.08 au

Overlap Fitting                  UseSFitting ... on
Constructing numerical overlap ... done (      0.6 sec)
Inverting numerical overlap    ... done (      0.0 sec)
Obtaining analytic overlap     ... done (      0.0 sec)
Final contraction and storage  ... done (      0.1 sec)


General Integration Accuracy     IntAcc      ...  3.670
Radial Grid Type                 RadialGrid  ... Gauss-Chebyshev
Angular Grid (max. acc.)         AngularGrid ... Lebedev-50
Angular grid pruning method      GridPruning ... 3 (G Style)
Weight generation scheme         WeightScheme... Becke
Basis function cutoff            BFCut       ...    1.0000e-11
Integration weight cutoff        WCut        ...    1.0000e-14
Grids for H and He will be reduced by one unit

# of grid points (after initial pruning)     ...  63984 (   0.1 sec)
# of grid points (after weights+screening)   ...  56837 (   3.0 sec)
nearest neighbour list constructed           ...    0.0 sec
Grid point re-assignment to atoms done       ...    0.0 sec
Grid point division into batches done        ...    0.0 sec
Reduced shell lists constructed in    1.0 sec

Total number of grid points                  ...    56837
Total number of batches                      ...      938
Average number of points per batch           ...       60
Average number of grid points per atom       ...      547
Average number of shells per batch           ...   113.56 (21.84%)
Average number of basis functions per batch  ...   232.50 (20.61%)
Average number of large shells per batch     ...    69.83 (61.49%)
Average number of large basis fcns per batch ...   145.14 (62.43%)
Maximum spatial batch extension              ...  18.48, 17.55, 33.99 au
Average spatial batch extension              ...   3.93,  3.86,  4.70 au

Overlap Fitting                  UseSFitting ... on
Constructing numerical overlap ... done (      0.7 sec)
Inverting numerical overlap    ... done (      0.0 sec)
Obtaining analytic overlap     ... done (      0.0 sec)
Final contraction and storage  ... done (      0.1 sec)


General Integration Accuracy     IntAcc      ...  4.010
Radial Grid Type                 RadialGrid  ... Gauss-Chebyshev
Angular Grid (max. acc.)         AngularGrid ... Lebedev-110
Angular grid pruning method      GridPruning ... 3 (G Style)
Weight generation scheme         WeightScheme... Becke
Basis function cutoff            BFCut       ...    1.0000e-11
Integration weight cutoff        WCut        ...    1.0000e-14
Grids for H and He will be reduced by one unit

# of grid points (after initial pruning)     ... 121892 (   0.2 sec)
# of grid points (after weights+screening)   ... 107265 (   5.7 sec)
nearest neighbour list constructed           ...    0.0 sec
Grid point re-assignment to atoms done       ...    0.0 sec
Grid point division into batches done        ...    0.1 sec
Reduced shell lists constructed in    2.0 sec

Total number of grid points                  ...   107265
Total number of batches                      ...     1730
Average number of points per batch           ...       62
Average number of grid points per atom       ...     1031
Average number of shells per batch           ...   108.15 (20.80%)
Average number of basis functions per batch  ...   220.98 (19.59%)
Average number of large shells per batch     ...    66.72 (61.70%)
Average number of large basis fcns per batch ...   138.16 (62.52%)
Maximum spatial batch extension              ...  20.96, 20.30, 32.78 au
Average spatial batch extension              ...   3.34,  3.34,  3.84 au

Overlap Fitting                  UseSFitting ... on
Constructing numerical overlap ... done (      1.3 sec)
Inverting numerical overlap    ... done (      0.0 sec)
Obtaining analytic overlap     ... done (      0.0 sec)
Final contraction and storage  ... done (      0.1 sec)

Time for X-Grid setup             =   18.403 sec
--------------
SCF ITERATIONS
--------------
ITER       Energy         Delta-E        Max-DP      RMS-DP      [F,P]     Damp
               ***  Starting incremental Fock matrix formation  ***
  0  -5512.3805809350   0.000000000000 0.09915913  0.00100211  0.2398325 0.7000
  1  -5513.0226240674  -0.642043132448 0.05878702  0.00069643  0.1033871 0.7000
                               ***Turning on DIIS***
  2  -5513.3019432420  -0.279319174548 0.11720203  0.00122912  0.0411972 0.0000
  3  -5513.7156597725  -0.413716530476 0.07740217  0.00054814  0.0598729 0.0000
  4  -5513.8217275284  -0.106067755898 0.01201789  0.00014448  0.0103495 0.0000
  5  -5513.8265696892  -0.004842160795 0.00838173  0.00006715  0.0125386 0.0000
                      *** Initiating the SOSCF procedure ***
                           *** Shutting down DIIS ***
                      *** Re-Reading the Fockian *** 
                      *** Removing any level shift *** 
ITER      Energy       Delta-E        Grad      Rot      Max-DP    RMS-DP
  6  -5513.82790238  -0.0013326928  0.001706  0.001706  0.003609  0.000035
               *** Restarting incremental Fock matrix formation ***
  7  -5513.82817557  -0.0002731880  0.001157  0.007992  0.002546  0.000034
  8  -5513.82839701  -0.0002214434  0.000694  0.007248  0.002786  0.000040
  9  -5513.82843294  -0.0000359226  0.000480  0.002818  0.001648  0.000016
 10  -5513.82847367  -0.0000407315  0.000139  0.000947  0.000754  0.000007
 11  -5513.82847305   0.0000006171  0.000181  0.000636  0.000465  0.000004
 12  -5513.82847652  -0.0000034724  0.000037  0.000090  0.000186  0.000001
 13  -5513.82847646   0.0000000677  0.000049  0.000068  0.000120  0.000001
 14  -5513.82847666  -0.0000002015  0.000005  0.000025  0.000028  0.000000
 15  -5513.82847663   0.0000000256  0.000005  0.000010  0.000013  0.000000
                  ***Gradient check signals convergence***
              ***Rediagonalizing the Fockian in SOSCF/NRSCF***

               *****************************************************
               *                     SUCCESS                       *
               *           SCF CONVERGED AFTER  16 CYCLES          *
               *****************************************************

Setting up the final grid:

General Integration Accuracy     IntAcc      ...  5.010
Radial Grid Type                 RadialGrid  ... Gauss-Chebyshev
Angular Grid (max. acc.)         AngularGrid ... Lebedev-434
Angular grid pruning method      GridPruning ... 3 (G Style)
Weight generation scheme         WeightScheme... Becke
Basis function cutoff            BFCut       ...    1.0000e-11
Integration weight cutoff        WCut        ...    1.0000e-14
Grids for H and He will be reduced by one unit

# of grid points (after initial pruning)     ... 960328 (   1.6 sec)
# of grid points (after weights+screening)   ... 816974 (  44.7 sec)
nearest neighbour list constructed           ...    0.0 sec
Grid point re-assignment to atoms done       ...    0.1 sec
Grid point division into batches done        ...    5.5 sec
Reduced shell lists constructed in   16.3 sec

Total number of grid points                  ...   816974
Total number of batches                      ...    12819
Average number of points per batch           ...       63
Average number of grid points per atom       ...     7856
Average number of shells per batch           ...    92.66 (17.82%)
Average number of basis functions per batch  ...   187.16 (16.59%)
Average number of large shells per batch     ...    56.59 (61.07%)
Average number of large basis fcns per batch ...   115.40 (61.66%)
Maximum spatial batch extension              ...  22.19, 21.50, 25.83 au
Average spatial batch extension              ...   1.71,  1.72,  1.84 au

Final grid set up in   62.7 sec
Final integration                            ... done (  20.4 sec)
Change in XC energy                          ...    -0.000127955
Integrated number of electrons               ...   513.999875957
Previous integrated no of electrons          ...   513.998984344
Old exchange energy                            =   -139.135214853 Eh
New exchange energy                            =   -139.131938037 Eh
Exchange energy change after final integration =      0.003276816 Eh
Total energy after final integration           =  -5513.825327793 Eh
Final COS-X integration done in                =   379.574 sec

----------------
TOTAL SCF ENERGY
----------------

Total Energy       :        -5513.82532779 Eh         -150038.81500 eV

Components:
Nuclear Repulsion  :        10018.53197089 Eh          272618.11457 eV
Electronic Energy  :       -15532.35729868 Eh         -422656.92956 eV
One Electron Energy:       -27520.45383743 Eh         -748869.62071 eV
Two Electron Energy:        11988.09653875 Eh          326212.69115 eV

Virial components:
Potential Energy   :       -10997.88949640 Eh         -299267.78768 eV
Kinetic Energy     :         5484.06416861 Eh          149228.97268 eV
Virial Ratio       :            2.00542684


DFT components:
N(Alpha)           :      256.999937978341 electrons
N(Beta)            :      256.999937978341 electrons
N(Total)           :      513.999875956681 electrons
E(XC)              :     -399.735077035195 Eh       
DFET-embed. en.    :        0.000000000000 Eh       

---------------
SCF CONVERGENCE
---------------

  Last Energy change         ...   -2.2865e-08  Tolerance :   1.0000e-08
  Last MAX-Density change    ...    7.9936e-15  Tolerance :   1.0000e-07
  Last RMS-Density change    ...    3.6427e-17  Tolerance :   5.0000e-09
  Last Orbital Gradient      ...    9.6753e-07  Tolerance :   1.0000e-05
  Last Orbital Rotation      ...    8.0547e-06  Tolerance :   1.0000e-05

             **** THE GBW FILE WAS UPDATED (O-IDTBR.gbw) ****
             **** DENSITY FILE WAS UPDATED (O-IDTBR.scfp) ****
             **** ENERGY FILE WAS UPDATED (O-IDTBR.en.tmp) ****
             **** THE GBW FILE WAS UPDATED (O-IDTBR.gbw) ****
             **** DENSITY FILE WAS UPDATED (O-IDTBR.scfp) ****
----------------
ORBITAL ENERGIES
----------------

  NO   OCC          E(Eh)            E(eV) 
   0   2.0000     -89.032715     -2422.7034 
   1   2.0000     -89.028325     -2422.5839 
   2   2.0000     -88.961345     -2420.7613 
   3   2.0000     -88.957049     -2420.6444 
   4   2.0000     -88.955344     -2420.5980 
   5   2.0000     -88.948943     -2420.4238 
   6   2.0000     -88.880337     -2418.5569 
   7   2.0000     -88.874028     -2418.3853 
   8   2.0000     -19.212297      -522.7932 
   9   2.0000     -19.200188      -522.4637 
  10   2.0000     -14.472571      -393.8187 
  11   2.0000     -14.464012      -393.5858 
  12   2.0000     -14.447595      -393.1390 
  13   2.0000     -14.446985      -393.1225 
  14   2.0000     -14.444499      -393.0548 
  15   2.0000     -14.441727      -392.9794 
  16   2.0000     -10.398747      -282.9643 
  17   2.0000     -10.385622      -282.6071 
  18   2.0000     -10.377120      -282.3758 
  19   2.0000     -10.363055      -281.9931 
  20   2.0000     -10.333473      -281.1881 
  21   2.0000     -10.332541      -281.1627 
  22   2.0000     -10.327004      -281.0121 
  23   2.0000     -10.326659      -281.0027 
  24   2.0000     -10.316809      -280.7346 
  25   2.0000     -10.310605      -280.5658 
  26   2.0000     -10.309310      -280.5306 
  27   2.0000     -10.309061      -280.5238 
  28   2.0000     -10.307407      -280.4788 
  29   2.0000     -10.305860      -280.4367 
  30   2.0000     -10.305116      -280.4165 
  31   2.0000     -10.302916      -280.3566 
  32   2.0000     -10.300223      -280.2833 
  33   2.0000     -10.297623      -280.2126 
  34   2.0000     -10.297078      -280.1977 
  35   2.0000     -10.296368      -280.1784 
  36   2.0000     -10.295803      -280.1631 
  37   2.0000     -10.294723      -280.1337 
  38   2.0000     -10.290931      -280.0305 
  39   2.0000     -10.289326      -279.9868 
  40   2.0000     -10.286293      -279.9042 
  41   2.0000     -10.286256      -279.9033 
  42   2.0000     -10.285946      -279.8948 
  43   2.0000     -10.284084      -279.8442 
  44   2.0000     -10.283940      -279.8402 
  45   2.0000     -10.283165      -279.8191 
  46   2.0000     -10.280824      -279.7554 
  47   2.0000     -10.277713      -279.6708 
  48   2.0000     -10.277486      -279.6646 
  49   2.0000     -10.276964      -279.6504 
  50   2.0000     -10.276541      -279.6389 
  51   2.0000     -10.275188      -279.6021 
  52   2.0000     -10.269442      -279.4457 
  53   2.0000     -10.268742      -279.4267 
  54   2.0000     -10.268516      -279.4205 
  55   2.0000     -10.267836      -279.4020 
  56   2.0000     -10.267526      -279.3936 
  57   2.0000     -10.266728      -279.3719 
  58   2.0000     -10.256018      -279.0804 
  59   2.0000     -10.255873      -279.0765 
  60   2.0000     -10.254973      -279.0520 
  61   2.0000     -10.250996      -278.9438 
  62   2.0000     -10.250746      -278.9370 
  63   2.0000     -10.249879      -278.9134 
  64   2.0000      -8.124353      -221.0749 
  65   2.0000      -8.120026      -220.9571 
  66   2.0000      -8.056297      -219.2230 
  67   2.0000      -8.052451      -219.1183 
  68   2.0000      -8.050909      -219.0764 
  69   2.0000      -8.043888      -218.8853 
  70   2.0000      -7.977490      -217.0785 
  71   2.0000      -7.971278      -216.9095 
  72   2.0000      -6.095653      -165.8711 
  73   2.0000      -6.091301      -165.7527 
  74   2.0000      -6.087870      -165.6594 
  75   2.0000      -6.086598      -165.6247 
  76   2.0000      -6.083607      -165.5434 
  77   2.0000      -6.082234      -165.5060 
  78   2.0000      -6.025581      -163.9644 
  79   2.0000      -6.022250      -163.8738 
  80   2.0000      -6.021610      -163.8563 
  81   2.0000      -6.020296      -163.8206 
  82   2.0000      -6.018408      -163.7692 
  83   2.0000      -6.018295      -163.7661 
  84   2.0000      -6.015947      -163.7022 
  85   2.0000      -6.013933      -163.6474 
  86   2.0000      -6.013148      -163.6261 
  87   2.0000      -6.012797      -163.6165 
  88   2.0000      -6.009477      -163.5262 
  89   2.0000      -6.004347      -163.3866 
  90   2.0000      -5.947392      -161.8368 
  91   2.0000      -5.943808      -161.7392 
  92   2.0000      -5.941121      -161.6661 
  93   2.0000      -5.937688      -161.5727 
  94   2.0000      -5.937643      -161.5715 
  95   2.0000      -5.931364      -161.4006 
  96   2.0000      -1.154981       -31.4286 
  97   2.0000      -1.143719       -31.1222 
  98   2.0000      -1.133679       -30.8490 
  99   2.0000      -1.129142       -30.7255 
 100   2.0000      -1.077591       -29.3227 
 101   2.0000      -1.068544       -29.0766 
 102   2.0000      -1.008993       -27.4561 
 103   2.0000      -1.001518       -27.2527 
 104   2.0000      -0.990150       -26.9433 
 105   2.0000      -0.985930       -26.8285 
 106   2.0000      -0.976088       -26.5607 
 107   2.0000      -0.970548       -26.4100 
 108   2.0000      -0.953318       -25.9411 
 109   2.0000      -0.943480       -25.6734 
 110   2.0000      -0.936800       -25.4916 
 111   2.0000      -0.932637       -25.3783 
 112   2.0000      -0.906308       -24.6619 
 113   2.0000      -0.894515       -24.3410 
 114   2.0000      -0.891814       -24.2675 
 115   2.0000      -0.879503       -23.9325 
 116   2.0000      -0.869106       -23.6496 
 117   2.0000      -0.868042       -23.6206 
 118   2.0000      -0.862671       -23.4745 
 119   2.0000      -0.861075       -23.4311 
 120   2.0000      -0.847946       -23.0738 
 121   2.0000      -0.841375       -22.8950 
 122   2.0000      -0.840422       -22.8690 
 123   2.0000      -0.839512       -22.8443 
 124   2.0000      -0.836905       -22.7733 
 125   2.0000      -0.833196       -22.6724 
 126   2.0000      -0.829628       -22.5753 
 127   2.0000      -0.826463       -22.4892 
 128   2.0000      -0.811047       -22.0697 
 129   2.0000      -0.800899       -21.7936 
 130   2.0000      -0.771227       -20.9862 
 131   2.0000      -0.768625       -20.9153 
 132   2.0000      -0.757373       -20.6092 
 133   2.0000      -0.756321       -20.5805 
 134   2.0000      -0.746270       -20.3070 
 135   2.0000      -0.740680       -20.1549 
 136   2.0000      -0.736371       -20.0377 
 137   2.0000      -0.726156       -19.7597 
 138   2.0000      -0.719780       -19.5862 
 139   2.0000      -0.716861       -19.5068 
 140   2.0000      -0.712751       -19.3949 
 141   2.0000      -0.711036       -19.3483 
 142   2.0000      -0.702044       -19.1036 
 143   2.0000      -0.700211       -19.0537 
 144   2.0000      -0.694808       -18.9067 
 145   2.0000      -0.693249       -18.8643 
 146   2.0000      -0.686019       -18.6675 
 147   2.0000      -0.670077       -18.2337 
 148   2.0000      -0.658836       -17.9278 
 149   2.0000      -0.655685       -17.8421 
 150   2.0000      -0.644547       -17.5390 
 151   2.0000      -0.638613       -17.3775 
 152   2.0000      -0.631216       -17.1763 
 153   2.0000      -0.624668       -16.9981 
 154   2.0000      -0.619939       -16.8694 
 155   2.0000      -0.611193       -16.6314 
 156   2.0000      -0.605591       -16.4790 
 157   2.0000      -0.601985       -16.3808 
 158   2.0000      -0.594020       -16.1641 
 159   2.0000      -0.591210       -16.0877 
 160   2.0000      -0.585862       -15.9421 
 161   2.0000      -0.579481       -15.7685 
 162   2.0000      -0.574307       -15.6277 
 163   2.0000      -0.572258       -15.5719 
 164   2.0000      -0.565724       -15.3941 
 165   2.0000      -0.561430       -15.2773 
 166   2.0000      -0.557765       -15.1775 
 167   2.0000      -0.557061       -15.1584 
 168   2.0000      -0.554156       -15.0794 
 169   2.0000      -0.553200       -15.0533 
 170   2.0000      -0.551763       -15.0142 
 171   2.0000      -0.547773       -14.9057 
 172   2.0000      -0.546300       -14.8656 
 173   2.0000      -0.541598       -14.7376 
 174   2.0000      -0.539417       -14.6783 
 175   2.0000      -0.534487       -14.5441 
 176   2.0000      -0.532537       -14.4911 
 177   2.0000      -0.530578       -14.4378 
 178   2.0000      -0.525443       -14.2980 
 179   2.0000      -0.524504       -14.2725 
 180   2.0000      -0.522351       -14.2139 
 181   2.0000      -0.519545       -14.1375 
 182   2.0000      -0.513909       -13.9842 
 183   2.0000      -0.511743       -13.9252 
 184   2.0000      -0.505408       -13.7528 
 185   2.0000      -0.503578       -13.7031 
 186   2.0000      -0.498592       -13.5674 
 187   2.0000      -0.495214       -13.4754 
 188   2.0000      -0.492747       -13.4083 
 189   2.0000      -0.485713       -13.2169 
 190   2.0000      -0.483664       -13.1612 
 191   2.0000      -0.480145       -13.0654 
 192   2.0000      -0.478967       -13.0334 
 193   2.0000      -0.477494       -12.9933 
 194   2.0000      -0.476077       -12.9547 
 195   2.0000      -0.473654       -12.8888 
 196   2.0000      -0.472529       -12.8582 
 197   2.0000      -0.470170       -12.7940 
 198   2.0000      -0.468542       -12.7497 
 199   2.0000      -0.466305       -12.6888 
 200   2.0000      -0.462533       -12.5862 
 201   2.0000      -0.461197       -12.5498 
 202   2.0000      -0.457925       -12.4608 
 203   2.0000      -0.456617       -12.4252 
 204   2.0000      -0.455756       -12.4017 
 205   2.0000      -0.453418       -12.3381 
 206   2.0000      -0.451275       -12.2798 
 207   2.0000      -0.449832       -12.2406 
 208   2.0000      -0.448854       -12.2139 
 209   2.0000      -0.447926       -12.1887 
 210   2.0000      -0.444497       -12.0954 
 211   2.0000      -0.442330       -12.0364 
 212   2.0000      -0.441754       -12.0207 
 213   2.0000      -0.439076       -11.9479 
 214   2.0000      -0.437877       -11.9152 
 215   2.0000      -0.436272       -11.8716 
 216   2.0000      -0.435974       -11.8634 
 217   2.0000      -0.434446       -11.8219 
 218   2.0000      -0.432436       -11.7672 
 219   2.0000      -0.430003       -11.7010 
 220   2.0000      -0.428403       -11.6574 
 221   2.0000      -0.425232       -11.5712 
 222   2.0000      -0.420630       -11.4459 
 223   2.0000      -0.419324       -11.4104 
 224   2.0000      -0.417057       -11.3487 
 225   2.0000      -0.416594       -11.3361 
 226   2.0000      -0.414987       -11.2924 
 227   2.0000      -0.403568       -10.9816 
 228   2.0000      -0.401220       -10.9177 
 229   2.0000      -0.399226       -10.8635 
 230   2.0000      -0.395453       -10.7608 
 231   2.0000      -0.394780       -10.7425 
 232   2.0000      -0.392727       -10.6866 
 233   2.0000      -0.391764       -10.6604 
 234   2.0000      -0.388135       -10.5617 
 235   2.0000      -0.386115       -10.5067 
 236   2.0000      -0.383351       -10.4315 
 237   2.0000      -0.372445       -10.1347 
 238   2.0000      -0.362011        -9.8508 
 239   2.0000      -0.361223        -9.8294 
 240   2.0000      -0.353378        -9.6159 
 241   2.0000      -0.350046        -9.5252 
 242   2.0000      -0.348681        -9.4881 
 243   2.0000      -0.343695        -9.3524 
 244   2.0000      -0.337987        -9.1971 
 245   2.0000      -0.334605        -9.1051 
 246   2.0000      -0.324032        -8.8174 
 247   2.0000      -0.322697        -8.7810 
 248   2.0000      -0.316986        -8.6256 
 249   2.0000      -0.314685        -8.5630 
 250   2.0000      -0.310114        -8.4386 
 251   2.0000      -0.295214        -8.0332 
 252   2.0000      -0.284761        -7.7487 
 253   2.0000      -0.277243        -7.5442 
 254   2.0000      -0.276589        -7.5264 
 255   2.0000      -0.253598        -6.9007 
 256   2.0000      -0.229502        -6.2451 
[...]
   0.532   0.493   0.478   0.638   0.625   0.659   0.677   0.665   0.661   0.647
   0.660   0.658   0.663   0.602   0.601   0.626   0.635   0.664   0.677   0.659
   0.648   0.660   0.663   0.657   0.660   0.423   0.513   0.537   0.567   0.594
   0.582   0.676   0.637   0.668

Number of electrons in sTDA:  186.000

ax(DF)   :  0.3800
s^k      :  2.0000
beta  (J):  1.8600
alpha (K):  0.9000

hardness table read
setting up gammas ...
computing q(ij,n)
memory needed for q data:             8.7 MB 
memory available for q data:       2482.7 MB 

CSF included by energy:           31 
CSF considered in PT2:          7223 

ordered frontier orbitals
           eV         # centers 
  82      -8.817       7.9
  83      -8.781      17.5
  84      -8.626      20.0
  85      -8.563       9.4
  86      -8.439      11.3
  87      -8.033      14.5
  88      -7.749       1.4
  89      -7.544       1.5
  90      -7.526      15.4
  91      -6.901      25.6
  92      -6.245      25.0

  93      -2.520      32.2
  94      -2.261      28.2
  95      -1.010      11.2
  96      -0.831      11.1
  97      -0.683      27.3
  98       0.139      31.1
  99       0.456      13.6
 100       0.589       8.2
 101       0.737      18.7
 102       1.051       8.2
 103       1.217      13.8

           eV        nm       excitation i->a                     eV 
   0      2.23     556.0    92 ->  93      gap,J,K:    3.725     1.828     0.166
   1      2.62     473.2    92 ->  94      gap,J,K:    3.984     1.786     0.211
   2      3.12     397.0    91 ->  93      gap,J,K:    4.381     1.741     0.241
   3      3.35     369.8    91 ->  94      gap,J,K:    4.639     1.754     0.234
   4      3.73     332.3    90 ->  93      gap,J,K:    5.006     1.612     0.169
   5      3.81     325.6    89 ->  93      gap,J,K:    5.024     1.228     0.006
   6      3.85     322.0    92 ->  95      gap,J,K:    5.235     1.542     0.079
   7      3.89     318.9    89 ->  94      gap,J,K:    5.283     1.406     0.005
   8      3.91     317.2    92 ->  96      gap,J,K:    5.414     1.648     0.071
   9      3.95     314.3    88 ->  93      gap,J,K:    5.229     1.285     0.001
  10      3.97     312.0    90 ->  94      gap,J,K:    5.265     1.613     0.161
  11      4.05     306.2    92 ->  97      gap,J,K:    5.562     2.032     0.259
  12      4.23     293.3    87 ->  93      gap,J,K:    5.513     1.589     0.152
  13      4.32     287.2    88 ->  94      gap,J,K:    5.487     1.171     0.000
  14      4.39     282.4    88 ->  95      gap,J,K:    6.739     2.351     0.001
  15      4.41     281.2    89 ->  96      gap,J,K:    6.714     2.314     0.004
  16      4.42     280.3    85 ->  93      gap,J,K:    6.043     1.835     0.108
  17      4.47     277.3    87 ->  94      gap,J,K:    5.772     1.586     0.143
  18      4.55     272.6    91 ->  96      gap,J,K:    6.070     1.797     0.138
  19      4.56     271.7    91 ->  95      gap,J,K:    5.891     1.591     0.132
  20      4.61     269.0    84 ->  93      gap,J,K:    6.106     1.728     0.116
  21      4.70     264.0    82 ->  93      gap,J,K:    6.297     1.788     0.094
  22      4.71     263.1    86 ->  93      gap,J,K:    5.919     1.470     0.132
  23      4.72     262.9    85 ->  94      gap,J,K:    6.302     1.685     0.050
  24      4.79     258.9    91 ->  97      gap,J,K:    6.217     1.725     0.148

average / max PT2 energy lowering (eV):       0.038       0.069

CSF included by PT:                   206 
total number of CSF included:         237 
 
sTD-DFT procedure...
setting up A+B and A-B matrices...  done
estimated time (min):    0.001
calculating (A-B)^0.5 ... done
calculating (A+B)*(A-B)^0.5 ... done
calculating (A-B)^0.5 *(A+B)*(A-B)^0.5 ... done
diagonalizing ...using LAPACKE_ssyevr ...done

   34 roots found, lowest/highest eigenvalue :     1.943     4.910

excitation energies, transition moments and amplitudes

molecular weight:  989.368
state   eV        nm        fL         fV        Rl        RV
   0   1.943     638.0   2.518248   3.165084  35.308667  32.306749     0.86 (  92->  93)    0.11 (  91->  94)    0.00 (  87->  94)
   1   2.262     548.0   0.008520   0.007781  -22.529357  -23.684758     0.76 (  92->  94)    0.19 (  91->  93)    0.01 (  91->  97)
   2   2.898     427.9   0.002901   0.001637  -19.441379  -17.787497     0.53 (  91->  93)    0.16 (  92->  94)    0.15 (  90->  94)
   3   2.979     416.2   0.000184   0.000215   6.216072   7.030242     0.41 (  89->  93)    0.41 (  89->  94)    0.06 (  89->  96)
   4   3.068     404.1   0.018884   0.025414   5.785386   2.062177     0.40 (  91->  94)    0.30 (  90->  93)    0.11 (  91->  93)
   5   3.168     391.3   0.000215   0.000154  -5.885401  -4.923942     0.45 (  88->  93)    0.29 (  88->  94)    0.21 (  88->  95)
   6   3.389     365.9   0.724741   0.657307  64.166532  60.600269     0.47 (  92->  95)    0.21 (  91->  95)    0.10 (  92->  96)
   7   3.435     361.0   0.320482   0.291502  -34.473737  -31.408000     0.42 (  92->  96)    0.19 (  91->  96)    0.14 (  92->  95)
   8   3.549     349.4   0.031398   0.041575   0.411974   0.363791     0.30 (  91->  94)    0.20 (  90->  93)    0.15 (  87->  94)
   9   3.603     344.2   0.004730   0.006755  -43.588996  -37.384584     0.39 (  87->  93)    0.30 (  90->  94)    0.06 (  91->  93)
  10   3.839     323.0   0.103291   0.109870  -5.773349  -7.255111     0.71 (  92->  97)    0.04 (  90->  93)    0.04 (  91->  96)
  11   3.974     312.0   0.012487   0.009673   2.419364   2.298323     0.48 (  85->  93)    0.18 (  85->  94)    0.08 (  84->  93)
  12   4.060     305.4   0.014683   0.011669  -17.607823  -13.935736     0.40 (  89->  96)    0.09 (  86->  93)    0.09 (  86->  94)
  13   4.079     304.0   0.037878   0.031825  18.130464  14.451384     0.26 (  86->  93)    0.21 (  86->  94)    0.17 (  89->  96)
  14   4.115     301.3   0.007698   0.005135  -3.728925  -3.301217     0.35 (  84->  93)    0.12 (  85->  93)    0.10 (  82->  94)
  15   4.174     297.0   0.003060   0.001679  -1.394814  -1.002712     0.15 (  82->  93)    0.14 (  87->  93)    0.11 (  84->  94)
  16   4.240     292.4   0.027934   0.019625   0.521236  -0.279816     0.33 (  82->  93)    0.14 (  92-> 100)    0.10 (  83->  94)
  17   4.311     287.6   0.002554   0.001317  11.257533   7.976506     0.21 (  83->  93)    0.12 (  88->  95)    0.09 (  90->  94)
  18   4.327     286.5   0.002588   0.001555  -11.191278  -8.995897     0.40 (  88->  95)    0.19 (  88->  93)    0.10 (  88->  99)
  19   4.390     282.4   0.085269   0.071287  -27.178964  -23.563442     0.26 (  81->  93)    0.15 (  87->  94)    0.11 (  90->  93)
  20   4.426     280.1   0.045795   0.035401  24.508469  25.867865     0.14 (  91->  97)    0.13 (  90->  94)    0.10 (  91->  96)
  21   4.438     279.4   0.027555   0.022597  -12.967535  -13.216818     0.29 (  91->  95)    0.24 (  90->  95)    0.22 (  92->  95)
  22   4.464     277.8   0.000462   0.000638  -2.515707  -1.525276     0.31 (  89->  93)    0.20 (  75->  94)    0.20 (  89->  94)
  23   4.507     275.1   0.018206   0.014031  -19.709382  -14.820506     0.17 (  91->  96)    0.14 (  90->  96)    0.13 (  92->  96)
  24   4.518     274.4   0.000735   0.000892  -11.865437  -12.975502     0.29 (  89->  94)    0.21 (  75->  94)    0.20 (  75->  93)
  25   4.593     270.0   0.075847   0.059570  23.581782  20.879184     0.33 (  80->  93)    0.15 (  80->  94)    0.10 (  91->  97)
  26   4.681     264.9   0.000617   0.000369  -0.671547  -0.413408     0.31 (  85->  94)    0.16 (  84->  94)    0.12 (  82->  94)
  27   4.702     263.7   0.170019   0.135580  20.130284  18.787366     0.27 (  79->  93)    0.19 (  79->  94)    0.10 (  91->  97)
  28   4.724     262.5   0.013022   0.012858   9.293034   7.305398     0.30 (  77->  94)    0.29 (  77->  93)    0.08 (  78->  93)
  29   4.731     262.1   0.005886   0.006763  -9.738394  -6.595871     0.27 (  92-> 100)    0.13 (  85->  94)    0.10 (  85->  93)
  30   4.762     260.3   0.002690   0.001755   3.524744   2.987257     0.33 (  92->  98)    0.12 (  91->  97)    0.05 (  81->  94)
  31   4.778     259.5   0.000018   0.000015  -0.241316  -0.228993     0.66 (  88->  94)    0.29 (  88->  93)    0.02 (  88->  95)
  32   4.794     258.6   0.003679   0.002216   1.962081   1.418025     0.19 (  92->  98)    0.13 (  81->  93)    0.11 (  87->  94)
  33   4.910     252.5   0.001599   0.000760  -1.104890  -0.939789     0.13 (  78->  93)    0.12 (  81->  94)    0.07 (  82->  94)

-----------------------------------------------------------------------------
         ABSORPTION SPECTRUM VIA TRANSITION ELECTRIC DIPOLE MOMENTS
-----------------------------------------------------------------------------
State   Energy  Wavelength   fosc         T2         TX        TY        TZ  
        (cm-1)    (nm)                  (au**2)     (au)      (au)      (au) 
-----------------------------------------------------------------------------
   0   15672.9    638.0   2.518248269  52.89636  -6.59507  -1.70057   2.55138
   1   18246.7    548.0   0.008519992   0.15372   0.17167   0.20186  -0.28897
   2   23371.1    427.9   0.002900551   0.04086   0.11687   0.08620  -0.14060
   3   24028.1    416.2   0.000183908   0.00252  -0.03266   0.02192   0.03118
   4   24746.5    404.1   0.018883843   0.25122  -0.37597   0.15311   0.29397
   5   25554.1    391.3   0.000214764   0.00277   0.04791   0.01691   0.01361
   6   27332.0    365.9   0.724741373   8.72944  -2.69368  -0.02004   1.21373
   7   27701.4    361.0   0.320481693   3.80871  -1.83280  -0.35755   0.56720
   8   28624.4    349.4   0.031397548   0.36111  -0.52766  -0.22045   0.18463
   9   29056.3    344.2   0.004730028   0.05359  -0.15467  -0.16116  -0.06080
  10   30963.2    323.0   0.103291321   1.09823  -0.89929  -0.43936   0.31059
  11   32052.8    312.0   0.012486597   0.12825   0.13630   0.33114  -0.00393
  12   32747.5    305.4   0.014682923   0.14761  -0.12217   0.36353   0.02306
  13   32896.8    304.0   0.037878023   0.37906  -0.11410   0.58784   0.14311
  14   33192.0    301.3   0.007698149   0.07635   0.08262   0.26275   0.02216
  15   33666.0    297.0   0.003059835   0.02992   0.05652   0.16329  -0.00792
  16   34201.3    292.4   0.027933708   0.26888   0.45633   0.19111  -0.15531
  17   34774.0    287.6   0.002553631   0.02418  -0.10735   0.02132   0.11044
  18   34902.3    286.5   0.002587812   0.02441   0.12563  -0.05267  -0.07650
  19   35411.5    282.4   0.085269450   0.79273   0.19611   0.86801   0.02872
  20   35701.9    280.1   0.045795465   0.42229   0.26666  -0.56013  -0.19348
  21   35794.9    279.4   0.027555062   0.25343   0.41780  -0.12946  -0.24923
  22   36001.6    277.8   0.000461822   0.00422  -0.04321  -0.02908  -0.03886
  23   36353.5    275.1   0.018205900   0.16487  -0.03718  -0.39523  -0.08532
  24   36439.7    274.4   0.000735122   0.00664   0.03802   0.04701   0.05464
  25   37041.2    270.0   0.075847165   0.67411   0.50123  -0.58012  -0.29383
  26   37751.2    264.9   0.000616669   0.00538   0.02412   0.06796  -0.01332
  27   37924.7    263.7   0.170019448   1.47588  -0.46145   1.06374   0.36251
  28   38102.3    262.5   0.013021904   0.11251   0.18179  -0.26808  -0.08717
  29   38158.6    262.1   0.005885691   0.05078  -0.07248   0.19312   0.09072
  30   38410.4    260.3   0.002689584   0.02305   0.12855  -0.02032  -0.07819
  31   38533.9    259.5   0.000018354   0.00016   0.00970   0.00754  -0.00245
  32   38664.4    258.6   0.003679285   0.03133  -0.09172   0.13596   0.06656
  33   39605.4    252.5   0.001599456   0.01330  -0.08266   0.07002   0.03949

-----------------------------------------------------------------------------
         ABSORPTION SPECTRUM VIA TRANSITION VELOCITY DIPOLE MOMENTS
-----------------------------------------------------------------------------
State   Energy  Wavelength   fosc         P2         PX        PY        PZ  
        (cm-1)    (nm)                  (au**2)     (au)      (au)      (au) 
-----------------------------------------------------------------------------
   0   15672.9    638.0   3.165084300   0.33903  -0.52697  -0.14146   0.20329
   1   18246.7    548.0   0.007781185   0.00097   0.01035   0.01599  -0.02465
   2   23371.1    427.9   0.001636752   0.00026   0.00767   0.00422  -0.01359
   3   24028.1    416.2   0.000214901   0.00004  -0.00433   0.00286   0.00288
   4   24746.5    404.1   0.025414117   0.00430  -0.05316   0.01017   0.03700
   5   25554.1    391.3   0.000154380   0.00003   0.00466   0.00182   0.00137
   6   27332.0    365.9   0.657307415   0.12279  -0.31934  -0.00144   0.14425
   7   27701.4    361.0   0.291502283   0.05519  -0.22014  -0.04724   0.06705
   8   28624.4    349.4   0.041574668   0.00813  -0.07880  -0.03426   0.02738
   9   29056.3    344.2   0.006755399   0.00134  -0.02441  -0.02666  -0.00589
  10   30963.2    323.0   0.109869580   0.02325  -0.13264  -0.05928   0.04628
  11   32052.8    312.0   0.009673023   0.00212   0.02216   0.04024  -0.00291
  12   32747.5    305.4   0.011669210   0.00261  -0.01304   0.04940   0.00099
  13   32896.8    304.0   0.031825374   0.00716  -0.01051   0.08191   0.01833
  14   33192.0    301.3   0.005134954   0.00116   0.01288   0.03156   0.00164
  15   33666.0    297.0   0.001678973   0.00039  -0.00070   0.01953   0.00210
  16   34201.3    292.4   0.019625201   0.00459   0.05984   0.02464  -0.01998
  17   34774.0    287.6   0.001317080   0.00031  -0.01200   0.00098   0.01296
  18   34902.3    286.5   0.001554719   0.00037   0.01416  -0.00668  -0.01121
  19   35411.5    282.4   0.071287200   0.01725   0.03180   0.12741   0.00278
  20   35701.9    280.1   0.035400827   0.00864   0.04132  -0.07856  -0.02755
  21   35794.9    279.4   0.022597248   0.00553   0.06128  -0.01970  -0.03721
  22   36001.6    277.8   0.000637824   0.00016  -0.00727  -0.00313  -0.00971
  23   36353.5    275.1   0.014031049   0.00349  -0.00787  -0.05751  -0.01079
  24   36439.7    274.4   0.000891542   0.00022   0.00721   0.00618   0.01148
  25   37041.2    270.0   0.059569995   0.01508   0.07624  -0.08549  -0.04426
  26   37751.2    264.9   0.000369388   0.00010   0.00618   0.00684  -0.00321
  27   37924.7    263.7   0.135580419   0.03514  -0.07482   0.16227   0.05667
  28   38102.3    262.5   0.012857527   0.00335   0.03129  -0.04579  -0.01650
  29   38158.6    262.1   0.006763360   0.00176  -0.01785   0.03428   0.01644
  30   38410.4    260.3   0.001755339   0.00046   0.01799  -0.00058  -0.01170
  31   38533.9    259.5   0.000015166   0.00000   0.00155   0.00083  -0.00095
  32   38664.4    258.6   0.002215723   0.00059  -0.01314   0.01801   0.00941
  33   39605.4    252.5   0.000759590   0.00021  -0.00964   0.00965   0.00442

-------------------------------------------------------------------
                             CD SPECTRUM
-------------------------------------------------------------------
State   Energy Wavelength       R         MX        MY        MZ   
        (cm-1)   (nm)       (1e40*cgs)   (au)      (au)      (au)  
-------------------------------------------------------------------
   0   15672.9    638.0     35.30867   0.31712  -0.43938   0.46815
   1   18246.7    548.0    -22.52936  -0.20748   0.56394  -0.06007
   2   23371.1    427.9    -19.44138  -0.36306   0.30497  -0.70142
   3   24028.1    416.2      6.21607   0.36814  -0.41025  -0.17169
   4   24746.5    404.1      5.78539   0.58577  -0.60684   0.98176
   5   25554.1    391.3     -5.88540   0.55517   0.06644  -0.20240
   6   27332.0    365.9     64.16653   1.61073  -1.00062   3.33394
   7   27701.4    361.0    -34.47374  -0.33015   0.32535  -0.60387
   8   28624.4    349.4      0.41197   0.06410  -0.05924   0.10301
   9   29056.3    344.2    -43.58900  -0.94564   0.52790  -2.03516
  10   30963.2    323.0     -5.77335  -0.24562   0.16607  -0.39740
  11   32052.8    312.0      2.41936   0.11238  -0.07332   0.33081
  12   32747.5    305.4    -17.60782  -0.19069   0.12212   0.30379
  13   32896.8    304.0     18.13046   0.36401  -0.12549   0.26822
  14   33192.0    301.3     -3.72893   0.36530  -0.12605   0.84662
  15   33666.0    297.0     -1.39481   0.32855  -0.03938   0.78615
  16   34201.3    292.4      0.52124   0.42116  -0.12032   1.10366
  17   34774.0    287.6     11.25753   0.17835  -0.09013  -0.24167
  18   34902.3    286.5    -11.19128   0.28231   0.30012  -0.36361
  19   35411.5    282.4    -27.17896   1.78089  -0.41126   4.28321
  20   35701.9    280.1     24.50847  -1.08041   0.48265  -2.34904
  21   35794.9    279.4    -12.96754  -1.00672   0.48089  -2.15819
  22   36001.6    277.8     -2.51571   0.10223  -0.47485  -0.03291
  23   36353.5    275.1    -19.70938  -1.30797   0.57054  -3.05304
  24   36439.7    274.4    -11.86544   0.11758   0.36404   0.52620
  25   37041.2    270.0     23.58178  -1.67294   0.72118  -3.93719
  26   37751.2    264.9     -0.67155   0.02322   0.04125   0.03861
  27   37924.7    263.7     20.13028   0.65644  -0.33454   1.58169
  28   38102.3    262.5      9.29303  -0.48695   0.11424  -0.91457
  29   38158.6    262.1     -9.73839   0.59977  -0.29337   1.55914
  30   38410.4    260.3      3.52474   0.14753   0.08297   0.41221
  31   38533.9    259.5     -0.24132   0.05784   0.04717  -0.04388
  32   38664.4    258.6      1.96208   0.19834  -0.12443   0.40244
  33   39605.4    252.5     -1.10489  -0.14001   0.07714  -0.31119

sTD-DFT done

Total run time:        3.860 sec

           *** ORCA-CIS/TD-DFT FINISHED WITHOUT ERROR ***

-------------------------   --------------------
FINAL SINGLE POINT ENERGY     -5513.825327792990
-------------------------   --------------------


                            ***************************************
                            *     ORCA property calculations      *
                            ***************************************

                                    ---------------------
                                    Active property flags
                                    ---------------------
   (+) Dipole Moment


------------------------------------------------------------------------------
                       ORCA ELECTRIC PROPERTIES CALCULATION
------------------------------------------------------------------------------

Dipole Moment Calculation                       ... on
Quadrupole Moment Calculation                   ... off
Polarizability Calculation                      ... off
GBWName                                         ... O-IDTBR.gbw
Electron density file                           ... O-IDTBR.scfp
The origin for moment calculation is the CENTER OF MASS  = (-20.189380, -7.473745  7.624149)

-------------
DIPOLE MOMENT
-------------
                                X             Y             Z
Electronic contribution:      0.34564     -35.63288     -10.65915
Nuclear contribution   :     -0.73347      36.06713      10.78484
                        -----------------------------------------
Total Dipole Moment    :     -0.38783       0.43425       0.12569
                        -----------------------------------------
Magnitude (a.u.)       :      0.59564
Magnitude (Debye)      :      1.51400



--------------------
Rotational spectrum 
--------------------
 
Rotational constants in cm-1:     0.004213     0.000194     0.000188 
Rotational constants in MHz :   126.288321     5.811883     5.622025 

 Dipole components along the rotational axes: 
x,y,z [a.u.] :     0.306797    -0.498991    -0.108038 
x,y,z [Debye]:     0.779817    -1.268335    -0.274611 

 

Timings for individual modules:

Sum of individual times         ...     3413.764 sec (=  56.896 min)
GTO integral calculation        ...        3.575 sec (=   0.060 min)   0.1 %
SCF iterations                  ...     3406.044 sec (=  56.767 min)  99.8 %
CIS module                      ...        4.145 sec (=   0.069 min)   0.1 %
                             ****ORCA TERMINATED NORMALLY****
TOTAL RUN TIME: 0 days 0 hours 56 minutes 54 seconds 487 msec
