
                                 *****************
                                 * O   R   C   A *
                                 *****************

           --- An Ab Initio, DFT and Semiempirical electronic structure package ---

                  #######################################################
                  #                        -***-                        #
                  #          Department of theory and spectroscopy      #
                  #               Directorship: Frank Neese             #
                  #        Max Planck Institute fuer Kohlenforschung    #
                  #                Kaiser Wilhelm Platz 1               #
                  #                 D-45470 Muelheim/Ruhr               #
                  #                      Germany                        #
                  #                                                     #
                  #                  All rights reserved                #
                  #                        -***-                        #
                  #######################################################


                         Program Version 4.2.0 -  RELEASE  -


 With contributions from (in alphabetic order):
   Daniel Aravena         : Magnetic Suceptibility
   Michael Atanasov       : Ab Initio Ligand Field Theory (pilot matlab implementation)
   Alexander A. Auer      : GIAO ZORA, VPT2
   Ute Becker             : Parallelization
   Giovanni Bistoni       : ED, misc. LED, open-shell LED, HFLED
   Martin Brehm           : Molecular dynamics
   Dmytro Bykov           : SCF Hessian
   Vijay G. Chilkuri      : MRCI spin determinant printing, contributions to CSF-ICE
   Dipayan Datta          : RHF DLPNO-CCSD density
   Achintya Kumar Dutta   : EOM-CC, STEOM-CC
   Dmitry Ganyushin       : Spin-Orbit,Spin-Spin,Magnetic field MRCI
   Miquel Garcia          : C-PCM Hessian, Gaussian charge scheme
   Yang Guo               : DLPNO-NEVPT2, CIM, IAO-localization
   Andreas Hansen         : Spin unrestricted coupled pair/coupled cluster methods
   Benjamin Helmich-Paris : CASSCF linear response (MC-RPA)
   Lee Huntington         : MR-EOM, pCC
   Robert Izsak           : Overlap fitted RIJCOSX, COSX-SCS-MP3, EOM
   Christian Kollmar      : KDIIS, OOCD, Brueckner-CCSD(T), CCSD density
   Simone Kossmann        : Meta GGA functionals, TD-DFT gradient, OOMP2, MP2 Hessian
   Martin Krupicka        : AUTO-CI
   Lucas Lang             : DCDCAS
   Dagmar Lenk            : GEPOL surface, SMD
   Dimitrios Liakos       : Extrapolation schemes; Compound Job, initial MDCI parallelization
   Dimitrios Manganas     : Further ROCIS development; embedding schemes
   Dimitrios Pantazis     : SARC Basis sets
   Taras Petrenko         : DFT Hessian,TD-DFT gradient, ASA, ECA, R-Raman, ABS, FL, XAS/XES, NRVS
   Peter Pinski           : DLPNO-MP2, DLPNO-MP2 Gradient
   Christoph Reimann      : Effective Core Potentials
   Marius Retegan         : Local ZFS, SOC
   Christoph Riplinger    : Optimizer, TS searches, QM/MM, DLPNO-CCSD(T), (RO)-DLPNO pert. Triples
   Tobias Risthaus        : Range-separated hybrids, TD-DFT gradient, RPA, STAB
   Michael Roemelt        : Original ROCIS implementation
   Masaaki Saitow         : Open-shell DLPNO-CCSD energy and density
   Barbara Sandhoefer     : DKH picture change effects
   Avijit Sen             : IP-ROCIS
   Kantharuban Sivalingam : CASSCF convergence, NEVPT2, FIC-MRCI
   Bernardo de Souza      : ESD, SOC TD-DFT
   Georgi Stoychev        : AutoAux, RI-MP2 NMR
   Willem Van den Heuvel  : Paramagnetic NMR
   Boris Wezisla          : Elementary symmetry handling
   Frank Wennmohs         : Technical directorship


 We gratefully acknowledge several colleagues who have allowed us to
 interface, adapt or use parts of their codes:
   Stefan Grimme, W. Hujo, H. Kruse,             : VdW corrections, initial TS optimization,
                  C. Bannwarth                     DFT functionals, gCP, sTDA/sTD-DF
   Ed Valeev, F. Pavosevic, A. Kumar             : LibInt (2-el integral package), F12 methods
   Garnet Chan, S. Sharma, J. Yang, R. Olivares  : DMRG
   Ulf Ekstrom                                   : XCFun DFT Library
   Mihaly Kallay                                 : mrcc  (arbitrary order and MRCC methods)
   Andreas Klamt, Michael Diedenhofen            : otool_cosmo (COSMO solvation model)
   Jiri Pittner, Ondrej Demel                    : Mk-CCSD
   Frank Weinhold                                : gennbo (NPA and NBO analysis)
   Christopher J. Cramer and Donald G. Truhlar   : smd solvation model
   Lars Goerigk                                  : TD-DFT with DH, B97 family of functionals
   V. Asgeirsson, H. Jonsson                     : NEB implementation
   FAccTs GmbH                                   : IRC, NEB, NEB-TS, Multilevel, MM, QM/MM, CI optimization
   S Lehtola, MJT Oliveira, MAL Marques          : LibXC Library


 Your calculation uses the libint2 library for the computation of 2-el integrals
 For citations please refer to: http://libint.valeyev.net

 Your ORCA version has been built with support for libXC version: 4.2.3
 For citations please refer to: https://tddft.org/programs/libxc/

 This ORCA versions uses:
   CBLAS   interface :  Fast vector & matrix operations
   LAPACKE interface :  Fast linear algebra routines
   SCALAPACK package :  Parallel linear algebra routines


XCFun DFT library Copyright 2009-2010 Ulf Ekstrom and contributors.
See http://admol.org/xcfun for more information. This is free soft-
ware; see the source code for copying conditions. There is ABSOLUTELY
NO WARRANTY; not even for MERCHANTABILITY or FITNESS FOR A PARTICULAR
PURPOSE. For details see the documentation. Scientific users of this 
library should cite U. Ekstrom, L. Visscher, R. Bast, A. J. Thorvald-
sen and K. Ruud; J.Chem.Theor.Comp. 2010, DOI: 10.1021/ct100117s
XCFun Version 0.99 
----- Orbital basis set information -----
Your calculation utilizes the basis: def2-SVP
   F. Weigend and R. Ahlrichs, Phys. Chem. Chem. Phys. 7, 3297 (2005).

----- AuxJ basis set information -----
Your calculation utilizes the auxiliary basis: def2/J
   F. Weigend, Phys. Chem. Chem. Phys. 8, 1057 (2006).

================================================================================
                                        WARNINGS
                       Please study these warnings very carefully!
================================================================================

INFO   : Checking CIS options ...

WARNING: CIS/ROCIS methods need fully converged wavefunctions
  ===> : Setting SCFConvForced true
         You can overwrite this default with %scf ConvForced false 


INFO   : the flag for use of LIBINT has been found!

================================================================================
                                       INPUT FILE
================================================================================
NAME = PCBM.inp
|  1> # ORCA input file
|  2> # PCBM.out
|  3> ! CAM-B3LYP def2-SVP def2/J RIJCOSX Grid4 TightSCF
|  4> %maxcore 5000
|  5> %tddft
|  6>     Mode sTDDFT
|  7>     Ethresh 5.0
|  8>     maxcore 5000
|  9> end
| 10> * xyz 0 1
| 11>    C        0.30559        -2.43478         1.23997
| 12>    C        0.71540        -2.31512        -0.12843
| 13>    C        1.48289        -1.06491        -0.28305
| 14>    C        1.27037        -0.33412         0.98111
| 15>    C        0.64873        -1.21707         1.92221
| 16>    C       -0.17297        -0.73013         2.93128
| 17>    C       -0.44010         0.67684         3.00241
| 18>    C        0.12795         1.52917         2.06123
| 19>    C        0.99600         1.01620         1.03496
| 20>    C        0.73618         1.77347        -0.18283
| 21>    C        0.76051         1.15709        -1.41614
| 22>    C        1.20016        -0.23852        -1.61125
| 23>    C        0.20131        -0.82253        -2.52668
| 24>    C       -0.35453        -2.07191        -2.33862
| 25>    C       -0.09312        -2.83049        -1.12074
| 26>    C       -1.30351        -3.52650        -0.77324
| 27>    C       -2.30619        -3.21484        -1.75864
| 28>    C       -1.72053        -2.31606        -2.71909
| 29>    C       -2.49439        -1.30163        -3.27224
| 30>    C       -1.92703         0.00438        -3.44170
| 31>    C       -0.61337         0.23359        -3.05111
| 32>    C       -0.26870         1.45095        -2.36876
| 33>    C       -1.24999         2.39752        -2.10052
| 34>    C       -1.26012         3.05771        -0.82771
| 35>    C       -0.28838         2.73906         0.11516
| 36>    C       -0.66187         2.59368         1.49841
| 37>    C       -1.98266         2.76578         1.88837
| 38>    C       -2.57182         1.87291         2.85528
| 39>    C       -1.81343         0.84782         3.40282
| 40>    C       -2.39323        -0.46138         3.57902
| 41>    C       -3.70740        -0.69635         3.19812
| 42>    C       -4.49377         0.36971         2.63089
| 43>    C       -3.93650         1.63060         2.46445
| 44>    C       -4.19465         2.37962         1.25918
| 45>    C       -2.98926         3.08414         0.90626
| 46>    C       -2.63363         3.22839        -0.42732
| 47>    C       -3.47226         2.67029        -1.45991
| 48>    C       -2.61481         2.15656        -2.49760
| 49>    C       -2.94728         0.98206        -3.15624
| 50>    C       -4.15095         0.27232        -2.80498
| 51>    C       -3.87053        -1.14083        -2.87777
| 52>    C       -4.43023        -2.00678        -1.94886
| 53>    C       -3.63395        -3.06717        -1.38267
| 54>    C       -4.01292        -3.21826         0.00025
| 55>    C       -5.03356        -2.24485         0.29110
| 56>    C       -5.29168        -1.49576        -0.91419
| 57>    C       -5.55922        -0.13516        -0.84202
| 58>    C       -4.97776         0.76576        -1.80482
| 59>    C       -4.63206         1.98712        -1.11980
| 60>    C       -5.00039         1.83968         0.26556
| 61>    C       -5.57495         0.52895         0.43718
| 62>    C       -5.32645        -0.19192         1.59708
| 63>    C       -5.05260        -1.60516         1.52333
| 64>    C       -4.05295        -1.91777         2.51311
| 65>    C       -3.07172        -2.85946         2.23411
| 66>    C       -3.05018        -3.52160         0.95266
| 67>    C       -1.67412        -3.68308         0.55808
| 68>    C       -0.84965        -3.12326         1.58920
| 69>    C       -1.70817        -2.61400         2.62945
| 70>    C       -1.37601        -1.43947         3.28828
| 71>    C        2.56334        -0.78185        -1.28512
| 72>    C        3.09186        -1.94100        -2.11065
| 73>    C        3.60142         0.21917        -0.88996
| 74>    C        4.23428         0.13767         0.34323
| 75>    C        5.20855         1.05749         0.68737
| 76>    C        5.55728         2.06446        -0.19624
| 77>    C        4.92939         2.14943        -1.42741
| 78>    C        3.95542         1.23052        -1.77355
| 79>    H        5.69644         0.98645         1.64797
| 80>    H        6.31818         2.78150         0.07347
| 81>    H        3.96257        -0.64680         1.03420
| 82>    H        3.46059         1.29742        -2.73213
| 83>    H        5.19873         2.93333        -2.11976
| 84>    C        3.94725        -2.88121        -1.26451
| 85>    H        3.68924        -1.53750        -2.93234
| 86>    H        2.25721        -2.49711        -2.54039
| 87>    H        3.35872        -3.25844        -0.42603
| 88>    C        4.45478        -4.06045        -2.08596
| 89>    H        4.79917        -2.33820        -0.85204
| 90>    H        5.04791        -3.71976        -2.93705
| 91>    H        3.62006        -4.64307        -2.48300
| 92>    C        5.31281        -4.98892        -1.25710
| 93>    O        5.51344        -4.89199        -0.07686
| 94>    O        5.83538        -5.95738        -2.02162
| 95>    C        6.66155        -6.90533        -1.35822
| 96>    H        7.04757        -7.56491        -2.13081
| 97>    H        6.07877        -7.47014        -0.62794
| 98>    H        7.47817        -6.39897        -0.84003
| 99> *
|100> 
|101>                          ****END OF INPUT****
================================================================================

                       ****************************
                       * Single Point Calculation *
                       ****************************

---------------------------------
CARTESIAN COORDINATES (ANGSTROEM)
---------------------------------
  C      0.305590   -2.434780    1.239970
  C      0.715400   -2.315120   -0.128430
  C      1.482890   -1.064910   -0.283050
  C      1.270370   -0.334120    0.981110
  C      0.648730   -1.217070    1.922210
  C     -0.172970   -0.730130    2.931280
  C     -0.440100    0.676840    3.002410
  C      0.127950    1.529170    2.061230
  C      0.996000    1.016200    1.034960
  C      0.736180    1.773470   -0.182830
  C      0.760510    1.157090   -1.416140
  C      1.200160   -0.238520   -1.611250
  C      0.201310   -0.822530   -2.526680
  C     -0.354530   -2.071910   -2.338620
  C     -0.093120   -2.830490   -1.120740
  C     -1.303510   -3.526500   -0.773240
  C     -2.306190   -3.214840   -1.758640
  C     -1.720530   -2.316060   -2.719090
  C     -2.494390   -1.301630   -3.272240
  C     -1.927030    0.004380   -3.441700
  C     -0.613370    0.233590   -3.051110
  C     -0.268700    1.450950   -2.368760
  C     -1.249990    2.397520   -2.100520
  C     -1.260120    3.057710   -0.827710
  C     -0.288380    2.739060    0.115160
  C     -0.661870    2.593680    1.498410
  C     -1.982660    2.765780    1.888370
  C     -2.571820    1.872910    2.855280
  C     -1.813430    0.847820    3.402820
  C     -2.393230   -0.461380    3.579020
  C     -3.707400   -0.696350    3.198120
  C     -4.493770    0.369710    2.630890
  C     -3.936500    1.630600    2.464450
  C     -4.194650    2.379620    1.259180
  C     -2.989260    3.084140    0.906260
  C     -2.633630    3.228390   -0.427320
  C     -3.472260    2.670290   -1.459910
  C     -2.614810    2.156560   -2.497600
  C     -2.947280    0.982060   -3.156240
  C     -4.150950    0.272320   -2.804980
  C     -3.870530   -1.140830   -2.877770
  C     -4.430230   -2.006780   -1.948860
  C     -3.633950   -3.067170   -1.382670
  C     -4.012920   -3.218260    0.000250
  C     -5.033560   -2.244850    0.291100
  C     -5.291680   -1.495760   -0.914190
  C     -5.559220   -0.135160   -0.842020
  C     -4.977760    0.765760   -1.804820
  C     -4.632060    1.987120   -1.119800
  C     -5.000390    1.839680    0.265560
  C     -5.574950    0.528950    0.437180
  C     -5.326450   -0.191920    1.597080
  C     -5.052600   -1.605160    1.523330
  C     -4.052950   -1.917770    2.513110
  C     -3.071720   -2.859460    2.234110
  C     -3.050180   -3.521600    0.952660
  C     -1.674120   -3.683080    0.558080
  C     -0.849650   -3.123260    1.589200
  C     -1.708170   -2.614000    2.629450
  C     -1.376010   -1.439470    3.288280
  C      2.563340   -0.781850   -1.285120
  C      3.091860   -1.941000   -2.110650
  C      3.601420    0.219170   -0.889960
  C      4.234280    0.137670    0.343230
  C      5.208550    1.057490    0.687370
  C      5.557280    2.064460   -0.196240
  C      4.929390    2.149430   -1.427410
  C      3.955420    1.230520   -1.773550
  H      5.696440    0.986450    1.647970
  H      6.318180    2.781500    0.073470
  H      3.962570   -0.646800    1.034200
  H      3.460590    1.297420   -2.732130
  H      5.198730    2.933330   -2.119760
  C      3.947250   -2.881210   -1.264510
  H      3.689240   -1.537500   -2.932340
  H      2.257210   -2.497110   -2.540390
  H      3.358720   -3.258440   -0.426030
  C      4.454780   -4.060450   -2.085960
  H      4.799170   -2.338200   -0.852040
  H      5.047910   -3.719760   -2.937050
  H      3.620060   -4.643070   -2.483000
  C      5.312810   -4.988920   -1.257100
  O      5.513440   -4.891990   -0.076860
  O      5.835380   -5.957380   -2.021620
  C      6.661550   -6.905330   -1.358220
  H      7.047570   -7.564910   -2.130810
  H      6.078770   -7.470140   -0.627940
  H      7.478170   -6.398970   -0.840030

----------------------------
CARTESIAN COORDINATES (A.U.)
----------------------------
  NO LB      ZA    FRAG     MASS         X           Y           Z
   0 C     6.0000    0    12.011    0.577481   -4.601067    2.343204
   1 C     6.0000    0    12.011    1.351910   -4.374943   -0.242698
   2 C     6.0000    0    12.011    2.802256   -2.012388   -0.534887
   3 C     6.0000    0    12.011    2.400651   -0.631395    1.854029
   4 C     6.0000    0    12.011    1.225922   -2.299929    3.632450
   5 C     6.0000    0    12.011   -0.326866   -1.379746    5.539316
   6 C     6.0000    0    12.011   -0.831668    1.279042    5.673733
   7 C     6.0000    0    12.011    0.241790    2.889713    3.895160
   8 C     6.0000    0    12.011    1.882167    1.920340    1.955791
   9 C     6.0000    0    12.011    1.391179    3.351373   -0.345499
  10 C     6.0000    0    12.011    1.437156    2.186583   -2.676117
  11 C     6.0000    0    12.011    2.267974   -0.450737   -3.044821
  12 C     6.0000    0    12.011    0.380421   -1.554356   -4.774733
  13 C     6.0000    0    12.011   -0.669965   -3.915342   -4.419351
  14 C     6.0000    0    12.011   -0.175971   -5.348851   -2.117892
  15 C     6.0000    0    12.011   -2.463277   -6.664119   -1.461212
  16 C     6.0000    0    12.011   -4.358068   -6.075167   -3.323348
  17 C     6.0000    0    12.011   -3.251331   -4.376719   -5.138335
  18 C     6.0000    0    12.011   -4.713714   -2.459724   -6.183637
  19 C     6.0000    0    12.011   -3.641559    0.008277   -6.503870
  20 C     6.0000    0    12.011   -1.159101    0.441421   -5.765762
  21 C     6.0000    0    12.011   -0.507769    2.741898   -4.476308
  22 C     6.0000    0    12.011   -2.362139    4.530656   -3.969408
  23 C     6.0000    0    12.011   -2.381282    5.778234   -1.564145
  24 C     6.0000    0    12.011   -0.544959    5.176073    0.217621
  25 C     6.0000    0    12.011   -1.250753    4.901345    2.831585
  26 C     6.0000    0    12.011   -3.746684    5.226567    3.568502
  27 C     6.0000    0    12.011   -4.860035    3.539287    5.395697
  28 C     6.0000    0    12.011   -3.426886    1.602148    6.430398
  29 C     6.0000    0    12.011   -4.522549   -0.871882    6.763368
  30 C     6.0000    0    12.011   -7.005971   -1.315911    6.043571
  31 C     6.0000    0    12.011   -8.491995    0.698651    4.971662
  32 C     6.0000    0    12.011   -7.438907    3.081387    4.657136
  33 C     6.0000    0    12.011   -7.926740    4.496830    2.379505
  34 C     6.0000    0    12.011   -5.648883    5.828180    1.712583
  35 C     6.0000    0    12.011   -4.976839    6.100773   -0.807518
  36 C     6.0000    0    12.011   -6.561620    5.046117   -2.758830
  37 C     6.0000    0    12.011   -4.941275    4.075308   -4.719780
  38 C     6.0000    0    12.011   -5.569552    1.855824   -5.964429
  39 C     6.0000    0    12.011   -7.844159    0.514610   -5.300644
  40 C     6.0000    0    12.011   -7.314242   -2.155856   -5.438197
  41 C     6.0000    0    12.011   -8.371921   -3.792265   -3.682812
  42 C     6.0000    0    12.011   -6.867170   -5.796111   -2.612868
  43 C     6.0000    0    12.011   -7.583320   -6.081630    0.000472
  44 C     6.0000    0    12.011   -9.512050   -4.242152    0.550099
  45 C     6.0000    0    12.011   -9.999826   -2.826577   -1.727569
  46 C     6.0000    0    12.011  -10.505403   -0.255415   -1.591187
  47 C     6.0000    0    12.011   -9.406603    1.447077   -3.410616
  48 C     6.0000    0    12.011   -8.753325    3.755113   -2.116115
  49 C     6.0000    0    12.011   -9.449368    3.476491    0.501836
  50 C     6.0000    0    12.011  -10.535129    0.999571    0.826150
  51 C     6.0000    0    12.011  -10.065532   -0.362676    3.018044
  52 C     6.0000    0    12.011   -9.548030   -3.033313    2.878677
  53 C     6.0000    0    12.011   -7.658966   -3.624060    4.749090
  54 C     6.0000    0    12.011   -5.804710   -5.403596    4.221856
  55 C     6.0000    0    12.011   -5.764005   -6.654860    1.800266
  56 C     6.0000    0    12.011   -3.163628   -6.960013    1.054618
  57 C     6.0000    0    12.011   -1.605606   -5.902106    3.003153
  58 C     6.0000    0    12.011   -3.227973   -4.939744    4.968940
  59 C     6.0000    0    12.011   -2.600282   -2.720204    6.213949
  60 C     6.0000    0    12.011    4.844011   -1.477482   -2.428525
  61 C     6.0000    0    12.011    5.842769   -3.667958   -3.988550
  62 C     6.0000    0    12.011    6.805697    0.414171   -1.681781
  63 C     6.0000    0    12.011    8.001630    0.260159    0.648611
  64 C     6.0000    0    12.011    9.842733    1.998366    1.298941
  65 C     6.0000    0    12.011   10.501737    3.901264   -0.370840
  66 C     6.0000    0    12.011    9.315197    4.061834   -2.697414
  67 C     6.0000    0    12.011    7.474661    2.325346   -3.351524
  68 H     1.0000    0     1.008   10.764712    1.864120    3.114212
  69 H     1.0000    0     1.008   11.939630    5.256273    0.138838
  70 H     1.0000    0     1.008    7.488172   -1.222275    1.954355
  71 H     1.0000    0     1.008    6.539567    2.451768   -5.162977
  72 H     1.0000    0     1.008    9.824176    5.543190   -4.005766
  73 C     6.0000    0    12.011    7.459221   -5.444698   -2.389578
  74 H     1.0000    0     1.008    6.971653   -2.905454   -5.541320
  75 H     1.0000    0     1.008    4.265509   -4.718854   -4.800641
  76 H     1.0000    0     1.008    6.347061   -6.157559   -0.805080
  77 C     6.0000    0    12.011    8.418314   -7.673138   -3.941893
  78 H     1.0000    0     1.008    9.069117   -4.418558   -1.610122
  79 H     1.0000    0     1.008    9.539167   -7.029328   -5.550220
  80 H     1.0000    0     1.008    6.840922   -8.774131   -4.692190
  81 C     6.0000    0    12.011   10.039756   -9.427693   -2.375575
  82 O     8.0000    0    15.999   10.418892   -9.244521   -0.145244
  83 O     8.0000    0    15.999   11.027270  -11.257817   -3.820308
  84 C     6.0000    0    12.011   12.588505  -13.049183   -2.566664
  85 H     1.0000    0     1.008   13.317977  -14.295608   -4.026647
  86 H     1.0000    0     1.008   11.487211  -14.116519   -1.186635
  87 H     1.0000    0     1.008   14.131693  -12.092301   -1.587427

--------------------------------
INTERNAL COORDINATES (ANGSTROEM)
--------------------------------
 C      0   0   0     0.000000000000     0.00000000     0.00000000
 C      1   0   0     1.433450840350     0.00000000     0.00000000
 C      2   1   0     1.475118059207   108.63616456     0.00000000
 C      3   2   1     1.475574220465   104.77426017   348.92309138
 C      4   3   2     1.432377814021   108.66908679    11.16041555
 C      5   4   3     1.389432876572   121.18384780   208.06527189
 C      6   5   4     1.433869762112   119.34637517     2.20368524
 C      7   6   5     1.391030921224   119.44543980   359.97126771
 C      4   3   2     1.378964401934   123.16710738   223.94247940
 C      9   4   3     1.457386966252   120.77414472     7.66839644
 C     10   9   4     1.378974187358   120.79246744   359.91944454
 C     11  10   9     1.476173196715   123.09684686   352.47164403
 C     12  11  10     1.475391842020   104.75024834   135.80848708
 C     13  12  11     1.380317011994   123.11861343   224.39901297
 C      2   1   3     1.379851428017   119.19690168   211.94351106
 C     15   2   1     1.438829427764   119.99380373   357.45517818
 C     16  15   2     1.439969547595   108.40888689   143.59941544
 C     14  13  12     1.438861578957   119.99066726   145.92415225
 C     18  14  13     1.390648211087   120.64359262   359.73418462
 C     19  18  14     1.433972168942   119.41976256   358.93798770
 C     20  19  18     1.389532427761   119.41084713     0.04458042
 C     11  10   9     1.432868377800   119.35789053   136.06595468
 C     22  11  10     1.389560191787   121.23905091     3.45696681
 C     23  22  11     1.433875430119   119.33964221   357.75126217
 C     24  23  22     1.390978176321   119.42568132     0.00000000
 C      8   7   6     1.440056778360   119.56464868   138.30525317
 C     26   8   7     1.387866505000   120.25216587   359.76899305
 C     27  26   8     1.441957451037   120.03067403   359.67222527
 C     28  27  26     1.387719334664   119.91291275     0.49138204
 C     29  28  27     1.442643102087   119.92791741   221.88696434
 C     30  29  28     1.388286173597   120.03512654     0.16176066
 C     31  30  29     1.441045305811   119.95695257   359.77928483
 C     32  31  30     1.388558863931   119.99621853     0.06191624
 C     33  32  31     1.442341206442   119.99305925   138.39323153
 C     34  33  32     1.440092361239   108.00091143   217.31993752
 C     35  34  33     1.387701832455   120.05753837   142.88110894
 C     36  35  34     1.442573393280   119.91287452   359.92865835
 C     37  36  35     1.440812115267   107.90880685   217.51395230
 C     38  37  36     1.387008724017   120.08459314   142.44269118
 C     39  38  37     1.440810856462   120.10636998     0.00000000
 C     19  18  14     1.440563959184   120.27118000   221.25324743
 C     41  19  18     1.387806643809   119.92708442   359.55661014
 C     17  16  15     1.387842385648   120.25308325   216.40338971
 C     43  17  16     1.441844019095   120.00925979     0.35386203
 C     44  43  17     1.440078734028   108.00894899   142.12708857
 C     42  41  19     1.440062343025   120.04924007   138.05651263
 C     46  42  41     1.388531065731   120.02159577   359.76290242
 C     40  39  38     1.388314746482   119.87304114   359.95853071
 C     37  36  35     1.388355898536   120.04372691   359.85387121
 C     34  33  32     1.388536227687   119.99289094     0.00000000
 C     50  34  33     1.441383276891   119.98116022   359.79701242
 C     51  50  34     1.388082784599   120.02547018     0.19957284
 C     45  44  43     1.388508765043   120.02404893   217.66338241
 C     53  45  44     1.441072372575   120.00525643   359.83433682
 C     54  53  45     1.388320340916   119.95981704   359.95262029
 C     44  43  17     1.387792589438   119.92063553   359.50216779
 C     16  15   2     1.390784674527   120.65170113     0.25031520
 C      1   2   3     1.389440808707   121.26550021   151.68504185
 C     55  54  53     1.440768173476   119.88050998   138.11016938
 C     59  55  54     1.387050091165   120.08180342     0.03534985
 C      3   2   1     1.500546384155   127.19314901   151.91031502
 C     61   3   2     1.518045418886   118.02168548   350.22801409
 C     61   3   2     1.495260028356   116.72355803   207.85679169
 C     63  61   3     1.388492565951   120.78721178    48.72573998
 C     64  63  61     1.383366619845   120.19321344   178.93993508
 C     65  64  63     1.384329377677   120.15161499     0.00000000
 C     66  65  64     1.384646280427   119.86441300   359.95181619
 C     67  66  65     1.383049546690   120.07279112     0.02576211
 H     65  64  63     1.079738715477   119.72294314   180.05621167
 H     66  65  64     1.079749348553   120.07543322   180.02554000
 H     64  63  61     1.080119921999   119.74481751   358.89364571
 H     68  67  66     1.080836692244   120.21497562   179.71694505
 H     67  66  65     1.079996188928   120.09677209   180.01762550
 C     62  61   3     1.526970790749   111.33716873   287.97754963
 H     62  61   3     1.093091748437   108.49331580   167.11803423
 H     62  61   3     1.091134923921   109.69584595    49.27488215
 H     74  62  61     1.091658712327   109.65654880    58.07015757
 C     74  62  61     1.524130499990   111.36374933   178.83952658
 H     74  62  61     1.091219064808   109.90099017   299.97410127
 H     78  74  62     1.091891506103   111.07426364    58.75612988
 H     78  74  62     1.092631824724   110.73330588   299.58063333
 C     78  74  62     1.511714563468   111.63531933   179.48925930
 O     82  78  74     1.201088789141   125.73365469     4.94016644
 O     82  78  74     1.339957091440   110.63580637   184.96904170
 C     84  82  78     1.421712218207   116.25087298   180.28903890
 H     85  84  82     1.086716395800   106.22278999   183.79328230
 H     85  84  82     1.091765424851   110.29601557    63.95580071
 H     85  84  82     1.091691142265   110.29848826   303.78653103

---------------------------
INTERNAL COORDINATES (A.U.)
---------------------------
 C      0   0   0     0.000000000000     0.00000000     0.00000000
 C      1   0   0     2.708829514701     0.00000000     0.00000000
 C      2   1   0     2.787569147104   108.63616456     0.00000000
 C      3   2   1     2.788431166953   104.77426017   348.92309138
 C      4   3   2     2.706801788805   108.66908679    11.16041555
 C      5   4   3     2.625647618188   121.18384780   208.06527189
 C      6   5   4     2.709621162103   119.34637517     2.20368524
 C      7   6   5     2.628667484929   119.44543980   359.97126771
 C      4   3   2     2.605865068081   123.16710738   223.94247940
 C      9   4   3     2.754062237362   120.77414472     7.66839644
 C     10   9   4     2.605883559853   120.79246744   359.91944454
 C     11  10   9     2.789563068027   123.09684686   352.47164403
 C     12  11  10     2.788086521640   104.75024834   135.80848708
 C     13  12  11     2.608421130661   123.11861343   224.39901297
 C      2   1   3     2.607541304452   119.19690168   211.94351106
 C     15   2   1     2.718993571901   119.99380373   357.45517818
 C     16  15   2     2.721148086140   108.40888689   143.59941544
 C     14  13  12     2.719054328851   119.99066726   145.92415225
 C     18  14  13     2.627944267582   120.64359262   359.73418462
 C     19  18  14     2.709814682965   119.41976256   358.93798770
 C     20  19  18     2.625835742671   119.41084713     0.04458042
 C     11  10   9     2.707728819999   119.35789053   136.06595468
 C     22  11  10     2.625888209077   121.23905091     3.45696681
 C     23  22  11     2.709631873084   119.33964221   357.75126217
 C     24  23  22     2.628567811507   119.42568132     0.00000000
 C      8   7   6     2.721312928397   119.56464868   138.30525317
 C     26   8   7     2.622687604892   120.25216587   359.76899305
 C     27  26   8     2.724904679226   120.03067403   359.67222527
 C     28  27  26     2.622409493262   119.91291275     0.49138204
 C     29  28  27     2.726200371936   119.92791741   221.88696434
 C     30  29  28     2.623480663607   120.03512654     0.16176066
 C     31  30  29     2.723180974556   119.95695257   359.77928483
 C     32  31  30     2.623995973657   119.99621853     0.06191624
 C     33  32  31     2.725629871845   119.99305925   138.39323153
 C     34  33  32     2.721380170294   108.00091143   217.31993752
 C     35  34  33     2.622376418881   120.05753837   142.88110894
 C     36  35  34     2.726068641381   119.91287452   359.92865835
 C     37  36  35     2.722740308290   107.90880685   217.51395230
 C     38  37  36     2.621066633752   120.08459314   142.44269118
 C     39  38  37     2.722737929495   120.10636998     0.00000000
 C     19  18  14     2.722271361255   120.27118000   221.25324743
 C     41  19  18     2.622574483635   119.92708442   359.55661014
 C     17  16  15     2.622642025922   120.25308325   216.40338971
 C     43  17  16     2.724690323922   120.00925979     0.35386203
 C     44  43  17     2.721354418597   108.00894899   142.12708857
 C     42  41  19     2.721323444091   120.04924007   138.05651263
 C     46  42  41     2.623943442673   120.02159577   359.76290242
 C     40  39  38     2.623534658536   119.87304114   359.95853071
 C     37  36  35     2.623612424647   120.04372691   359.85387121
 C     34  33  32     2.623953197357   119.99289094     0.00000000
 C     50  34  33     2.723819647337   119.98116022   359.79701242
 C     51  50  34     2.623096314103   120.02547018     0.19957284
 C     45  44  43     2.623901300480   120.02404893   217.66338241
 C     53  45  44     2.723232123328   120.00525643   359.83433682
 C     54  53  45     2.623545230483   119.95981704   359.95262029
 C     44  43  17     2.622547924724   119.92063553   359.50216779
 C     16  15   2     2.628202146111   120.65170113     0.25031520
 C      1   2   3     2.625662607750   121.26550021   151.68504185
 C     55  54  53     2.722657270339   119.88050998   138.11016938
 C     59  55  54     2.621144806332   120.08180342     0.03534985
 C      3   2   1     2.835621717298   127.19314901   151.91031502
 C     61   3   2     2.868690100548   118.02168548   350.22801409
 C     61   3   2     2.825631952593   116.72355803   207.85679169
 C     63  61   3     2.623870688632   120.78721178    48.72573998
 C     64  63  61     2.614184054314   120.19321344   178.93993508
 C     65  64  63     2.616003402951   120.15161499     0.00000000
 C     66  65  64     2.616602262360   119.86441300   359.95181619
 C     67  66  65     2.613584872888   120.07279112     0.02576211
 H     65  64  63     2.040410468444   119.72294314   180.05621167
 H     66  65  64     2.040430562045   120.07543322   180.02554000
 H     64  63  61     2.041130844371   119.74481751   358.89364571
 H     68  67  66     2.042485343834   120.21497562   179.71694505
 H     67  66  65     2.040897022753   120.09677209   180.01762550
 C     62  61   3     2.885556609012   111.33716873   287.97754963
 H     62  61   3     2.065644043794   108.49331580   167.11803423
 H     62  61   3     2.061946181368   109.69584595    49.27488215
 H     74  62  61     2.062935998008   109.65654880    58.07015757
 C     74  62  61     2.880189237338   111.36374933   178.83952658
 H     74  62  61     2.062105184600   109.90099017   299.97410127
 H     78  74  62     2.063375914490   111.07426364    58.75612988
 H     78  74  62     2.064774913935   110.73330588   299.58063333
 C     78  74  62     2.856726517614   111.63531933   179.48925930
 O     82  78  74     2.269728873999   125.73365469     4.94016644
 O     82  78  74     2.532151934027   110.63580637   184.96904170
 C     84  82  78     2.686646733662   116.25087298   180.28903890
 H     85  84  82     2.053596373303   106.22278999   183.79328230
 H     85  84  82     2.063137655453   110.29601557    63.95580071
 H     85  84  82     2.062997281709   110.29848826   303.78653103

---------------------
BASIS SET INFORMATION
---------------------
There are 3 groups of distinct atoms

 Group   1 Type C   : 7s4p1d contracted to 3s2p1d pattern {511/31/1}
 Group   2 Type H   : 4s1p contracted to 2s1p pattern {31/1}
 Group   3 Type O   : 7s4p1d contracted to 3s2p1d pattern {511/31/1}

Atom   0C    basis set group =>   1
Atom   1C    basis set group =>   1
Atom   2C    basis set group =>   1
Atom   3C    basis set group =>   1
Atom   4C    basis set group =>   1
Atom   5C    basis set group =>   1
Atom   6C    basis set group =>   1
Atom   7C    basis set group =>   1
Atom   8C    basis set group =>   1
Atom   9C    basis set group =>   1
Atom  10C    basis set group =>   1
Atom  11C    basis set group =>   1
Atom  12C    basis set group =>   1
Atom  13C    basis set group =>   1
Atom  14C    basis set group =>   1
Atom  15C    basis set group =>   1
Atom  16C    basis set group =>   1
Atom  17C    basis set group =>   1
Atom  18C    basis set group =>   1
Atom  19C    basis set group =>   1
Atom  20C    basis set group =>   1
Atom  21C    basis set group =>   1
Atom  22C    basis set group =>   1
Atom  23C    basis set group =>   1
Atom  24C    basis set group =>   1
Atom  25C    basis set group =>   1
Atom  26C    basis set group =>   1
Atom  27C    basis set group =>   1
Atom  28C    basis set group =>   1
Atom  29C    basis set group =>   1
Atom  30C    basis set group =>   1
Atom  31C    basis set group =>   1
Atom  32C    basis set group =>   1
Atom  33C    basis set group =>   1
Atom  34C    basis set group =>   1
Atom  35C    basis set group =>   1
Atom  36C    basis set group =>   1
Atom  37C    basis set group =>   1
Atom  38C    basis set group =>   1
Atom  39C    basis set group =>   1
Atom  40C    basis set group =>   1
Atom  41C    basis set group =>   1
Atom  42C    basis set group =>   1
Atom  43C    basis set group =>   1
Atom  44C    basis set group =>   1
Atom  45C    basis set group =>   1
Atom  46C    basis set group =>   1
Atom  47C    basis set group =>   1
Atom  48C    basis set group =>   1
Atom  49C    basis set group =>   1
Atom  50C    basis set group =>   1
Atom  51C    basis set group =>   1
Atom  52C    basis set group =>   1
Atom  53C    basis set group =>   1
Atom  54C    basis set group =>   1
Atom  55C    basis set group =>   1
Atom  56C    basis set group =>   1
Atom  57C    basis set group =>   1
Atom  58C    basis set group =>   1
Atom  59C    basis set group =>   1
Atom  60C    basis set group =>   1
Atom  61C    basis set group =>   1
Atom  62C    basis set group =>   1
Atom  63C    basis set group =>   1
Atom  64C    basis set group =>   1
Atom  65C    basis set group =>   1
Atom  66C    basis set group =>   1
Atom  67C    basis set group =>   1
Atom  68H    basis set group =>   2
Atom  69H    basis set group =>   2
Atom  70H    basis set group =>   2
Atom  71H    basis set group =>   2
Atom  72H    basis set group =>   2
Atom  73C    basis set group =>   1
Atom  74H    basis set group =>   2
Atom  75H    basis set group =>   2
Atom  76H    basis set group =>   2
Atom  77C    basis set group =>   1
Atom  78H    basis set group =>   2
Atom  79H    basis set group =>   2
Atom  80H    basis set group =>   2
Atom  81C    basis set group =>   1
Atom  82O    basis set group =>   3
Atom  83O    basis set group =>   3
Atom  84C    basis set group =>   1
Atom  85H    basis set group =>   2
Atom  86H    basis set group =>   2
Atom  87H    basis set group =>   2
---------------------------------
AUXILIARY/J BASIS SET INFORMATION
---------------------------------
There are 3 groups of distinct atoms

 Group   1 Type C   : 12s5p4d2f1g contracted to 6s4p3d1f1g pattern {711111/2111/211/2/1}
 Group   2 Type H   : 5s2p1d contracted to 3s1p1d pattern {311/2/1}
 Group   3 Type O   : 12s5p4d2f1g contracted to 6s4p3d1f1g pattern {711111/2111/211/2/1}

Atom   0C    basis set group =>   1
Atom   1C    basis set group =>   1
Atom   2C    basis set group =>   1
Atom   3C    basis set group =>   1
Atom   4C    basis set group =>   1
Atom   5C    basis set group =>   1
Atom   6C    basis set group =>   1
Atom   7C    basis set group =>   1
Atom   8C    basis set group =>   1
Atom   9C    basis set group =>   1
Atom  10C    basis set group =>   1
Atom  11C    basis set group =>   1
Atom  12C    basis set group =>   1
Atom  13C    basis set group =>   1
Atom  14C    basis set group =>   1
Atom  15C    basis set group =>   1
Atom  16C    basis set group =>   1
Atom  17C    basis set group =>   1
Atom  18C    basis set group =>   1
Atom  19C    basis set group =>   1
Atom  20C    basis set group =>   1
Atom  21C    basis set group =>   1
Atom  22C    basis set group =>   1
Atom  23C    basis set group =>   1
Atom  24C    basis set group =>   1
Atom  25C    basis set group =>   1
Atom  26C    basis set group =>   1
Atom  27C    basis set group =>   1
Atom  28C    basis set group =>   1
Atom  29C    basis set group =>   1
Atom  30C    basis set group =>   1
Atom  31C    basis set group =>   1
Atom  32C    basis set group =>   1
Atom  33C    basis set group =>   1
Atom  34C    basis set group =>   1
Atom  35C    basis set group =>   1
Atom  36C    basis set group =>   1
Atom  37C    basis set group =>   1
Atom  38C    basis set group =>   1
Atom  39C    basis set group =>   1
Atom  40C    basis set group =>   1
Atom  41C    basis set group =>   1
Atom  42C    basis set group =>   1
Atom  43C    basis set group =>   1
Atom  44C    basis set group =>   1
Atom  45C    basis set group =>   1
Atom  46C    basis set group =>   1
Atom  47C    basis set group =>   1
Atom  48C    basis set group =>   1
Atom  49C    basis set group =>   1
Atom  50C    basis set group =>   1
Atom  51C    basis set group =>   1
Atom  52C    basis set group =>   1
Atom  53C    basis set group =>   1
Atom  54C    basis set group =>   1
Atom  55C    basis set group =>   1
Atom  56C    basis set group =>   1
Atom  57C    basis set group =>   1
Atom  58C    basis set group =>   1
Atom  59C    basis set group =>   1
Atom  60C    basis set group =>   1
Atom  61C    basis set group =>   1
Atom  62C    basis set group =>   1
Atom  63C    basis set group =>   1
Atom  64C    basis set group =>   1
Atom  65C    basis set group =>   1
Atom  66C    basis set group =>   1
Atom  67C    basis set group =>   1
Atom  68H    basis set group =>   2
Atom  69H    basis set group =>   2
Atom  70H    basis set group =>   2
Atom  71H    basis set group =>   2
Atom  72H    basis set group =>   2
Atom  73C    basis set group =>   1
Atom  74H    basis set group =>   2
Atom  75H    basis set group =>   2
Atom  76H    basis set group =>   2
Atom  77C    basis set group =>   1
Atom  78H    basis set group =>   2
Atom  79H    basis set group =>   2
Atom  80H    basis set group =>   2
Atom  81C    basis set group =>   1
Atom  82O    basis set group =>   3
Atom  83O    basis set group =>   3
Atom  84C    basis set group =>   1
Atom  85H    basis set group =>   2
Atom  86H    basis set group =>   2
Atom  87H    basis set group =>   2
------------------------------------------------------------------------------
                           ORCA GTO INTEGRAL CALCULATION
                           -- RI-GTO INTEGRALS CHOSEN --
------------------------------------------------------------------------------

                         BASIS SET STATISTICS AND STARTUP INFO

Gaussian basis set:
 # of primitive gaussian shells          ...  958
 # of primitive gaussian functions       ... 1874
 # of contracted shells                  ...  486
 # of contracted basis functions         ... 1106
 Highest angular momentum                ...    2
 Maximum contraction depth               ...    5
Auxiliary gaussian basis set:
 # of primitive gaussian shells          ... 1888
 # of primitive gaussian functions       ... 5404
 # of contracted shells                  ... 1180
 # of contracted aux-basis functions     ... 3780
 Highest angular momentum                ...    4
 Maximum contraction depth               ...    7
Ratio of auxiliary to basis functions    ...  3.42
Integral package used                  ... LIBINT
 One Electron integrals                  ... done
 Ordering auxiliary basis shells         ... done
 Integral threshhold             Thresh  ...  2.500e-11
 Primitive cut-off               TCut    ...  2.500e-12
 Pre-screening matrix                    ... done
 Shell pair data                         ... 
 Ordering of the shell pairs             ... done (   0.015 sec) 72429 of 118341 pairs
 Determination of significant pairs      ... done (   0.000 sec)
 Creation of shell pair data             ... done (   0.010 sec)
 Storage of shell pair data              ... done (   0.013 sec)
 Shell pair data done in (   0.038 sec)
 Computing two index integrals           ... done
 Cholesky decomposition of the V-matrix  ... done


Timings:
 Total evaluation time                   ...   2.510 sec (  0.042 min)
 One electron matrix time                ...   0.856 sec (  0.014 min) = 34.1%
 Schwartz matrix evaluation time         ...   0.699 sec (  0.012 min) = 27.8%
 Two index repulsion integral time       ...   0.392 sec (  0.007 min) = 15.6%
 Cholesky decomposition of V             ...   0.506 sec (  0.008 min) = 20.2%
 Three index repulsion integral time     ...   0.000 sec (  0.000 min) =  0.0%

-------------------------------------------------------------------------------
                                 ORCA SCF
-------------------------------------------------------------------------------

------------
SCF SETTINGS
------------
Hamiltonian:
 Density Functional     Method          .... DFT(GTOs)
 Exchange Functional    Exchange        .... WB88
 Correlation Functional Correlation     .... LYP
 LDA part of GGA corr.  LDAOpt          .... VWN-5
 Gradients option       PostSCFGGA      .... off
 Hybrid DFT is turned on
   Fraction HF Exchange ScalHFX         ....  0.190000
   Scaling of DF-GGA-X  ScalDFX         ....  0.350000
   Scaling of DF-GGA-C  ScalDFC         ....  0.810000
   Scaling of DF-LDA-C  ScalLDAC        ....  1.000000
   Perturbative correction              ....  0.000000
   Density functional embedding theory  .... OFF
 Long-range corrected/Screened/Range-Separated Hybrid DFT is turned on
   Amount of maximum screened exact exchange              ....  0.460000
   Range separation parameter mu (erf(mu*r12)/r12)        ....  0.330000
 RI-approximation to the Coulomb term is turned on
   Number of auxiliary basis functions  .... 3780
   RIJ-COSX (HFX calculated with COS-X)).... on


General Settings:
 Integral files         IntName         .... PCBM
 Hartree-Fock type      HFTyp           .... RHF
 Total Charge           Charge          ....    0
 Multiplicity           Mult            ....    1
 Number of Electrons    NEL             ....  462
 Basis Dimension        Dim             .... 1106
 Nuclear Repulsion      ENuc            ....  11811.4882091070 Eh

Convergence Acceleration:
 DIIS                   CNVDIIS         .... on
   Start iteration      DIISMaxIt       ....    12
   Startup error        DIISStart       ....  0.200000
   # of expansion vecs  DIISMaxEq       ....     5
   Bias factor          DIISBfac        ....   1.050
   Max. coefficient     DIISMaxC        ....  10.000
 Newton-Raphson         CNVNR           .... off
 SOSCF                  CNVSOSCF        .... on
   Start iteration      SOSCFMaxIt      ....   150
   Startup grad/error   SOSCFStart      ....  0.003300
 Level Shifting         CNVShift        .... on
   Level shift para.    LevelShift      ....    0.2500
   Turn off err/grad.   ShiftErr        ....    0.0010
 Zerner damping         CNVZerner       .... off
 Static damping         CNVDamp         .... on
   Fraction old density DampFac         ....    0.7000
   Max. Damping (<1)    DampMax         ....    0.9800
   Min. Damping (>=0)   DampMin         ....    0.0000
   Turn off err/grad.   DampErr         ....    0.1000
 Fernandez-Rico         CNVRico         .... off

SCF Procedure:
 Maximum # iterations   MaxIter         ....   125
 SCF integral mode      SCFMode         .... Direct
   Integral package                     .... LIBINT
 Reset frequency        DirectResetFreq ....    20
 Integral Threshold     Thresh          ....  2.500e-11 Eh
 Primitive CutOff       TCut            ....  2.500e-12 Eh

Convergence Tolerance:
 Convergence Check Mode ConvCheckMode   .... Total+1el-Energy
 Convergence forced     ConvForced      .... 1
 Energy Change          TolE            ....  1.000e-08 Eh
 1-El. energy change                    ....  1.000e-05 Eh
 Orbital Gradient       TolG            ....  1.000e-05
 Orbital Rotation angle TolX            ....  1.000e-05
 DIIS Error             TolErr          ....  5.000e-07


Diagonalization of the overlap matrix:
Smallest eigenvalue                        ... 4.911e-05
Time for diagonalization                   ...    0.419 sec
Threshold for overlap eigenvalues          ... 1.000e-08
Number of eigenvalues below threshold      ... 0
Time for construction of square roots      ...    0.129 sec
Total time needed                          ...    0.552 sec

-------------------
DFT GRID GENERATION
-------------------

General Integration Accuracy     IntAcc      ...  4.670
Radial Grid Type                 RadialGrid  ... Gauss-Chebyshev
Angular Grid (max. acc.)         AngularGrid ... Lebedev-302
Angular grid pruning method      GridPruning ... 3 (G Style)
Weight generation scheme         WeightScheme... Becke
Basis function cutoff            BFCut       ...    1.0000e-11
Integration weight cutoff        WCut        ...    1.0000e-14
Grids for H and He will be reduced by one unit

# of grid points (after initial pruning)     ... 507204 (   1.1 sec)
# of grid points (after weights+screening)   ... 410623 (  15.3 sec)
nearest neighbour list constructed           ...    0.0 sec
Grid point re-assignment to atoms done       ...    0.1 sec
Grid point division into batches done        ...    1.5 sec
Reduced shell lists constructed in   12.5 sec

Total number of grid points                  ...   410623
Total number of batches                      ...     6462
Average number of points per batch           ...       63
Average number of grid points per atom       ...     4666
Average number of shells per batch           ...   161.17 (33.16%)
Average number of basis functions per batch  ...   342.47 (30.96%)
Average number of large shells per batch     ...    88.31 (54.79%)
Average number of large basis fcns per batch ...   191.06 (55.79%)
Maximum spatial batch extension              ...  21.13, 22.91, 21.35 au
Average spatial batch extension              ...   2.02,  2.01,  2.03 au

Time for grid setup =   28.978 sec

------------------------------
INITIAL GUESS: MODEL POTENTIAL
------------------------------
Loading Hartree-Fock densities                     ... done
Calculating cut-offs                               ... done
Setting up the integral package                    ... done
Initializing the effective Hamiltonian             ... done
Starting the Coulomb interaction                   ... done (  13.7 sec)
Reading the grid                                   ... done
Mapping shells                                     ... done
Starting the XC term evaluation                    ... done (  17.5 sec)
  promolecular density results
     # of electrons  =    461.996006329
     EX              =   -389.821881219
     EC              =    -16.166721022
     EX+EC           =   -405.988602240
Transforming the Hamiltonian                       ... done (   0.1 sec)
Diagonalizing the Hamiltonian                      ... done (   0.3 sec)
Back transforming the eigenvectors                 ... done (   0.0 sec)
Now organizing SCF variables                       ... done
                      ------------------
                      INITIAL GUESS DONE (  60.9 sec)
                      ------------------
--------------------
COSX GRID GENERATION
--------------------

General Integration Accuracy     IntAcc      ...  3.340
Radial Grid Type                 RadialGrid  ... Gauss-Chebyshev
Angular Grid (max. acc.)         AngularGrid ... Lebedev-50
Angular grid pruning method      GridPruning ... 3 (G Style)
Weight generation scheme         WeightScheme... Becke
Basis function cutoff            BFCut       ...    1.0000e-11
Integration weight cutoff        WCut        ...    1.0000e-14
Grids for H and He will be reduced by one unit

# of grid points (after initial pruning)     ...  47400 (   0.0 sec)
# of grid points (after weights+screening)   ...  40998 (   1.4 sec)
nearest neighbour list constructed           ...    0.0 sec
Grid point re-assignment to atoms done       ...    0.0 sec
Grid point division into batches done        ...    0.0 sec
Reduced shell lists constructed in    1.5 sec

Total number of grid points                  ...    40998
Total number of batches                      ...      677
Average number of points per batch           ...       60
Average number of grid points per atom       ...      466
Average number of shells per batch           ...   195.61 (40.25%)
Average number of basis functions per batch  ...   421.12 (38.08%)
Average number of large shells per batch     ...   110.31 (56.39%)
Average number of large basis fcns per batch ...   239.48 (56.87%)
Maximum spatial batch extension              ...  18.40, 17.85, 17.73 au
Average spatial batch extension              ...   4.05,  4.06,  3.99 au

Overlap Fitting                  UseSFitting ... on
Constructing numerical overlap ... done (      1.5 sec)
Inverting numerical overlap    ... done (      0.0 sec)
Obtaining analytic overlap     ... done (      0.0 sec)
Final contraction and storage  ... done (      0.1 sec)


General Integration Accuracy     IntAcc      ...  3.670
Radial Grid Type                 RadialGrid  ... Gauss-Chebyshev
Angular Grid (max. acc.)         AngularGrid ... Lebedev-50
Angular grid pruning method      GridPruning ... 3 (G Style)
Weight generation scheme         WeightScheme... Becke
Basis function cutoff            BFCut       ...    1.0000e-11
Integration weight cutoff        WCut        ...    1.0000e-14
Grids for H and He will be reduced by one unit

# of grid points (after initial pruning)     ...  58396 (   0.1 sec)
# of grid points (after weights+screening)   ...  50258 (   1.8 sec)
nearest neighbour list constructed           ...    0.0 sec
Grid point re-assignment to atoms done       ...    0.0 sec
Grid point division into batches done        ...    0.0 sec
Reduced shell lists constructed in    1.7 sec

Total number of grid points                  ...    50258
Total number of batches                      ...      826
Average number of points per batch           ...       60
Average number of grid points per atom       ...      571
Average number of shells per batch           ...   191.72 (39.45%)
Average number of basis functions per batch  ...   411.87 (37.24%)
Average number of large shells per batch     ...   107.33 (55.98%)
Average number of large basis fcns per batch ...   233.14 (56.60%)
Maximum spatial batch extension              ...  19.01, 19.77, 18.78 au
Average spatial batch extension              ...   3.80,  3.78,  3.80 au

Overlap Fitting                  UseSFitting ... on
Constructing numerical overlap ... done (      1.8 sec)
Inverting numerical overlap    ... done (      0.0 sec)
Obtaining analytic overlap     ... done (      0.0 sec)
Final contraction and storage  ... done (      0.1 sec)


General Integration Accuracy     IntAcc      ...  4.010
Radial Grid Type                 RadialGrid  ... Gauss-Chebyshev
Angular Grid (max. acc.)         AngularGrid ... Lebedev-110
Angular grid pruning method      GridPruning ... 3 (G Style)
Weight generation scheme         WeightScheme... Becke
Basis function cutoff            BFCut       ...    1.0000e-11
Integration weight cutoff        WCut        ...    1.0000e-14
Grids for H and He will be reduced by one unit

# of grid points (after initial pruning)     ... 117892 (   0.2 sec)
# of grid points (after weights+screening)   ...  99485 (   3.6 sec)
nearest neighbour list constructed           ...    0.0 sec
Grid point re-assignment to atoms done       ...    0.0 sec
Grid point division into batches done        ...    0.1 sec
Reduced shell lists constructed in    3.5 sec

Total number of grid points                  ...    99485
Total number of batches                      ...     1604
Average number of points per batch           ...       62
Average number of grid points per atom       ...     1131
Average number of shells per batch           ...   181.00 (37.24%)
Average number of basis functions per batch  ...   387.91 (35.07%)
Average number of large shells per batch     ...   100.93 (55.76%)
Average number of large basis fcns per batch ...   219.14 (56.49%)
Maximum spatial batch extension              ...  20.29, 20.08, 19.99 au
Average spatial batch extension              ...   3.17,  3.16,  3.19 au

Overlap Fitting                  UseSFitting ... on
Constructing numerical overlap ... done (      3.3 sec)
Inverting numerical overlap    ... done (      0.0 sec)
Obtaining analytic overlap     ... done (      0.0 sec)
Final contraction and storage  ... done (      0.1 sec)

Time for X-Grid setup             =   20.827 sec
--------------
SCF ITERATIONS
--------------
ITER       Energy         Delta-E        Max-DP      RMS-DP      [F,P]     Damp
               ***  Starting incremental Fock matrix formation  ***
  0  -2897.9895408642   0.000000000000 0.07579469  0.00108977  0.2382641 0.7000
  1  -2898.2824660030  -0.292925138807 0.06108025  0.00077742  0.1049076 0.7000
                               ***Turning on DIIS***
  2  -2898.4259592376  -0.143493234613 0.14808491  0.00155119  0.0336912 0.0000
  3  -2898.6748211363  -0.248861898710 0.03975915  0.00072439  0.0526466 0.0000
  4  -2898.7068899425  -0.032068806200 0.00964692  0.00019934  0.0130604 0.0000
  5  -2898.7084615589  -0.001571616323 0.00476346  0.00004554  0.0049605 0.0000
  6  -2898.7086552650  -0.000193706133 0.00270705  0.00002023  0.0036535 0.0000
                      *** Initiating the SOSCF procedure ***
                           *** Shutting down DIIS ***
                      *** Re-Reading the Fockian *** 
                      *** Removing any level shift *** 
ITER      Energy       Delta-E        Grad      Rot      Max-DP    RMS-DP
  7  -2898.70873065  -0.0000753807  0.000433  0.000433  0.000813  0.000015
               *** Restarting incremental Fock matrix formation ***
  8  -2898.70873730  -0.0000066588  0.000321  0.000737  0.001643  0.000017
  9  -2898.70873896  -0.0000016574  0.000410  0.000676  0.000554  0.000007
 10  -2898.70874327  -0.0000043095  0.000038  0.000115  0.000290  0.000004
 11  -2898.70874309   0.0000001848  0.000036  0.000091  0.000178  0.000002
 12  -2898.70874355  -0.0000004606  0.000017  0.000036  0.000053  0.000001
 13  -2898.70874339   0.0000001522  0.000022  0.000024  0.000037  0.000000
                  ***Gradient check signals convergence***
              ***Rediagonalizing the Fockian in SOSCF/NRSCF***

               *****************************************************
               *                     SUCCESS                       *
               *           SCF CONVERGED AFTER  14 CYCLES          *
               *****************************************************

Setting up the final grid:

General Integration Accuracy     IntAcc      ...  5.010
Radial Grid Type                 RadialGrid  ... Gauss-Chebyshev
Angular Grid (max. acc.)         AngularGrid ... Lebedev-434
Angular grid pruning method      GridPruning ... 3 (G Style)
Weight generation scheme         WeightScheme... Becke
Basis function cutoff            BFCut       ...    1.0000e-11
Integration weight cutoff        WCut        ...    1.0000e-14
Grids for H and He will be reduced by one unit

# of grid points (after initial pruning)     ... 885628 (   1.2 sec)
# of grid points (after weights+screening)   ... 714302 (  26.0 sec)
nearest neighbour list constructed           ...    0.0 sec
Grid point re-assignment to atoms done       ...    0.1 sec
Grid point division into batches done        ...    4.7 sec
Reduced shell lists constructed in   19.6 sec

Total number of grid points                  ...   714302
Total number of batches                      ...    11208
Average number of points per batch           ...       63
Average number of grid points per atom       ...     8117
Average number of shells per batch           ...   155.56 (32.01%)
Average number of basis functions per batch  ...   329.39 (29.78%)
Average number of large shells per batch     ...    84.84 (54.54%)
Average number of large basis fcns per batch ...   183.35 (55.66%)
Maximum spatial batch extension              ...  22.90, 22.63, 21.53 au
Average spatial batch extension              ...   1.64,  1.64,  1.64 au

Final grid set up in   46.9 sec
Final integration                            ... done (  34.7 sec)
Change in XC energy                          ...     0.000062688
Integrated number of electrons               ...   462.001248717
Previous integrated no of electrons          ...   462.001245421
Old exchange energy                            =   -111.214352839 Eh
New exchange energy                            =   -111.216682592 Eh
Exchange energy change after final integration =     -0.002329754 Eh
Total energy after final integration           =  -2898.711010321 Eh
Final COS-X integration done in                =   648.849 sec

----------------
TOTAL SCF ENERGY
----------------

Total Energy       :        -2898.71101032 Eh          -78877.93667 eV

Components:
Nuclear Repulsion  :        11811.48820911 Eh          321406.93418 eV
Electronic Energy  :       -14710.19921943 Eh         -400284.87085 eV
One Electron Energy:       -27464.19575280 Eh         -747338.76040 eV
Two Electron Energy:        12753.99653337 Eh          347053.88955 eV

Virial components:
Potential Energy   :        -5769.92871572 Eh         -157007.74247 eV
Kinetic Energy     :         2871.21770540 Eh           78129.80581 eV
Virial Ratio       :            2.00957549


DFT components:
N(Alpha)           :      231.000624358427 electrons
N(Beta)            :      231.000624358427 electrons
N(Total)           :      462.001248716854 electrons
E(XC)              :     -301.094324890459 Eh       
DFET-embed. en.    :        0.000000000000 Eh       

---------------
SCF CONVERGENCE
---------------

  Last Energy change         ...    1.4075e-07  Tolerance :   1.0000e-08
  Last MAX-Density change    ...    6.2172e-15  Tolerance :   1.0000e-07
  Last RMS-Density change    ...    3.2354e-17  Tolerance :   5.0000e-09
  Last Orbital Gradient      ...    2.0597e-06  Tolerance :   1.0000e-05
  Last Orbital Rotation      ...    9.9447e-06  Tolerance :   1.0000e-05

             **** THE GBW FILE WAS UPDATED (PCBM.gbw) ****
             **** DENSITY FILE WAS UPDATED (PCBM.scfp) ****
             **** ENERGY FILE WAS UPDATED (PCBM.en.tmp) ****
             **** THE GBW FILE WAS UPDATED (PCBM.gbw) ****
             **** DENSITY FILE WAS UPDATED (PCBM.scfp) ****
----------------
ORBITAL ENERGIES
----------------

  NO   OCC          E(Eh)            E(eV) 
   0   2.0000     -19.252145      -523.8775 
   1   2.0000     -19.198441      -522.4161 
   2   2.0000     -10.389960      -282.7252 
   3   2.0000     -10.318170      -280.7717 
   4   2.0000     -10.315184      -280.6904 
   5   2.0000     -10.314979      -280.6849 
   6   2.0000     -10.310732      -280.5693 
   7   2.0000     -10.303783      -280.3802 
   8   2.0000     -10.303327      -280.3678 
   9   2.0000     -10.301521      -280.3186 
  10   2.0000     -10.301444      -280.3166 
  11   2.0000     -10.300028      -280.2780 
  12   2.0000     -10.299943      -280.2757 
  13   2.0000     -10.299624      -280.2670 
  14   2.0000     -10.299454      -280.2624 
  15   2.0000     -10.299362      -280.2599 
  16   2.0000     -10.299213      -280.2558 
  17   2.0000     -10.299116      -280.2532 
  18   2.0000     -10.298988      -280.2497 
  19   2.0000     -10.298960      -280.2490 
  20   2.0000     -10.298931      -280.2482 
  21   2.0000     -10.298881      -280.2468 
  22   2.0000     -10.298834      -280.2455 
  23   2.0000     -10.298762      -280.2436 
  24   2.0000     -10.298747      -280.2432 
  25   2.0000     -10.298672      -280.2411 
  26   2.0000     -10.298639      -280.2402 
  27   2.0000     -10.298551      -280.2378 
  28   2.0000     -10.298479      -280.2359 
  29   2.0000     -10.298435      -280.2347 
  30   2.0000     -10.298395      -280.2336 
  31   2.0000     -10.298383      -280.2332 
  32   2.0000     -10.298303      -280.2311 
  33   2.0000     -10.298272      -280.2302 
  34   2.0000     -10.298234      -280.2292 
  35   2.0000     -10.298220      -280.2288 
  36   2.0000     -10.298192      -280.2281 
  37   2.0000     -10.298147      -280.2268 
  38   2.0000     -10.298081      -280.2250 
  39   2.0000     -10.298023      -280.2235 
  40   2.0000     -10.297989      -280.2225 
  41   2.0000     -10.297914      -280.2205 
  42   2.0000     -10.297863      -280.2191 
  43   2.0000     -10.297839      -280.2184 
  44   2.0000     -10.297814      -280.2178 
  45   2.0000     -10.297773      -280.2167 
  46   2.0000     -10.297709      -280.2149 
  47   2.0000     -10.297654      -280.2134 
  48   2.0000     -10.297548      -280.2105 
  49   2.0000     -10.297541      -280.2103 
  50   2.0000     -10.297499      -280.2092 
  51   2.0000     -10.297422      -280.2071 
  52   2.0000     -10.297258      -280.2026 
  53   2.0000     -10.297148      -280.1997 
  54   2.0000     -10.297084      -280.1979 
  55   2.0000     -10.296302      -280.1766 
  56   2.0000     -10.296258      -280.1754 
  57   2.0000     -10.296094      -280.1710 
  58   2.0000     -10.296042      -280.1695 
  59   2.0000     -10.295727      -280.1610 
  60   2.0000     -10.295716      -280.1607 
  61   2.0000     -10.295375      -280.1514 
  62   2.0000     -10.295228      -280.1474 
  63   2.0000     -10.294686      -280.1326 
  64   2.0000     -10.294418      -280.1254 
  65   2.0000     -10.279072      -279.7078 
  66   2.0000     -10.275305      -279.6053 
  67   2.0000     -10.275200      -279.6024 
  68   2.0000     -10.270549      -279.4758 
  69   2.0000     -10.269406      -279.4448 
  70   2.0000     -10.269140      -279.4375 
  71   2.0000     -10.268483      -279.4196 
  72   2.0000     -10.268092      -279.4090 
  73   2.0000     -10.263845      -279.2934 
  74   2.0000      -1.184484       -32.2314 
  75   2.0000      -1.091360       -29.6974 
  76   2.0000      -1.058996       -28.8167 
  77   2.0000      -1.042928       -28.3795 
  78   2.0000      -1.036667       -28.2091 
  79   2.0000      -1.035926       -28.1890 
  80   2.0000      -1.010431       -27.4952 
  81   2.0000      -0.998229       -27.1632 
  82   2.0000      -0.997002       -27.1298 
  83   2.0000      -0.996961       -27.1287 
  84   2.0000      -0.996579       -27.1183 
  85   2.0000      -0.968911       -26.3654 
  86   2.0000      -0.957567       -26.0567 
  87   2.0000      -0.956094       -26.0167 
  88   2.0000      -0.952469       -25.9180 
  89   2.0000      -0.938959       -25.5504 
  90   2.0000      -0.922612       -25.1056 
  91   2.0000      -0.921416       -25.0730 
  92   2.0000      -0.921217       -25.0676 
  93   2.0000      -0.903534       -24.5864 
  94   2.0000      -0.886667       -24.1274 
  95   2.0000      -0.871534       -23.7157 
  96   2.0000      -0.870870       -23.6976 
  97   2.0000      -0.870248       -23.6807 
  98   2.0000      -0.869926       -23.6719 
  99   2.0000      -0.862184       -23.4612 
 100   2.0000      -0.851396       -23.1677 
 101   2.0000      -0.851256       -23.1639 
 102   2.0000      -0.850873       -23.1534 
 103   2.0000      -0.845215       -22.9995 
 104   2.0000      -0.832608       -22.6564 
 105   2.0000      -0.827964       -22.5300 
 106   2.0000      -0.812454       -22.1080 
 107   2.0000      -0.792065       -21.5532 
 108   2.0000      -0.791352       -21.5338 
 109   2.0000      -0.788816       -21.4648 
 110   2.0000      -0.788726       -21.4623 
 111   2.0000      -0.784722       -21.3534 
 112   2.0000      -0.784298       -21.3418 
 113   2.0000      -0.782706       -21.2985 
 114   2.0000      -0.779951       -21.2235 
 115   2.0000      -0.751048       -20.4371 
 116   2.0000      -0.741289       -20.1715 
 117   2.0000      -0.739371       -20.1193 
 118   2.0000      -0.725751       -19.7487 
 119   2.0000      -0.704483       -19.1700 
 120   2.0000      -0.698670       -19.0118 
 121   2.0000      -0.697884       -18.9904 
 122   2.0000      -0.697635       -18.9836 
 123   2.0000      -0.696117       -18.9423 
 124   2.0000      -0.695061       -18.9136 
 125   2.0000      -0.692328       -18.8392 
 126   2.0000      -0.691663       -18.8211 
 127   2.0000      -0.688161       -18.7258 
 128   2.0000      -0.682794       -18.5798 
 129   2.0000      -0.679906       -18.5012 
 130   2.0000      -0.641499       -17.4561 
 131   2.0000      -0.635516       -17.2933 
 132   2.0000      -0.632854       -17.2208 
 133   2.0000      -0.630516       -17.1572 
 134   2.0000      -0.629918       -17.1409 
 135   2.0000      -0.628746       -17.1090 
 136   2.0000      -0.612396       -16.6641 
 137   2.0000      -0.607367       -16.5273 
 138   2.0000      -0.600032       -16.3277 
 139   2.0000      -0.599390       -16.3102 
 140   2.0000      -0.599130       -16.3031 
 141   2.0000      -0.593303       -16.1446 
 142   2.0000      -0.590459       -16.0672 
 143   2.0000      -0.590286       -16.0625 
 144   2.0000      -0.586864       -15.9694 
 145   2.0000      -0.580052       -15.7840 
 146   2.0000      -0.575956       -15.6726 
 147   2.0000      -0.566141       -15.4055 
 148   2.0000      -0.563085       -15.3223 
 149   2.0000      -0.562782       -15.3141 
 150   2.0000      -0.558331       -15.1929 
 151   2.0000      -0.553345       -15.0573 
 152   2.0000      -0.550119       -14.9695 
 153   2.0000      -0.544890       -14.8272 
 154   2.0000      -0.540031       -14.6950 
 155   2.0000      -0.538928       -14.6650 
 156   2.0000      -0.538172       -14.6444 
 157   2.0000      -0.537538       -14.6271 
 158   2.0000      -0.536113       -14.5884 
 159   2.0000      -0.533489       -14.5170 
 160   2.0000      -0.533245       -14.5103 
 161   2.0000      -0.528488       -14.3809 
 162   2.0000      -0.523047       -14.2328 
 163   2.0000      -0.518603       -14.1119 
 164   2.0000      -0.517739       -14.0884 
 165   2.0000      -0.516382       -14.0515 
 166   2.0000      -0.515530       -14.0283 
 167   2.0000      -0.506807       -13.7909 
 168   2.0000      -0.506075       -13.7710 
 169   2.0000      -0.503581       -13.7031 
 170   2.0000      -0.500811       -13.6278 
 171   2.0000      -0.499301       -13.5867 
 172   2.0000      -0.497904       -13.5486 
 173   2.0000      -0.495974       -13.4962 
 174   2.0000      -0.493576       -13.4309 
 175   2.0000      -0.490866       -13.3571 
 176   2.0000      -0.490453       -13.3459 
 177   2.0000      -0.488819       -13.3014 
 178   2.0000      -0.488586       -13.2951 
 179   2.0000      -0.488485       -13.2924 
 180   2.0000      -0.487851       -13.2751 
 181   2.0000      -0.481813       -13.1108 
 182   2.0000      -0.476114       -12.9557 
 183   2.0000      -0.474827       -12.9207 
 184   2.0000      -0.471142       -12.8204 
 185   2.0000      -0.470567       -12.8048 
 186   2.0000      -0.469752       -12.7826 
 187   2.0000      -0.457948       -12.4614 
 188   2.0000      -0.449911       -12.2427 
 189   2.0000      -0.445103       -12.1119 
 190   2.0000      -0.439684       -11.9644 
 191   2.0000      -0.433720       -11.8021 
 192   2.0000      -0.430780       -11.7221 
 193   2.0000      -0.430221       -11.7069 
 194   2.0000      -0.426839       -11.6149 
 195   2.0000      -0.426123       -11.5954 
 196   2.0000      -0.425548       -11.5798 
 197   2.0000      -0.424805       -11.5595 
 198   2.0000      -0.423970       -11.5368 
 199   2.0000      -0.422651       -11.5009 
 200   2.0000      -0.419157       -11.4058 
 201   2.0000      -0.417702       -11.3663 
 202   2.0000      -0.416998       -11.3471 
 203   2.0000      -0.416835       -11.3427 
 204   2.0000      -0.413780       -11.2595 
 205   2.0000      -0.412822       -11.2335 
 206   2.0000      -0.410955       -11.1827 
 207   2.0000      -0.406084       -11.0501 
 208   2.0000      -0.405738       -11.0407 
 209   2.0000      -0.405360       -11.0304 
 210   2.0000      -0.402271       -10.9464 
 211   2.0000      -0.397353       -10.8125 
 212   2.0000      -0.383369       -10.4320 
 213   2.0000      -0.372382       -10.1330 
 214   2.0000      -0.346755        -9.4357 
 215   2.0000      -0.342217        -9.3122 
 216   2.0000      -0.331151        -9.0111 
 217   2.0000      -0.327686        -8.9168 
 218   2.0000      -0.326887        -8.8950 
 219   2.0000      -0.325575        -8.8593 
 220   2.0000      -0.324619        -8.8333 
 221   2.0000      -0.323840        -8.8121 
 222   2.0000      -0.322704        -8.7812 
 223   2.0000      -0.318697        -8.6722 
 224   2.0000      -0.311397        -8.4735 
 225   2.0000      -0.304833        -8.2949 
 226   2.0000      -0.277453        -7.5499 
 227   2.0000      -0.269599        -7.3362 
 228   2.0000      -0.266659        -7.2562 
 229   2.0000      -0.266528        -7.2526 
 230   2.0000      -0.259407        -7.0588 
 231   0.0000      -0.090945        -2.4747 
 232   0.0000      -0.087781        -2.3886 
 233   0.0000      -0.078154        -2.1267 
 234   0.0000      -0.039962        -1.0874 
 235   0.0000      -0.036529        -0.9940 
 236   0.0000      -0.026291        -0.7154 
 237   0.0000      -0.011155        -0.3036 
 238   0.0000       0.010591         0.2882 
 239   0.0000       0.010760         0.2928 
 240   0.0000       0.010865         0.2956 
 241   0.0000       0.012503         0.3402 
 242   0.0000       0.013195         0.3591 
 243   0.0000       0.015323         0.4170 
 244   0.0000       0.027590         0.7508 
 245   0.0000       0.031670         0.8618 
 246   0.0000       0.033143         0.9019 
 247   0.0000       0.063448         1.7265 
 248   0.0000       0.079566         2.1651 
 249   0.0000       0.082838         2.2541 
 250   0.0000       0.085092         2.3155 
 251   0.0000       0.085376         2.3232 
 252   0.0000       0.092158         2.5077 
 253   0.0000       0.096871         2.6360 
 254   0.0000       0.104846         2.8530 
 255   0.0000       0.107296         2.9197 
 256   0.0000       0.107857         2.9349 
 257   0.0000       0.109527         2.9804 
 258   0.0000       0.118950         3.2368 
 259   0.0000       0.123014         3.3474 
 260   0.0000       0.130580         3.5533 
 261   0.0000       0.140870         3.8333 
 262   0.0000       0.143015         3.8916 
 263   0.0000       0.143238         3.8977 
 264   0.0000       0.145659         3.9636 
 265   0.0000       0.146866         3.9964 
 266   0.0000       0.155973         4.2442 
 267   0.0000       0.159499         4.3402 
 268   0.0000       0.166487         4.5303 
 269   0.0000       0.166735         4.5371 
 270   0.0000       0.167741         4.5645 
 271   0.0000       0.168831         4.5941 
 272   0.0000       0.173373         4.7177 
 273   0.0000       0.176585         4.8051 
 274   0.0000       0.181417         4.9366 
 275   0.0000       0.183320         4.9884 
 276   0.0000       0.186359         5.0711 
 277   0.0000       0.191940         5.2230 
 278   0.0000       0.195154         5.3104 
 279   0.0000       0.197111         5.3637 
 280   0.0000       0.199831         5.4377 
 281   0.0000       0.204368         5.5611 
 282   0.0000       0.212628         5.7859 
 283   0.0000       0.213686         5.8147 
 284   0.0000       0.216004         5.8778 
 285   0.0000       0.216975         5.9042 
 286   0.0000       0.217912         5.9297 
 287   0.0000       0.228295         6.2122 
 288   0.0000       0.236395         6.4326 
 289   0.0000       0.238327         6.4852 
 290   0.0000       0.243787         6.6338 
 291   0.0000       0.246886         6.7181 
 292   0.0000       0.248495         6.7619 
 293   0.0000       0.256235         6.9725 
 294   0.0000       0.257756         7.0139 
 295   0.0000       0.258530         7.0350 
 296   0.0000       0.259839         7.0706 
 297   0.0000       0.260197         7.0803 
 298   0.0000       0.265529         7.2254 
 299   0.0000       0.270600         7.3634 
 300   0.0000       0.275357         7.4928 
 301   0.0000       0.284588         7.7440 
 302   0.0000       0.287774         7.8307 
 303   0.0000       0.289880         7.8880 
 304   0.0000       0.291515         7.9325 
 305   0.0000       0.296651         8.0723 
 306   0.0000       0.303267         8.2523 
 307   0.0000       0.307079         8.3560 
 308   0.0000       0.311632         8.4799 
 309   0.0000       0.313761         8.5379 
 310   0.0000       0.314967         8.5707 
 311   0.0000       0.315543         8.5864 
 312   0.0000       0.315632         8.5888 
 313   0.0000       0.317779         8.6472 
 314   0.0000       0.319090         8.6829 
 315   0.0000       0.321783         8.7562 
 316   0.0000       0.327679         8.9166 
 317   0.0000       0.340930         9.2772 
 318   0.0000       0.342833         9.3290 
 319   0.0000       0.346959         9.4412 
 320   0.0000       0.348151         9.4737 
 321   0.0000       0.353204         9.6112 
 322   0.0000       0.354486         9.6461 
 323   0.0000       0.354842         9.6558 
 324   0.0000       0.356167         9.6918 
 325   0.0000       0.358153         9.7458 
 326   0.0000       0.359272         9.7763 
 327   0.0000       0.362166         9.8550 
 328   0.0000       0.365302         9.9404 
 329   0.0000       0.369682        10.0596 
 330   0.0000       0.372868        10.1463 
 331   0.0000       0.376176        10.2363 
 332   0.0000       0.378762        10.3066 
 333   0.0000       0.382136        10.3984 
 334   0.0000       0.383427        10.4336 
 335   0.0000       0.387104        10.5336 
 336   0.0000       0.393323        10.7029 
 337   0.0000       0.394850        10.7444 
 338   0.0000       0.397965        10.8292 
 339   0.0000       0.403918        10.9912 
 340   0.0000       0.408071        11.1042 
 341   0.0000       0.409989        11.1564 
 342   0.0000       0.412222        11.2171 
 343   0.0000       0.413471        11.2511 
 344   0.0000       0.416599        11.3362 
 345   0.0000       0.422837        11.5060 
 346   0.0000       0.423067        11.5122 
 347   0.0000       0.423687        11.5291 
 348   0.0000       0.425918        11.5898 
 349   0.0000       0.426406        11.6031 
 350   0.0000       0.428189        11.6516 
 351   0.0000       0.429477        11.6867 
 352   0.0000       0.430079        11.7030 
 353   0.0000       0.431880        11.7521 
 354   0.0000       0.432715        11.7748 
 355   0.0000       0.433061        11.7842 
 356   0.0000       0.433442        11.7946 
 357   0.0000       0.434083        11.8120 
 358   0.0000       0.436475        11.8771 
 359   0.0000       0.438854        11.9418 
 360   0.0000       0.441336        12.0094 
 361   0.0000       0.444872        12.1056 
 362   0.0000       0.446808        12.1583 
 363   0.0000       0.452987        12.3264 
 364   0.0000       0.454017        12.3544 
 365   0.0000       0.464439        12.6380 
 366   0.0000       0.469126        12.7656 
 367   0.0000       0.473171        12.8756 
 368   0.0000       0.475149        12.9295 
 369   0.0000       0.475763        12.9462 
 370   0.0000       0.478544        13.0218 
 371   0.0000       0.480380        13.0718 
 372   0.0000       0.482073        13.1179 
 373   0.0000       0.483671        13.1613 
 374   0.0000       0.486035        13.2257 
 375   0.0000       0.488270        13.2865 
 376   0.0000       0.492761        13.4087 
 377   0.0000       0.494203        13.4479 
 378   0.0000       0.495619        13.4865 
 379   0.0000       0.499748        13.5988 
 380   0.0000       0.500728        13.6255 
 381   0.0000       0.503002        13.6874 
 382   0.0000       0.508303        13.8316 
 383   0.0000       0.512009        13.9325 
 384   0.0000       0.519309        14.1311 
 385   0.0000       0.523039        14.2326 
 386   0.0000       0.527662        14.3584 
 387   0.0000       0.528702        14.3867 
 388   0.0000       0.529159        14.3992 
 389   0.0000       0.531798        14.4710 
 390   0.0000       0.532819        14.4987 
 391   0.0000       0.534166        14.5354 
 392   0.0000       0.534236        14.5373 
 393   0.0000       0.534752        14.5513 
 394   0.0000       0.536632        14.6025 
 395   0.0000       0.538474        14.6526 
 396   0.0000       0.539837        14.6897 
 397   0.0000       0.544489        14.8163 
 398   0.0000       0.545432        14.8420 
 399   0.0000       0.546754        14.8779 
 400   0.0000       0.547335        14.8937 
[...]
State   Energy  Wavelength   fosc         T2         TX        TY        TZ  
        (cm-1)    (nm)                  (au**2)     (au)      (au)      (au) 
-----------------------------------------------------------------------------
   0   16939.1    590.4   0.004321959   0.08400   0.04759  -0.15554   0.23987
   1   18218.1    548.9   0.000007068   0.00013   0.01125  -0.00021   0.00100
   2   18300.3    546.4   0.000003251   0.00006  -0.00254  -0.00626   0.00358
   3   18889.5    529.4   0.000003941   0.00007  -0.00703   0.00177   0.00402
   4   19096.6    523.7   0.000746929   0.01288   0.11078  -0.00362  -0.02433
   5   19290.5    518.4   0.000001569   0.00003  -0.00412  -0.00075   0.00304
   6   20085.9    497.9   0.000005272   0.00009  -0.00817  -0.00251   0.00365
   7   20659.6    484.0   0.000738822   0.01177  -0.01793   0.05296  -0.09299
   8   21019.8    475.7   0.001973227   0.03090   0.16958   0.04573  -0.00740
   9   21184.4    472.0   0.000197177   0.00306   0.04159  -0.02965  -0.02134
  10   21567.5    463.7   0.000006533   0.00010  -0.00055  -0.00756   0.00650
  11   22007.2    454.4   0.004289947   0.06417  -0.09033  -0.20740  -0.11402
  12   22067.4    453.2   0.001331175   0.01986   0.00662  -0.11921  -0.07486
  13   22665.5    441.2   0.004257772   0.06184   0.06526   0.21109   0.11413
  14   24091.6    415.1   0.020064154   0.27418  -0.09383   0.27048  -0.43842
  15   26564.5    376.4   0.012689114   0.15726   0.04811  -0.21620   0.32894
  16   27315.2    366.1   0.000075242   0.00091  -0.02748  -0.01228  -0.00076
  17   27532.9    363.2   0.002967024   0.03548  -0.18159   0.01843   0.04648
  18   28525.4    350.6   0.018814409   0.21714  -0.04648  -0.39373  -0.24486
  19   28928.3    345.7   0.000182117   0.00207  -0.03102  -0.02306  -0.02405
  20   29057.6    344.1   0.000187148   0.00212   0.02703   0.03330  -0.01675
  21   29159.9    342.9   0.000165746   0.00187  -0.02260  -0.01057  -0.03534
  22   29984.8    333.5   0.018645058   0.20471  -0.12141   0.42686  -0.08806
  23   30084.7    332.4   0.049241203   0.53884  -0.01731   0.36310  -0.63773
  24   30246.0    330.6   0.043883104   0.47764  -0.36752  -0.47077  -0.34777
  25   30448.8    328.4   0.001736725   0.01878   0.01095   0.06388  -0.12073
  26   30570.0    327.1   0.001639016   0.01765  -0.12900  -0.01692   0.02691
  27   31352.3    319.0   0.019989620   0.20990  -0.16668  -0.36729  -0.21729
  28   31523.9    317.2   0.001973673   0.02061   0.05839  -0.04281   0.12397
  29   31729.1    315.2   0.000871366   0.00904   0.03607  -0.06977   0.05359
  30   31800.2    314.5   0.027552880   0.28524   0.09540  -0.31309   0.42204
  31   32059.4    311.9   0.095623209   0.98194   0.17128  -0.46418   0.85857
  32   32079.5    311.7   0.002506305   0.02572  -0.09060  -0.09101   0.09607
  33   32174.5    310.8   0.029067565   0.29742  -0.11893   0.47989   0.23017
  34   32491.5    307.8   0.005225189   0.05294   0.19648   0.03086  -0.11569
  35   32563.6    307.1   0.002134820   0.02158   0.14191  -0.00945   0.03679
  36   32598.7    306.8   0.027297110   0.27567   0.50100   0.15160  -0.04109
  37   32793.0    304.9   0.000341067   0.00342  -0.02896   0.01742   0.04777
  38   33050.0    302.6   0.005778182   0.05756   0.00184  -0.21434  -0.10776
  39   33172.2    301.5   0.001167336   0.01159  -0.06735  -0.03220   0.07754
  40   33263.7    300.6   0.035082842   0.34722   0.55819  -0.00583  -0.18869
  41   33310.3    300.2   0.013325605   0.13170  -0.34871   0.09896   0.01755
  42   33479.7    298.7   0.002614662   0.02571   0.07550  -0.09540   0.10445
  43   33701.3    296.7   0.006204454   0.06061   0.15746  -0.12969  -0.13782
  44   33873.2    295.2   0.023303191   0.22648  -0.24669   0.32046   0.25086
  45   34013.2    294.0   0.000287386   0.00278   0.04102  -0.02969   0.01475
  46   34306.3    291.5   0.051976163   0.49878   0.67564  -0.08452  -0.18746
  47   34340.7    291.2   0.217590560   2.08596   1.36965  -0.20554  -0.40961
  48   34542.1    289.5   0.006296114   0.06001   0.18858  -0.07494  -0.13722
  49   34824.7    287.2   0.033600211   0.31764   0.55856   0.06781   0.03234
  50   34833.6    287.1   0.179544088   1.69687   1.18404   0.54281   0.01682
  51   34973.6    285.9   0.009872867   0.09293  -0.18794  -0.21724  -0.10207
  52   35301.7    283.3   0.011858513   0.11059  -0.10000  -0.00741  -0.31707
  53   35371.2    282.7   0.194897918   1.81398  -0.57243   1.00989   0.68296
  54   35903.9    278.5   0.102244775   0.93751   0.93825   0.22126  -0.09078
  55   36058.4    277.3   0.025799593   0.23555   0.10860  -0.29074   0.37313
  56   36281.0    275.6   0.116900029   1.06074  -0.02890  -0.91298  -0.47579
  57   36368.8    275.0   0.009011319   0.08157   0.00720   0.06063   0.27900
  58   36662.7    272.8   0.070725872   0.63508   0.21903   0.42328   0.63870
  59   36712.8    272.4   0.120776948   1.08303   0.15740  -0.64511   0.80130
  60   37142.9    269.2   0.088917620   0.78811   0.26236  -0.32658   0.78270
  61   37193.3    268.9   0.048482753   0.42914  -0.16093  -0.59078  -0.23286
  62   37306.6    268.0   0.020530833   0.18117   0.10235  -0.20158   0.36064
  63   37380.6    267.5   0.029344576   0.25844   0.07842   0.43678  -0.24802
  64   37859.9    264.1   0.002016018   0.01753   0.01754   0.07903  -0.10477
  65   38613.4    259.0   0.000183751   0.00157  -0.02876  -0.02706   0.00262
  66   39004.4    256.4   0.000089203   0.00075  -0.01444  -0.01600   0.01699
  67   39436.2    253.6   0.009077311   0.07578   0.25807   0.08826  -0.03724
  68   39708.1    251.8   0.032451012   0.26905  -0.13080   0.25568  -0.43193
  69   39866.5    250.8   0.000070258   0.00058   0.02190  -0.00761   0.00653
  70   39943.0    250.4   0.014739935   0.12149  -0.34679   0.02909   0.01936
  71   39957.9    250.3   0.002308715   0.01902   0.07061   0.05373  -0.10559
  72   40020.3    249.9   0.130991914   1.07756   0.99274  -0.09480  -0.28817

-----------------------------------------------------------------------------
         ABSORPTION SPECTRUM VIA TRANSITION VELOCITY DIPOLE MOMENTS
-----------------------------------------------------------------------------
State   Energy  Wavelength   fosc         P2         PX        PY        PZ  
        (cm-1)    (nm)                  (au**2)     (au)      (au)      (au) 
-----------------------------------------------------------------------------
   0   16939.1    590.4   0.006115236   0.00071   0.00466  -0.01417   0.02203
   1   18218.1    548.9   0.000009231   0.00000   0.00105  -0.00014   0.00016
   2   18300.3    546.4   0.000007941   0.00000  -0.00044  -0.00083   0.00033
   3   18889.5    529.4   0.000007432   0.00000  -0.00073   0.00038   0.00054
   4   19096.6    523.7   0.000965218   0.00013   0.01096  -0.00041  -0.00236
   5   19290.5    518.4   0.000001600   0.00000  -0.00035   0.00024  -0.00017
   6   20085.9    497.9   0.000006215   0.00000  -0.00060  -0.00017   0.00068
   7   20659.6    484.0   0.001106742   0.00016  -0.00213   0.00605  -0.01073
   8   21019.8    475.7   0.002422434   0.00035   0.01811   0.00424  -0.00138
   9   21184.4    472.0   0.000265379   0.00004   0.00505  -0.00291  -0.00211
  10   21567.5    463.7   0.000011547   0.00000  -0.00016  -0.00111   0.00066
  11   22007.2    454.4   0.005640729   0.00085  -0.01068  -0.02380  -0.01295
  12   22067.4    453.2   0.001852705   0.00028   0.00143  -0.01417  -0.00876
  13   22665.5    441.2   0.005261932   0.00082   0.00758   0.02394   0.01359
  14   24091.6    415.1   0.022907331   0.00377  -0.01080   0.03172  -0.05147
  15   26564.5    376.4   0.014378451   0.00261   0.00601  -0.02792   0.04236
  16   27315.2    366.1   0.000087699   0.00002  -0.00355  -0.00194  -0.00015
  17   27532.9    363.2   0.003075211   0.00058  -0.02315   0.00254   0.00602
  18   28525.4    350.6   0.019539700   0.00381  -0.00718  -0.05228  -0.03202
  19   28928.3    345.7   0.000159631   0.00003  -0.00262  -0.00339  -0.00363
  20   29057.6    344.1   0.000194530   0.00004   0.00387   0.00444  -0.00198
  21   29159.9    342.9   0.000156646   0.00003  -0.00269  -0.00147  -0.00467
  22   29984.8    333.5   0.018753429   0.00384  -0.01656   0.05862  -0.01153
  23   30084.7    332.4   0.048531859   0.00998  -0.00198   0.04923  -0.08690
  24   30246.0    330.6   0.044683851   0.00924  -0.05017  -0.06611  -0.04846
  25   30448.8    328.4   0.001638130   0.00034   0.00215   0.00913  -0.01590
  26   30570.0    327.1   0.001627252   0.00034  -0.01790  -0.00241   0.00371
  27   31352.3    319.0   0.021929635   0.00470  -0.02494  -0.05508  -0.03230
  28   31523.9    317.2   0.001863597   0.00040   0.00775  -0.00580   0.01754
  29   31729.1    315.2   0.000877679   0.00019   0.00533  -0.00995   0.00793
  30   31800.2    314.5   0.025110758   0.00546   0.01352  -0.04346   0.05819
  31   32059.4    311.9   0.092297865   0.02022   0.02413  -0.06677   0.12322
  32   32079.5    311.7   0.002370192   0.00052  -0.01308  -0.01121   0.01493
  33   32174.5    310.8   0.029018821   0.00638  -0.01760   0.07009   0.03403
  34   32491.5    307.8   0.005232452   0.00116   0.02969   0.00592  -0.01567
  35   32563.6    307.1   0.002187364   0.00049   0.02115  -0.00174   0.00605
  36   32598.7    306.8   0.026155687   0.00583   0.07307   0.02095  -0.00705
  37   32793.0    304.9   0.000265015   0.00006  -0.00513   0.00046   0.00573
  38   33050.0    302.6   0.005931915   0.00134  -0.00015  -0.03283  -0.01619
  39   33172.2    301.5   0.001115627   0.00025  -0.00981  -0.00481   0.01156
  40   33263.7    300.6   0.032751352   0.00745   0.08191  -0.00035  -0.02713
  41   33310.3    300.2   0.012506571   0.00285  -0.05138   0.01416   0.00258
  42   33479.7    298.7   0.002180162   0.00050   0.01057  -0.01343   0.01438
  43   33701.3    296.7   0.006050580   0.00139   0.02286  -0.02065  -0.02109
  44   33873.2    295.2   0.022087452   0.00511  -0.03653   0.04843   0.03786
  45   34013.2    294.0   0.000285434   0.00007   0.00616  -0.00483   0.00226
  46   34306.3    291.5   0.048396361   0.01135   0.10181  -0.01210  -0.02890
  47   34340.7    291.2   0.202166144   0.04745   0.20653  -0.03088  -0.06198
  48   34542.1    289.5   0.005750872   0.00136   0.02878  -0.01147  -0.01994
  49   34824.7    287.2   0.031710436   0.00755   0.08613   0.00903   0.00695
  50   34833.6    287.1   0.166392676   0.03961   0.18087   0.08306   0.00120
  51   34973.6    285.9   0.009002478   0.00215  -0.02871  -0.03282  -0.01582
  52   35301.7    283.3   0.012815159   0.00309  -0.01651   0.00085  -0.05309
  53   35371.2    282.7   0.181471629   0.04387  -0.08860   0.15770   0.10560
  54   35903.9    278.5   0.092976991   0.02282   0.14644   0.03400  -0.01462
  55   36058.4    277.3   0.024633357   0.00607   0.01748  -0.04681   0.05978
  56   36281.0    275.6   0.106744023   0.02647  -0.00456  -0.14435  -0.07491
  57   36368.8    275.0   0.008308502   0.00207   0.00116   0.00937   0.04445
  58   36662.7    272.8   0.064851626   0.01625   0.03534   0.06820   0.10174
  59   36712.8    272.4   0.108816872   0.02730   0.02494  -0.10264   0.12707
  60   37142.9    269.2   0.080422436   0.02042   0.04207  -0.05270   0.12597
  61   37193.3    268.9   0.044215316   0.01124  -0.02546  -0.09551  -0.03834
  62   37306.6    268.0   0.019630906   0.00501   0.01686  -0.03405   0.05968
  63   37380.6    267.5   0.026856205   0.00686   0.01227   0.07080  -0.04121
  64   37859.9    264.1   0.001811084   0.00047   0.00342   0.01352  -0.01656
  65   38613.4    259.0   0.000117658   0.00003  -0.00458  -0.00294   0.00118
  66   39004.4    256.4   0.000077921   0.00002  -0.00276  -0.00271   0.00240
  67   39436.2    253.6   0.008260891   0.00223   0.04477   0.01320  -0.00694
  68   39708.1    251.8   0.029527761   0.00801  -0.02232   0.04423  -0.07456
  69   39866.5    250.8   0.000111576   0.00003   0.00426  -0.00229   0.00265
  70   39943.0    250.4   0.013432693   0.00367  -0.06028   0.00557   0.00143
  71   39957.9    250.3   0.002480260   0.00068   0.01163   0.01100  -0.02052
  72   40020.3    249.9   0.122759179   0.03358   0.17499  -0.01767  -0.05141

-------------------------------------------------------------------
                             CD SPECTRUM
-------------------------------------------------------------------
State   Energy Wavelength       R         MX        MY        MZ   
        (cm-1)   (nm)       (1e40*cgs)   (au)      (au)      (au)  
-------------------------------------------------------------------
   0   16939.1    590.4      2.23768   0.37425   1.41572   0.80418
   1   18218.1    548.9     -9.62690   3.72411  -0.52188  -1.17986
   2   18300.3    546.4     -0.11352  -0.39934   0.18452   0.17392
   3   18889.5    529.4      0.73202  -0.56259   1.51740  -2.42508
   4   19096.6    523.7      0.72774  -0.07285   0.23349  -0.23959
   5   19290.5    518.4      0.36714   0.99787   2.78917   1.52670
   6   20085.9    497.9      2.85948   1.36850  -0.31177  -0.47471
   7   20659.6    484.0      0.72385   0.58376   0.67702   0.30602
   8   21019.8    475.7      0.14689   0.03449  -0.10672   0.21500
   9   21184.4    472.0     -0.31789   0.03512  -0.17489   0.24823
  10   21567.5    463.7      0.93287   2.31456  -0.25000  -0.70294
  11   22007.2    454.4     -1.56008  -0.54703   1.44903  -2.26055
  12   22067.4    453.2      0.09651  -0.27215   0.83646  -1.35065
  13   22665.5    441.2      0.17926   0.23595  -0.75872   1.26173
  14   24091.6    415.1      2.62077   0.55509   2.22294   1.27796
  15   26564.5    376.4     -2.63575  -0.14878  -0.86006  -0.50952
  16   27315.2    366.1      0.08787   0.02787  -0.02966  -0.03811
  17   27532.9    363.2      0.18881   0.01612  -0.04217   0.06248
  18   28525.4    350.6      0.91817  -0.00924   0.14030  -0.20793
  19   28928.3    345.7      0.18028   0.00436   0.01278   0.01392
  20   29057.6    344.1     -2.16701   0.31262  -0.02105  -0.08616
  21   29159.9    342.9      0.55797   0.13459   0.03907  -0.03079
  22   29984.8    333.5     -9.09965   0.11292   0.21433   0.44489
  23   30084.7    332.4     -7.07898   0.17513   0.85048   0.43239
  24   30246.0    330.6      8.93825  -0.01747   0.34669  -0.34181
  25   30448.8    328.4      5.52153  -0.62058   0.24787   0.26887
  26   30570.0    327.1     -5.74278  -0.17987   0.00633   0.04706
  27   31352.3    319.0      0.61661  -0.08220   0.25083  -0.34889
  28   31523.9    317.2      2.46512  -0.34784  -0.08451   0.05029
  29   31729.1    315.2      0.16843  -0.00305  -0.04270  -0.06686
  30   31800.2    314.5      0.92105  -0.06947  -0.54979  -0.40141
  31   32059.4    311.9      2.36811   0.02298  -0.97630  -0.54412
  32   32079.5    311.7      3.29257  -0.03629  -0.03425  -0.21206
  33   32174.5    310.8     -6.49322   0.03337  -0.09440   0.33373
  34   32491.5    307.8      3.24302  -0.02676   0.04012   0.08418
  35   32563.6    307.1      9.36371  -0.27832  -0.06119  -0.02184
  36   32598.7    306.8     -9.96169   0.05382   0.08840  -0.04608
  37   32793.0    304.9     -0.29997  -0.03009  -0.03679   0.02182
  38   33050.0    302.6     -1.76872   0.10248   0.02948  -0.12653
  39   33172.2    301.5     14.59161   0.69252  -0.38568  -0.35698
  40   33263.7    300.6    -43.52331   0.29673   0.28110  -0.10940
  41   33310.3    300.2     28.38648   0.39391   0.14478   0.14867
  42   33479.7    298.7     -0.76229  -0.10076  -0.39224  -0.25446
  43   33701.3    296.7      2.96527   0.05065  -0.00159   0.15062
  44   33873.2    295.2     -0.72321   0.10862  -0.33623   0.54856
  45   34013.2    294.0     -1.58384  -0.08048  -0.49523  -0.31752
  46   34306.3    291.5     99.06965  -0.58618   0.12900   0.07112
  47   34340.7    291.2    -105.49484   0.26409   0.12276  -0.27115
  48   34542.1    289.5      2.40222  -0.00562   0.07977   0.02299
  49   34824.7    287.2    -24.60635   0.11052   0.54593   0.17430
  50   34833.6    287.1     23.86416  -0.08620   0.00856  -0.22729
  51   34973.6    285.9     -1.66253   0.02525  -0.05981   0.01172
  52   35301.7    283.3      8.09701   0.22517   0.19421   0.03278
  53   35371.2    282.7    -18.59594  -0.03087  -0.12316   0.27174
  54   35903.9    278.5     -4.11731   0.03324  -0.00446   0.14032
  55   36058.4    277.3      0.98470   0.16169  -0.04188  -0.09089
  56   36281.0    275.6      1.68833   0.18478   0.48115  -0.91943
  57   36368.8    275.0     27.50711   1.62873  -0.35734  -0.38265
  58   36662.7    272.8     -3.56795  -0.01524   0.11141  -0.04491
  59   36712.8    272.4     -4.79615  -0.21563   0.29026   0.30143
  60   37142.9    269.2    -11.83254   0.49625   0.56646   0.13414
  61   37193.3    268.9     10.13801   0.20641  -0.17330   0.48170
  62   37306.6    268.0     -6.08608   0.12094  -0.08900  -0.01248
  63   37380.6    267.5     -2.63343  -0.17527  -0.02318  -0.14128
  64   37859.9    264.1      5.53345  -0.63763   0.02183   0.13380
  65   38613.4    259.0     -0.19498  -0.19629   0.16054  -0.18058
  66   39004.4    256.4     -6.74033  -1.59240   0.16033   0.48082
  67   39436.2    253.6      8.69071  -0.23600   0.22555  -0.11093
  68   39708.1    251.8      9.66308   0.36631   2.72756   1.59851
  69   39866.5    250.8     -5.20637   1.05565  -0.16243  -0.34740
  70   39943.0    250.4     37.05702   0.50072   0.48695   0.11750
  71   39957.9    250.3    -12.90818   0.80999   0.67807   0.36804
  72   40020.3    249.9    -30.96841   0.07152   0.42567  -0.34955

sTD-DFT done

Total run time:        3.288 sec

           *** ORCA-CIS/TD-DFT FINISHED WITHOUT ERROR ***

-------------------------   --------------------
FINAL SINGLE POINT ENERGY     -2898.711010320586
-------------------------   --------------------


                            ***************************************
                            *     ORCA property calculations      *
                            ***************************************

                                    ---------------------
                                    Active property flags
                                    ---------------------
   (+) Dipole Moment


------------------------------------------------------------------------------
                       ORCA ELECTRIC PROPERTIES CALCULATION
------------------------------------------------------------------------------

Dipole Moment Calculation                       ... on
Quadrupole Moment Calculation                   ... off
Polarizability Calculation                      ... off
GBWName                                         ... PCBM.gbw
Electron density file                           ... PCBM.scfp
The origin for moment calculation is the CENTER OF MASS  = (-1.356706, -1.138065 -0.329389)

-------------
DIPOLE MOMENT
-------------
                                X             Y             Z
Electronic contribution:    -72.09518      22.01049      13.73720
Nuclear contribution   :     73.42731     -22.32570     -14.49782
                        -----------------------------------------
Total Dipole Moment    :      1.33213      -0.31521      -0.76062
                        -----------------------------------------
Magnitude (a.u.)       :      1.56604
Magnitude (Debye)      :      3.98056



--------------------
Rotational spectrum 
--------------------
 
Rotational constants in cm-1:     0.002214     0.001169     0.001072 
Rotational constants in MHz :    66.386768    35.039189    32.136526 

 Dipole components along the rotational axes: 
x,y,z [a.u.] :     1.459818     0.137687     0.549963 
x,y,z [Debye]:     3.710562     0.349973     1.397895 

 

Timings for individual modules:

Sum of individual times         ...     4987.138 sec (=  83.119 min)
GTO integral calculation        ...        3.851 sec (=   0.064 min)   0.1 %
SCF iterations                  ...     4979.947 sec (=  82.999 min)  99.9 %
CIS module                      ...        3.340 sec (=   0.056 min)   0.1 %
                             ****ORCA TERMINATED NORMALLY****
TOTAL RUN TIME: 0 days 1 hours 23 minutes 7 seconds 603 msec
