
                                 *****************
                                 * O   R   C   A *
                                 *****************

           --- An Ab Initio, DFT and Semiempirical electronic structure package ---

                  #######################################################
                  #                        -***-                        #
                  #          Department of theory and spectroscopy      #
                  #               Directorship: Frank Neese             #
                  #        Max Planck Institute fuer Kohlenforschung    #
                  #                Kaiser Wilhelm Platz 1               #
                  #                 D-45470 Muelheim/Ruhr               #
                  #                      Germany                        #
                  #                                                     #
                  #                  All rights reserved                #
                  #                        -***-                        #
                  #######################################################


                         Program Version 4.2.0 -  RELEASE  -


 With contributions from (in alphabetic order):
   Daniel Aravena         : Magnetic Suceptibility
   Michael Atanasov       : Ab Initio Ligand Field Theory (pilot matlab implementation)
   Alexander A. Auer      : GIAO ZORA, VPT2
   Ute Becker             : Parallelization
   Giovanni Bistoni       : ED, misc. LED, open-shell LED, HFLED
   Martin Brehm           : Molecular dynamics
   Dmytro Bykov           : SCF Hessian
   Vijay G. Chilkuri      : MRCI spin determinant printing, contributions to CSF-ICE
   Dipayan Datta          : RHF DLPNO-CCSD density
   Achintya Kumar Dutta   : EOM-CC, STEOM-CC
   Dmitry Ganyushin       : Spin-Orbit,Spin-Spin,Magnetic field MRCI
   Miquel Garcia          : C-PCM Hessian, Gaussian charge scheme
   Yang Guo               : DLPNO-NEVPT2, CIM, IAO-localization
   Andreas Hansen         : Spin unrestricted coupled pair/coupled cluster methods
   Benjamin Helmich-Paris : CASSCF linear response (MC-RPA)
   Lee Huntington         : MR-EOM, pCC
   Robert Izsak           : Overlap fitted RIJCOSX, COSX-SCS-MP3, EOM
   Christian Kollmar      : KDIIS, OOCD, Brueckner-CCSD(T), CCSD density
   Simone Kossmann        : Meta GGA functionals, TD-DFT gradient, OOMP2, MP2 Hessian
   Martin Krupicka        : AUTO-CI
   Lucas Lang             : DCDCAS
   Dagmar Lenk            : GEPOL surface, SMD
   Dimitrios Liakos       : Extrapolation schemes; Compound Job, initial MDCI parallelization
   Dimitrios Manganas     : Further ROCIS development; embedding schemes
   Dimitrios Pantazis     : SARC Basis sets
   Taras Petrenko         : DFT Hessian,TD-DFT gradient, ASA, ECA, R-Raman, ABS, FL, XAS/XES, NRVS
   Peter Pinski           : DLPNO-MP2, DLPNO-MP2 Gradient
   Christoph Reimann      : Effective Core Potentials
   Marius Retegan         : Local ZFS, SOC
   Christoph Riplinger    : Optimizer, TS searches, QM/MM, DLPNO-CCSD(T), (RO)-DLPNO pert. Triples
   Tobias Risthaus        : Range-separated hybrids, TD-DFT gradient, RPA, STAB
   Michael Roemelt        : Original ROCIS implementation
   Masaaki Saitow         : Open-shell DLPNO-CCSD energy and density
   Barbara Sandhoefer     : DKH picture change effects
   Avijit Sen             : IP-ROCIS
   Kantharuban Sivalingam : CASSCF convergence, NEVPT2, FIC-MRCI
   Bernardo de Souza      : ESD, SOC TD-DFT
   Georgi Stoychev        : AutoAux, RI-MP2 NMR
   Willem Van den Heuvel  : Paramagnetic NMR
   Boris Wezisla          : Elementary symmetry handling
   Frank Wennmohs         : Technical directorship


 We gratefully acknowledge several colleagues who have allowed us to
 interface, adapt or use parts of their codes:
   Stefan Grimme, W. Hujo, H. Kruse,             : VdW corrections, initial TS optimization,
                  C. Bannwarth                     DFT functionals, gCP, sTDA/sTD-DF
   Ed Valeev, F. Pavosevic, A. Kumar             : LibInt (2-el integral package), F12 methods
   Garnet Chan, S. Sharma, J. Yang, R. Olivares  : DMRG
   Ulf Ekstrom                                   : XCFun DFT Library
   Mihaly Kallay                                 : mrcc  (arbitrary order and MRCC methods)
   Andreas Klamt, Michael Diedenhofen            : otool_cosmo (COSMO solvation model)
   Jiri Pittner, Ondrej Demel                    : Mk-CCSD
   Frank Weinhold                                : gennbo (NPA and NBO analysis)
   Christopher J. Cramer and Donald G. Truhlar   : smd solvation model
   Lars Goerigk                                  : TD-DFT with DH, B97 family of functionals
   V. Asgeirsson, H. Jonsson                     : NEB implementation
   FAccTs GmbH                                   : IRC, NEB, NEB-TS, Multilevel, MM, QM/MM, CI optimization
   S Lehtola, MJT Oliveira, MAL Marques          : LibXC Library


 Your calculation uses the libint2 library for the computation of 2-el integrals
 For citations please refer to: http://libint.valeyev.net

 Your ORCA version has been built with support for libXC version: 4.2.3
 For citations please refer to: https://tddft.org/programs/libxc/

 This ORCA versions uses:
   CBLAS   interface :  Fast vector & matrix operations
   LAPACKE interface :  Fast linear algebra routines
   SCALAPACK package :  Parallel linear algebra routines


XCFun DFT library Copyright 2009-2010 Ulf Ekstrom and contributors.
See http://admol.org/xcfun for more information. This is free soft-
ware; see the source code for copying conditions. There is ABSOLUTELY
NO WARRANTY; not even for MERCHANTABILITY or FITNESS FOR A PARTICULAR
PURPOSE. For details see the documentation. Scientific users of this 
library should cite U. Ekstrom, L. Visscher, R. Bast, A. J. Thorvald-
sen and K. Ruud; J.Chem.Theor.Comp. 2010, DOI: 10.1021/ct100117s
XCFun Version 0.99 
----- Orbital basis set information -----
Your calculation utilizes the basis: def2-SVP
   F. Weigend and R. Ahlrichs, Phys. Chem. Chem. Phys. 7, 3297 (2005).

----- AuxJ basis set information -----
Your calculation utilizes the auxiliary basis: def2/J
   F. Weigend, Phys. Chem. Chem. Phys. 8, 1057 (2006).

================================================================================
                                        WARNINGS
                       Please study these warnings very carefully!
================================================================================

INFO   : Checking CIS options ...

WARNING: CIS/ROCIS methods need fully converged wavefunctions
  ===> : Setting SCFConvForced true
         You can overwrite this default with %scf ConvForced false 


INFO   : the flag for use of LIBINT has been found!

================================================================================
                                       INPUT FILE
================================================================================
NAME = SeTIC4Cl.inp
|  1> # ORCA input file
|  2> # SeTIC4Cl.out: Geometry 23
|  3> ! CAM-B3LYP def2-SVP def2/J RIJCOSX Grid4 TightSCF
|  4> %maxcore 5000
|  5> %tddft
|  6>     Mode sTDDFT
|  7>     Ethresh 5.0
|  8>     maxcore 5000
|  9> end
| 10> * xyz 0 1
| 11>    C        0.78612        -0.35759         0.47975
| 12>    C        2.05516        -0.95743         0.50598
| 13>    C        3.16081        -0.13159         0.37709
| 14>    C        3.01016         1.27131         0.19609
| 15>    C        1.74391         1.87594         0.20631
| 16>    C        0.64046         1.05244         0.35687
| 17>    C        4.64960        -0.52275         0.39465
| 18>    C        5.29658         0.82270         0.07545
| 19>    C        4.33601         1.82147         0.02364
| 20>    C       -0.84216         1.45785         0.41569
| 21>    C       -1.50102         0.08883         0.51419
| 22>    C       -0.54839        -0.91741         0.53741
| 23>    C        5.12329        -0.89343         1.81143
| 24>    C        4.87157        -1.60541        -0.66020
| 25>    C       -1.02027         2.29340         1.69022
| 26>    C       -1.33453         2.11024        -0.87941
| 27>    C       -2.83093        -0.37851         0.52581
| 28>    C       -2.96442        -1.78734         0.53796
| 29>   Se       -1.27724        -2.65319         0.56425
| 30>    S       -4.37717         0.39509         0.49788
| 31>    C       -5.20174        -1.16689         0.45904
| 32>    C       -4.29123        -2.22920         0.48730
| 33>    C        6.61929         1.29352        -0.07161
| 34>    C        6.72818         2.69546        -0.24393
| 35>   Se        5.03410         3.55017        -0.22600
| 36>    S        8.16395         0.51011        -0.11955
| 37>    C        8.97697         2.07289        -0.34245
| 38>    C        8.04450         3.13073        -0.38250
| 39>    C        4.45589        -0.39928         2.93909
| 40>    C        4.96079        -0.61678         4.22132
| 41>    C        6.15028        -1.32788         4.42343
| 42>    C        6.81435        -1.82194         3.29004
| 43>    C        6.31451        -1.60704         2.00507
| 44>    C        4.61676        -2.95191        -0.35851
| 45>    C        4.62528        -3.92032        -1.36097
| 46>    C        4.89330        -3.58305        -2.69703
| 47>    C        5.18399        -2.24306        -2.98467
| 48>    C        5.17337        -1.26840        -1.98472
| 49>    C       -1.26746         1.66589         2.91789
| 50>    C       -1.23079         2.38610         4.11236
| 51>    C       -0.94987         3.75842         4.12351
| 52>    C       -0.74186         4.39035         2.88744
| 53>    C       -0.77414         3.67413         1.69081
| 54>    C       -0.71905         1.80474        -2.10024
| 55>    C       -1.25747         2.26013        -3.30273
| 56>    C       -2.42741         3.02960        -3.33125
| 57>    C       -3.03517         3.34035        -2.10536
| 58>    C       -2.50135         2.88632        -0.89931
| 59>    C       -6.62169        -1.19838         0.47808
| 60>    C       -7.49887        -2.20887         0.16154
| 61>    C       -7.38533        -3.46183        -0.57348
| 62>    C       -8.54639        -4.30023        -0.18217
| 63>    C       -9.44257        -3.51528         0.57206
| 64>    C       -8.87553        -2.15178         0.75744
| 65>    C       -8.85461        -5.63711        -0.44124
| 66>    C      -10.04652        -6.16660         0.07054
| 67>    C      -10.94019        -5.36507         0.81528
| 68>    C      -10.63442        -4.02313         1.06560
| 69>   Cl      -12.41354        -6.02861         1.43582
| 70>   Cl      -10.40540        -7.83464        -0.22312
| 71>    O       -9.39255        -1.21096         1.32188
| 72>    C       -6.50820        -3.75887        -1.60296
| 73>    C       -6.53376        -5.00822        -2.29700
| 74>    C       -5.58444        -2.80690        -2.13045
| 75>    N       -6.53542        -6.02642        -2.85734
| 76>    N       -4.84441        -2.03752        -2.58953
| 77>    C        6.68636        -1.57899         5.81388
| 78>    C        6.56374        -3.04318         6.25065
| 79>    C        4.81609        -4.62454        -3.78938
| 80>    C        3.37220        -4.91184        -4.23271
| 81>    C       -0.81056         4.52078         5.42029
| 82>    C        0.65516         4.68962         5.84654
| 83>    C       -3.00883         3.52416        -4.63413
| 84>    C       -2.88439         5.04064        -4.80561
| 85>    C       10.36238         2.35237        -0.45117
| 86>    C       11.49567         1.56523        -0.48354
| 87>    C       12.88066         2.02807        -0.59840
| 88>    C       13.74375         0.81899        -0.63908
| 89>    C       12.92875        -0.32631        -0.55835
| 90>    C       11.50658         0.08303        -0.45429
| 91>    C       15.12873         0.66008        -0.73632
| 92>    C       15.66342        -0.63532        -0.75846
| 93>    C       14.83003        -1.77271        -0.67937
| 94>    C       13.44438        -1.61244        -0.57761
| 95>   Cl       15.49948        -3.36923        -0.70542
| 96>   Cl       17.38085        -0.82093        -0.88734
| 97>    O       10.55113        -0.66939        -0.37304
| 98>    C       13.34845         3.33039        -0.66383
| 99>    C       14.73461         3.65242        -0.80485
|100>    C       12.50511         4.48449        -0.60569
|101>    N       11.84437         5.44049        -0.56137
|102>    N       15.85492         3.93892        -0.92370
|103>    H        2.16686        -2.03758         0.61829
|104>    H        1.63191         2.95532         0.08473
|105>    H       -4.60607        -3.27163         0.49848
|106>    H        8.36234         4.16651        -0.50951
|107>    H        3.53453         0.17194         2.81846
|108>    H        4.42146        -0.21363         5.08229
|109>    H        7.74962        -2.37483         3.41218
|110>    H        6.86137        -1.99755         1.14569
|111>    H        4.40346        -3.24526         0.67135
|112>    H        4.40966        -4.96074        -1.10044
|113>    H        5.42207        -1.95178        -4.01153
|114>    H        5.38993        -0.23014        -2.24386
|115>    H       -1.47593         0.59528         2.94421
|116>    H       -1.42145         1.86783         5.05620
|117>    H       -0.53292         5.46373         2.86401
|118>    H       -0.59758         4.19443         0.74754
|119>    H        0.18234         1.19056        -2.11481
|120>    H       -0.76414         1.99683        -4.24208
|121>    H       -3.95296         3.93432        -2.09476
|122>    H       -3.00395         3.13501         0.03701
|123>    H       -7.12094        -0.31543         0.89863
|124>    H       -8.19998        -6.29145        -1.01236
|125>    H      -11.31631        -3.39397         1.63934
|126>    H        6.15201        -0.93371         6.52883
|127>    H        7.74623        -1.27234         5.85730
|128>    H        5.51148        -3.36852         6.25338
|129>    H        6.97377        -3.19110         7.26235
|130>    H        7.11365        -3.70796         5.56735
|131>    H        5.28256        -5.55931        -3.43541
|132>    H        5.40798        -4.28869        -4.65603
|133>    H        2.76685        -5.28504        -3.39110
|134>    H        3.33963        -5.66940        -5.03209
|135>    H        2.88592        -3.99887        -4.61153
|136>    H       -1.36782         3.99809         6.21439
|137>    H       -1.27594         5.51495         5.31499
|138>    H        1.13343         3.71162         6.01353
|139>    H        0.73564         5.27404         6.77679
|140>    H        1.23326         5.21143         5.06729
|141>    H       -4.07228         3.23335        -4.68977
|142>    H       -2.50779         3.01127        -5.46990
|143>    H       -3.41017         5.57693        -4.00089
|144>    H       -3.31646         5.37125        -5.76333
|145>    H       -1.82941         5.35573        -4.77617
|146>    H       10.52865         3.42685        -0.52810
|147>    H       15.81415         1.50110        -0.80067
|148>    H       12.78470        -2.47831        -0.51291
|149> *
|150> 
|151>                          ****END OF INPUT****
================================================================================

                       ****************************
                       * Single Point Calculation *
                       ****************************

---------------------------------
CARTESIAN COORDINATES (ANGSTROEM)
---------------------------------
  C      0.786120   -0.357590    0.479750
  C      2.055160   -0.957430    0.505980
  C      3.160810   -0.131590    0.377090
  C      3.010160    1.271310    0.196090
  C      1.743910    1.875940    0.206310
  C      0.640460    1.052440    0.356870
  C      4.649600   -0.522750    0.394650
  C      5.296580    0.822700    0.075450
  C      4.336010    1.821470    0.023640
  C     -0.842160    1.457850    0.415690
  C     -1.501020    0.088830    0.514190
  C     -0.548390   -0.917410    0.537410
  C      5.123290   -0.893430    1.811430
  C      4.871570   -1.605410   -0.660200
  C     -1.020270    2.293400    1.690220
  C     -1.334530    2.110240   -0.879410
  C     -2.830930   -0.378510    0.525810
  C     -2.964420   -1.787340    0.537960
  Se    -1.277240   -2.653190    0.564250
  S     -4.377170    0.395090    0.497880
  C     -5.201740   -1.166890    0.459040
  C     -4.291230   -2.229200    0.487300
  C      6.619290    1.293520   -0.071610
  C      6.728180    2.695460   -0.243930
  Se     5.034100    3.550170   -0.226000
  S      8.163950    0.510110   -0.119550
  C      8.976970    2.072890   -0.342450
  C      8.044500    3.130730   -0.382500
  C      4.455890   -0.399280    2.939090
  C      4.960790   -0.616780    4.221320
  C      6.150280   -1.327880    4.423430
  C      6.814350   -1.821940    3.290040
  C      6.314510   -1.607040    2.005070
  C      4.616760   -2.951910   -0.358510
  C      4.625280   -3.920320   -1.360970
  C      4.893300   -3.583050   -2.697030
  C      5.183990   -2.243060   -2.984670
  C      5.173370   -1.268400   -1.984720
  C     -1.267460    1.665890    2.917890
  C     -1.230790    2.386100    4.112360
  C     -0.949870    3.758420    4.123510
  C     -0.741860    4.390350    2.887440
  C     -0.774140    3.674130    1.690810
  C     -0.719050    1.804740   -2.100240
  C     -1.257470    2.260130   -3.302730
  C     -2.427410    3.029600   -3.331250
  C     -3.035170    3.340350   -2.105360
  C     -2.501350    2.886320   -0.899310
  C     -6.621690   -1.198380    0.478080
  C     -7.498870   -2.208870    0.161540
  C     -7.385330   -3.461830   -0.573480
  C     -8.546390   -4.300230   -0.182170
  C     -9.442570   -3.515280    0.572060
  C     -8.875530   -2.151780    0.757440
  C     -8.854610   -5.637110   -0.441240
  C    -10.046520   -6.166600    0.070540
  C    -10.940190   -5.365070    0.815280
  C    -10.634420   -4.023130    1.065600
  Cl   -12.413540   -6.028610    1.435820
  Cl   -10.405400   -7.834640   -0.223120
  O     -9.392550   -1.210960    1.321880
  C     -6.508200   -3.758870   -1.602960
  C     -6.533760   -5.008220   -2.297000
  C     -5.584440   -2.806900   -2.130450
  N     -6.535420   -6.026420   -2.857340
  N     -4.844410   -2.037520   -2.589530
  C      6.686360   -1.578990    5.813880
  C      6.563740   -3.043180    6.250650
  C      4.816090   -4.624540   -3.789380
  C      3.372200   -4.911840   -4.232710
  C     -0.810560    4.520780    5.420290
  C      0.655160    4.689620    5.846540
  C     -3.008830    3.524160   -4.634130
  C     -2.884390    5.040640   -4.805610
  C     10.362380    2.352370   -0.451170
  C     11.495670    1.565230   -0.483540
  C     12.880660    2.028070   -0.598400
  C     13.743750    0.818990   -0.639080
  C     12.928750   -0.326310   -0.558350
  C     11.506580    0.083030   -0.454290
  C     15.128730    0.660080   -0.736320
  C     15.663420   -0.635320   -0.758460
  C     14.830030   -1.772710   -0.679370
  C     13.444380   -1.612440   -0.577610
  Cl    15.499480   -3.369230   -0.705420
  Cl    17.380850   -0.820930   -0.887340
  O     10.551130   -0.669390   -0.373040
  C     13.348450    3.330390   -0.663830
  C     14.734610    3.652420   -0.804850
  C     12.505110    4.484490   -0.605690
  N     11.844370    5.440490   -0.561370
  N     15.854920    3.938920   -0.923700
  H      2.166860   -2.037580    0.618290
  H      1.631910    2.955320    0.084730
  H     -4.606070   -3.271630    0.498480
  H      8.362340    4.166510   -0.509510
  H      3.534530    0.171940    2.818460
  H      4.421460   -0.213630    5.082290
  H      7.749620   -2.374830    3.412180
  H      6.861370   -1.997550    1.145690
  H      4.403460   -3.245260    0.671350
  H      4.409660   -4.960740   -1.100440
  H      5.422070   -1.951780   -4.011530
  H      5.389930   -0.230140   -2.243860
  H     -1.475930    0.595280    2.944210
  H     -1.421450    1.867830    5.056200
  H     -0.532920    5.463730    2.864010
  H     -0.597580    4.194430    0.747540
  H      0.182340    1.190560   -2.114810
  H     -0.764140    1.996830   -4.242080
  H     -3.952960    3.934320   -2.094760
  H     -3.003950    3.135010    0.037010
  H     -7.120940   -0.315430    0.898630
  H     -8.199980   -6.291450   -1.012360
  H    -11.316310   -3.393970    1.639340
  H      6.152010   -0.933710    6.528830
  H      7.746230   -1.272340    5.857300
  H      5.511480   -3.368520    6.253380
  H      6.973770   -3.191100    7.262350
  H      7.113650   -3.707960    5.567350
  H      5.282560   -5.559310   -3.435410
  H      5.407980   -4.288690   -4.656030
  H      2.766850   -5.285040   -3.391100
  H      3.339630   -5.669400   -5.032090
  H      2.885920   -3.998870   -4.611530
  H     -1.367820    3.998090    6.214390
  H     -1.275940    5.514950    5.314990
  H      1.133430    3.711620    6.013530
  H      0.735640    5.274040    6.776790
  H      1.233260    5.211430    5.067290
  H     -4.072280    3.233350   -4.689770
  H     -2.507790    3.011270   -5.469900
  H     -3.410170    5.576930   -4.000890
  H     -3.316460    5.371250   -5.763330
  H     -1.829410    5.355730   -4.776170
  H     10.528650    3.426850   -0.528100
  H     15.814150    1.501100   -0.800670
  H     12.784700   -2.478310   -0.512910

----------------------------
CARTESIAN COORDINATES (A.U.)
----------------------------
  NO LB      ZA    FRAG     MASS         X           Y           Z
   0 C     6.0000    0    12.011    1.485552   -0.675747    0.906596
   1 C     6.0000    0    12.011    3.883690   -1.809280    0.956164
   2 C     6.0000    0    12.011    5.973065   -0.248669    0.712597
   3 C     6.0000    0    12.011    5.688378    2.402428    0.370556
   4 C     6.0000    0    12.011    3.295512    3.545013    0.389869
   5 C     6.0000    0    12.011    1.210294    1.988823    0.674387
   6 C     6.0000    0    12.011    8.786471   -0.987854    0.745780
   7 C     6.0000    0    12.011   10.009086    1.554678    0.142580
   8 C     6.0000    0    12.011    8.193871    3.442079    0.044673
   9 C     6.0000    0    12.011   -1.591452    2.754937    0.785540
  10 C     6.0000    0    12.011   -2.836517    0.167864    0.971678
  11 C     6.0000    0    12.011   -1.036307   -1.733654    1.015558
  12 C     6.0000    0    12.011    9.681615   -1.688338    3.423107
  13 C     6.0000    0    12.011    9.205933   -3.033785   -1.247597
  14 C     6.0000    0    12.011   -1.928031    4.333898    3.194053
  15 C     6.0000    0    12.011   -2.521896    3.987776   -1.661844
  16 C     6.0000    0    12.011   -5.349682   -0.715280    0.993637
  17 C     6.0000    0    12.011   -5.601942   -3.377583    1.016597
  18 Se   34.0000    0    78.960   -2.413634   -5.013802    1.066278
  19 S    16.0000    0    32.060   -8.271653    0.746612    0.940857
  20 C     6.0000    0    12.011   -9.829864   -2.205103    0.867460
  21 C     6.0000    0    12.011   -8.109249   -4.212577    0.920864
  22 C     6.0000    0    12.011   12.508645    2.444399   -0.135323
  23 C     6.0000    0    12.011   12.714418    5.093681   -0.460961
  24 Se   34.0000    0    78.960    9.513070    6.708849   -0.427078
  25 S    16.0000    0    32.060   15.427630    0.963968   -0.225917
  26 C     6.0000    0    12.011   16.964015    3.917194   -0.647137
  27 C     6.0000    0    12.011   15.201902    5.916222   -0.722820
  28 C     6.0000    0    12.011    8.420412   -0.754530    5.554075
  29 C     6.0000    0    12.011    9.374535   -1.165545    7.977139
  30 C     6.0000    0    12.011   11.622345   -2.509330    8.359071
  31 C     6.0000    0    12.011   12.877255   -3.442968    6.217275
  32 C     6.0000    0    12.011   11.932695   -3.036865    3.789033
  33 C     6.0000    0    12.011    8.724412   -5.578301   -0.677486
  34 C     6.0000    0    12.011    8.740512   -7.408331   -2.571861
  35 C     6.0000    0    12.011    9.246997   -6.770983   -5.096648
  36 C     6.0000    0    12.011    9.796321   -4.238769   -5.640209
  37 C     6.0000    0    12.011    9.776252   -2.396929   -3.750577
  38 C     6.0000    0    12.011   -2.395152    3.148076    5.514013
  39 C     6.0000    0    12.011   -2.325856    4.509076    7.771234
  40 C     6.0000    0    12.011   -1.794994    7.102384    7.792305
  41 C     6.0000    0    12.011   -1.401912    8.296559    5.456471
  42 C     6.0000    0    12.011   -1.462913    6.943099    3.195168
  43 C     6.0000    0    12.011   -1.358808    3.410464   -3.968878
  44 C     6.0000    0    12.011   -2.376274    4.271027   -6.241255
  45 C     6.0000    0    12.011   -4.587140    5.725114   -6.295150
  46 C     6.0000    0    12.011   -5.735640    6.312347   -3.978554
  47 C     6.0000    0    12.011   -4.726866    5.454354   -1.699450
  48 C     6.0000    0    12.011  -12.513181   -2.264610    0.903440
  49 C     6.0000    0    12.011  -14.170811   -4.174159    0.305266
  50 C     6.0000    0    12.011  -13.956251   -6.541911   -1.083720
  51 C     6.0000    0    12.011  -16.150337   -8.126257   -0.344251
  52 C     6.0000    0    12.011  -17.843871   -6.642916    1.081037
  53 C     6.0000    0    12.011  -16.772321   -4.066275    1.431354
  54 C     6.0000    0    12.011  -16.732788  -10.652594   -0.833823
  55 C     6.0000    0    12.011  -18.985171  -11.653185    0.133301
  56 C     6.0000    0    12.011  -20.673963  -10.138513    1.540656
  57 C     6.0000    0    12.011  -20.096141   -7.602614    2.013692
  58 Cl   17.0000    0    35.453  -23.458191  -11.392422    2.713307
  59 Cl   17.0000    0    35.453  -19.663356  -14.805324   -0.421636
  60 O     8.0000    0    15.999  -17.749347   -2.288383    2.497991
  61 C     6.0000    0    12.011  -12.298716   -7.103235   -3.029155
  62 C     6.0000    0    12.011  -12.347017   -9.464164   -4.340701
  63 C     6.0000    0    12.011  -10.553062   -5.304272   -4.025967
  64 N     7.0000    0    14.007  -12.350154  -11.388283   -5.399590
  65 N     7.0000    0    14.007   -9.154608   -3.850355   -4.893503
  66 C     6.0000    0    12.011   12.635389   -2.983859   10.986641
  67 C     6.0000    0    12.011   12.403671   -5.750777   11.812017
  68 C     6.0000    0    12.011    9.101091   -8.739114   -7.160890
  69 C     6.0000    0    12.011    6.372534   -9.282032   -7.998663
  70 C     6.0000    0    12.011   -1.531736    8.543036   10.242864
  71 C     6.0000    0    12.011    1.238073    8.862097   11.048359
  72 C     6.0000    0    12.011   -5.685865    6.659697   -8.757237
  73 C     6.0000    0    12.011   -5.450707    9.525429   -9.081287
  74 C     6.0000    0    12.011   19.582060    4.445335   -0.852588
  75 C     6.0000    0    12.011   21.723668    2.957856   -0.913758
  76 C     6.0000    0    12.011   24.340920    3.832497   -1.130812
  77 C     6.0000    0    12.011   25.971924    1.547667   -1.207686
  78 C     6.0000    0    12.011   24.431797   -0.616637   -1.055129
  79 C     6.0000    0    12.011   21.744285    0.156904   -0.858484
  80 C     6.0000    0    12.011   28.589156    1.247370   -1.391443
  81 C     6.0000    0    12.011   29.599574   -1.200581   -1.433282
  82 C     6.0000    0    12.011   28.024695   -3.349936   -1.283823
  83 C     6.0000    0    12.011   25.406196   -3.047070   -1.091525
  84 Cl   17.0000    0    35.453   29.289772   -6.366922   -1.333051
  85 Cl   17.0000    0    35.453   32.845046   -1.551333   -1.676830
  86 O     8.0000    0    15.999   19.938746   -1.264964   -0.704943
  87 C     6.0000    0    12.011   25.224915    6.293525   -1.254457
  88 C     6.0000    0    12.011   27.844378    6.902074   -1.520946
  89 C     6.0000    0    12.011   23.631233    8.474458   -1.144588
  90 N     7.0000    0    14.007   22.382616   10.281036   -1.060836
  91 N     7.0000    0    14.007   29.961457    7.443480   -1.745540
  92 H     1.0000    0     1.008    4.094772   -3.850468    1.168399
  93 H     1.0000    0     1.008    3.083863    5.584745    0.160116
  94 H     1.0000    0     1.008   -8.704211   -6.182485    0.941991
  95 H     1.0000    0     1.008   15.802532    7.873563   -0.962834
  96 H     1.0000    0     1.008    6.679294    0.324920    5.326118
  97 H     1.0000    0     1.008    8.355349   -0.403702    9.604136
  98 H     1.0000    0     1.008   14.644659   -4.487778    6.448086
  99 H     1.0000    0     1.008   12.966110   -3.774822    2.165040
 100 H     1.0000    0     1.008    8.321333   -6.132653    1.268668
 101 H     1.0000    0     1.008    8.333050   -9.374440   -2.079530
 102 H     1.0000    0     1.008   10.246227   -3.688330   -7.580693
 103 H     1.0000    0     1.008   10.185492   -0.434902   -4.240281
 104 H     1.0000    0     1.008   -2.789103    1.124916    5.563751
 105 H     1.0000    0     1.008   -2.686151    3.529687    9.554833
 106 H     1.0000    0     1.008   -1.007073   10.324953    5.412195
 107 H     1.0000    0     1.008   -1.129263    7.926324    1.412646
 108 H     1.0000    0     1.008    0.344573    2.249832   -3.996412
 109 H     1.0000    0     1.008   -1.444015    3.773462   -8.016369
 110 H     1.0000    0     1.008   -7.470012    7.434787   -3.958523
 111 H     1.0000    0     1.008   -5.676643    5.924310    0.069939
 112 H     1.0000    0     1.008  -13.456626   -0.596076    1.698165
 113 H     1.0000    0     1.008  -15.495717  -11.889117   -1.913083
 114 H     1.0000    0     1.008  -21.384727   -6.413674    3.097904
 115 H     1.0000    0     1.008   11.625614   -1.764456   12.337701
 116 H     1.0000    0     1.008   14.638253   -2.404374   11.068693
 117 H     1.0000    0     1.008   10.415188   -6.365580   11.817176
 118 H     1.0000    0     1.008   13.178515   -6.030305   13.723853
 119 H     1.0000    0     1.008   13.442850   -7.007029   10.520767
 120 H     1.0000    0     1.008    9.982592  -10.505573   -6.491984
 121 H     1.0000    0     1.008   10.219601   -8.104450   -8.798622
 122 H     1.0000    0     1.008    5.228589   -9.987278   -6.408250
 123 H     1.0000    0     1.008    6.310986  -10.713613   -9.509272
 124 H     1.0000    0     1.008    5.453598   -7.556769   -8.714529
 125 H     1.0000    0     1.008   -2.584805    7.555295   11.743495
 126 H     1.0000    0     1.008   -2.411177   10.421745   10.043876
 127 H     1.0000    0     1.008    2.141872    7.013945   11.363925
 128 H     1.0000    0     1.008    1.390158    9.966491   12.806277
 129 H     1.0000    0     1.008    2.330524    9.848175    9.575790
 130 H     1.0000    0     1.008   -7.695494    6.110146   -8.862381
 131 H     1.0000    0     1.008   -4.739036    5.690476  -10.336613
 132 H     1.0000    0     1.008   -6.444287   10.538870   -7.560586
 133 H     1.0000    0     1.008   -6.267201   10.150191  -10.891115
 134 H     1.0000    0     1.008   -3.457084   10.120863   -9.025653
 135 H     1.0000    0     1.008   19.896265    6.475808   -0.997964
 136 H     1.0000    0     1.008   29.884413    2.836668   -1.513047
 137 H     1.0000    0     1.008   24.159582   -4.683327   -0.969259

--------------------------------
INTERNAL COORDINATES (ANGSTROEM)
--------------------------------
 C      0   0   0     0.000000000000     0.00000000     0.00000000
 C      1   0   0     1.403908316130     0.00000000     0.00000000
 C      2   1   0     1.386032561017   117.69476744     0.00000000
 C      3   2   1     1.422527620997   120.99487885   358.69183855
 C      4   3   2     1.403235884590   121.30377424     3.11672636
 C      5   4   3     1.385071285566   117.61383146   358.00573331
 C      3   2   1     1.539418774505   128.24420740   178.96634709
 C      7   3   2     1.526665471837   100.57538831   174.91342297
 C      8   7   3     1.386694095286   110.42685567     5.19534479
 C      6   5   4     1.538173957945   127.97758209   179.29064976
 C     10   6   5     1.522502712641   100.52104483   177.16019709
 C     11  10   6     1.385843433762   110.88548359     1.15573609
 C      7   3   2     1.539172325277   111.67422225   286.90344899
 C      7   3   2     1.527786594718   108.22193475    54.26449038
 C     10   6   5     1.534370781624   106.68909363   294.88408450
 C     10   6   5     1.531445375781   112.94419265    63.05250880
 C     11  10   6     1.409681633597   134.98275351   184.58813327
 C     17  11  10     1.415192273686   114.77718891   175.54946443
 Se    12  11  10     1.882783820968   113.79909129   183.13470440
 S     17  11  10     1.729189169091   134.03914888   356.97007800
 C     20  17  11     1.766693451310    91.27020164   177.20802809
 C     18  17  11     1.399368240064   113.79477971   182.77782519
 C      8   7   3     1.411686884582   135.46188155   179.21843608
 C     23   8   7     1.416681678466   114.50261656   186.17278108
 Se     9   8   7     1.880971415971   114.19344693   175.31645095
 S     23   8   7     1.732629212296   133.42496807     7.65706735
 C     26  23   8     1.775659668630    90.78644719   179.54290257
 C     24  23   8     1.393326939451   113.19471548   179.82851198
 C     13   7   3     1.400437095374   120.63360487   335.83785683
 C     29  13   7     1.395114344023   120.83611672   186.71443747
 C     30  29  13     1.400499240343   121.27678314     0.31192061
 C     31  30  29     1.403444740843   117.65073654   359.63792935
 C     32  31  30     1.395410311163   121.32922537     0.39106370
 C     14   7   3     1.403213184872   120.34310784   276.11398947
 C     34  14   7     1.393849550741   120.72747497   170.50086089
 C     35  34  14     1.403795603676   121.24799305     0.27778367
 C     36  35  34     1.401003442465   117.69796532     1.49488394
 C     37  36  35     1.396415018001   121.26381046   358.33783382
 C     15  10   6     1.400730282781   120.30193034   274.11587698
 C     39  15  10     1.395279797711   120.95950220   170.20460115
 C     40  39  15     1.400822098377   121.18198846     0.17968467
 C     41  40  39     1.403735277714   117.62777113     1.66343178
 C     42  41  40     1.394968259030   121.38558793   358.17097362
 C     16  10   6     1.400918187940   120.18621891    26.83504800
 C     44  16  10     1.394008015974   120.71681342   172.05787211
 C     45  44  16     1.400591687431   121.31013952   359.76482147
 C     46  45  44     1.403119407677   117.75555846     0.64161647
 C     47  46  45     1.394870472768   121.16898132   359.30355415
 C     21  20  17     1.420426747214   119.07013451   177.52247084
 C     49  21  20     1.375039040937   130.61122632   163.52205823
 C     50  49  21     1.457070517717   134.29506912   343.20048912
 C     51  50  49     1.484620624840   106.96058205   161.57007034
 C     52  51  50     1.410017016848   108.88510193     9.54283161
 C     53  52  51     1.488298476785   109.54131237   357.41883813
 C     52  51  50     1.396196607824   131.64157462   189.03140354
 C     55  52  51     1.401045279996   118.80913149   179.91423330
 C     56  55  52     1.412704525865   121.08511979     1.18282993
 C     53  52  51     1.386362065479   122.20188942   179.19874183
 Cl    57  56  55     1.730929070095   120.66066612   179.69625516
 Cl    56  55  52     1.731296765895   118.58780874   181.39451069
 O     54  53  52     1.212866219498   127.31592516   177.77106730
 C     51  50  49     1.384708947360   127.50746699   331.82336024
 C     62  51  50     1.429412556857   122.48969454   183.18763238
 C     62  51  50     1.427524121898   122.79059648   357.77632941
 N     63  62  51     1.162202611940   179.03006525   233.91459363
 N     64  62  51     1.162043214214   178.39868958   234.25203813
 C     31  30  29     1.511221096002   121.22736313   180.83982801
 C     67  31  30     1.532858784559   113.11078425   108.89463920
 C     36  35  34     1.511254884756   120.83750644   183.82210938
 C     69  36  35     1.537498328780   112.65461190    79.29346909
 C     41  40  39     1.510707918196   121.31180157   184.48710226
 C     71  41  40     1.535750997558   112.44136541    97.48895839
 C     46  45  44     1.510011623929   121.27456619   179.91000111
 C     73  46  45     1.531209422124   112.93620459   249.45855721
 C     27  26  23     1.417494259918   129.09889790   178.31753011
 C     75  27  26     1.380211368088   133.77821158     3.36550466
 C     76  75  27     1.464790423678   126.72695692   180.19654278
 C     77  76  75     1.486086692256   107.11003316   181.93977993
 C     78  77  76     1.407996599037   108.90840675     0.20886621
 C     76  75  27     1.482528728423   125.15268235     2.47557972
 C     78  77  76     1.397453972802   132.06850383   180.26378291
 C     81  78  77     1.401586506677   118.96543000   180.31414643
 C     82  81  78     1.412250024712   121.22169009   359.75444826
 C     79  78  77     1.385776180124   122.59926746   179.73628011
 Cl    83  82  81     1.731391930038   120.90554376   180.07799720
 Cl    82  81  78     1.732231777621   118.58339978   179.69360531
 O     80  76  75     1.218860993469   127.78670517   358.48042597
 C     77  76  75     1.385332433534   128.31786574     1.78263838
 C     88  77  76     1.430045281416   122.93336325   181.39665009
 C     88  77  76     1.430576605848   123.87717637     1.03759342
 N     90  88  77     1.162960708709   178.48763545   180.64482729
 N     89  88  77     1.162455189932   178.72306737   170.08163062
 H      2   1   3     1.091702545843   121.14147966   180.34155157
 H      5   4   3     1.091964688440   121.17545560   178.91113583
 H     22  18  17     1.088994730428   125.16994723   180.72978383
 H     28  24  23     1.090868467827   125.69430659   181.02864856
 H     29  13   7     1.090755763175   119.88689139     6.10495141
 H     30  29  13     1.093012402629   119.20183414   179.61703308
 H     32  31  30     1.093314000916   119.51011564   179.53359847
 H     33  32  31     1.090911501498   119.38819669   179.44147610
 H     34  14   7     1.091862048109   119.74071171   350.86430684
 H     35  34  14     1.094002578470   119.22669710   180.84518319
 H     37  36  35     1.093603028708   119.51818268   178.46637040
 H     38  37  36     1.091803828900   119.49002953   180.89580904
 H     39  15  10     1.091035405200   119.63439746   351.20700418
 H     40  39  15     1.093521364263   119.31936245   180.40099523
 H     42  41  40     1.093777634119   119.27169896   179.24711186
 H     43  42  41     1.091624393507   119.52348236   180.65904946
 H     44  16  10     1.090840634282   119.83206785   353.05663697
 H     45  44  16     1.093197055155   119.22473864   180.75897308
 H     47  46  45     1.093275447909   119.49960909   180.36669802
 H     48  47  46     1.091397552911   119.43053463   180.72088877
 H     49  21  20     1.098049892992   116.22034086   337.01109054
 H     55  52  51     1.087602559256   122.72714674     0.86850797
 H     58  53  52     1.090868399625   120.88706815   180.54635714
 H     67  31  30     1.101394435886   109.13547153   346.57829497
 H     67  31  30     1.104193794494   109.30081835   230.94045216
 H     68  67  31     1.101410312327   111.05617872   299.95339464
 H     68  67  31     1.101608740570   111.11057930   179.36152845
 H     68  67  31     1.100560014947   111.10631971    59.53997900
 H     69  36  35     1.103033986194   109.29716814   317.52162094
 H     69  36  35     1.101912526973   109.32934724   201.34322012
 H     70  69  36     1.101832226158   111.03875186   299.86379264
 H     70  69  36     1.101801408104   111.43472705   179.72283343
 H     70  69  36     1.101583883188   111.02967936    59.41666217
 H     71  41  40     1.101970214525   109.42540580   335.50268274
 H     71  41  40     1.102742319538   109.51592229   219.18242885
 H     72  71  41     1.101413570372   111.03213412   298.74707059
 H     72  71  41     1.101539299934   111.25075759   178.25448705
 H     72  71  41     1.101687727353   110.88942888    58.13508410
 H     73  46  45     1.103898622248   109.15606049   127.42517735
 H     73  46  45     1.101185146376   109.09415714    11.89545586
 H     74  73  46     1.100738775051   111.21266332   299.92574491
 H     74  73  46     1.101460419352   111.27007111   180.00597521
 H     74  73  46     1.101422363174   110.98801003    59.39516213
 H     75  27  26     1.089986792672   110.41781992   183.03499375
 H     81  78  77     1.086856080307   122.76143445     0.00000000
 H     84  79  78     1.090456165694   120.73213676   179.98031443

---------------------------
INTERNAL COORDINATES (A.U.)
---------------------------
 C      0   0   0     0.000000000000     0.00000000     0.00000000
 C      1   0   0     2.653002234621     0.00000000     0.00000000
 C      2   1   0     2.619221953020   117.69476744     0.00000000
 C      3   2   1     2.688187621623   120.99487885   358.69183855
 C      4   3   2     2.651731523165   121.30377424     3.11672636
 C      5   4   3     2.617405405678   117.61383146   358.00573331
 C      3   2   1     2.909079889232   128.24420740   178.96634709
 C      7   3   2     2.884979639886   100.57538831   174.91342297
 C      8   7   3     2.620472071616   110.42685567     5.19534479
 C      6   5   4     2.906727526846   127.97758209   179.29064976
 C     10   6   5     2.877113165044   100.52104483   177.16019709
 C     11  10   6     2.618864554302   110.88548359     1.15573609
 C      7   3   2     2.908614167685   111.67422225   286.90344899
 C      7   3   2     2.887098255093   108.22193475    54.26449038
 C     10   6   5     2.899540565159   106.68909363   294.88408450
 C     10   6   5     2.894012349286   112.94419265    63.05250880
 C     11  10   6     2.663912223517   134.98275351   184.58813327
 C     17  11  10     2.674325824108   114.77718891   175.54946443
 Se    12  11  10     3.557945791008   113.79909129   183.13470440
 S     17  11  10     3.267693963324   134.03914888   356.97007800
 C     20  17  11     3.338566785567    91.27020164   177.20802809
 C     18  17  11     2.644422734228   113.79477971   182.77782519
 C      8   7   3     2.667701598708   135.46188155   179.21843608
 C     23   8   7     2.677140391244   114.50261656   186.17278108
 Se     9   8   7     3.554520841919   114.19344693   175.31645095
 S     23   8   7     3.274194702870   133.42496807     7.65706735
 C     26  23   8     3.355510480760    90.78644719   179.54290257
 C     24  23   8     2.633006330577   113.19471548   179.82851198
 C     13   7   3     2.646442578041   120.63360487   335.83785683
 C     29  13   7     2.636384035710   120.83611672   186.71443747
 C     30  29  13     2.646560015012   121.27678314     0.31192061
 C     31  30  29     2.652126204285   117.65073654   359.63792935
 C     32  31  30     2.636943332548   121.32922537     0.39106370
 C     14   7   3     2.651688626916   120.34310784   276.11398947
 C     34  14   7     2.633993922789   120.72747497   170.50086089
 C     35  34  14     2.652789238950   121.24799305     0.27778367
 C     36  35  34     2.647512818941   117.69796532     1.49488394
 C     37  36  35     2.638841953317   121.26381046   358.33783382
 C     15  10   6     2.646996621946   120.30193034   274.11587698
 C     39  15  10     2.636696697867   120.95950220   170.20460115
 C     40  39  15     2.647170128277   121.18198846     0.17968467
 C     41  40  39     2.652675239404   117.62777113     1.66343178
 C     42  41  40     2.636107975079   121.38558793   358.17097362
 C     16  10   6     2.647351711235   120.18621891    26.83504800
 C     44  16  10     2.634293378682   120.71681342   172.05787211
 C     45  44  16     2.646734714691   121.31013952   359.76482147
 C     46  45  44     2.651511413699   117.75555846     0.64161647
 C     47  46  45     2.635923185825   121.16898132   359.30355415
 C     21  20  17     2.684217545530   119.07013451   177.52247084
 C     49  21  20     2.598447210820   130.61122632   163.52205823
 C     50  49  21     2.753464236296   134.29506912   343.20048912
 C     51  50  49     2.805526393718   106.96058205   161.57007034
 C     52  51  50     2.664546006011   108.88510193     9.54283161
 C     53  52  51     2.812476526655   109.54131237   357.41883813
 C     52  51  50     2.638429217898   131.64157462   189.03140354
 C     55  52  51     2.647591880416   118.80913149   179.91423330
 C     56  55  52     2.669624662036   121.08511979     1.18282993
 C     53  52  51     2.619844626213   122.20188942   179.19874183
 Cl    57  56  55     3.270981899723   120.66066612   179.69625516
 Cl    56  55  52     3.271676744086   118.58780874   181.39451069
 O     54  53  52     2.291984991936   127.31592516   177.77106730
 C     51  50  49     2.616720685702   127.50746699   331.82336024
 C     62  51  50     2.701198264848   122.48969454   183.18763238
 C     62  51  50     2.697629639953   122.79059648   357.77632941
 N     63  62  51     2.196244648694   179.03006525   233.91459363
 N     64  62  51     2.195943430645   178.39868958   234.25203813
 C     31  30  29     2.855793999247   121.22736313   180.83982801
 C     67  31  30     2.896683304792   113.11078425   108.89463920
 C     36  35  34     2.855857850740   120.83750644   183.82210938
 C     69  36  35     2.905450772755   112.65461190    79.29346909
 C     41  40  39     2.854824233737   121.31180157   184.48710226
 C     71  41  40     2.902148795281   112.44136541    97.48895839
 C     46  45  44     2.853508428263   121.27456619   179.91000111
 C     73  46  45     2.893566461493   112.93620459   249.45855721
 C     27  26  23     2.678675947650   129.09889790   178.31753011
 C     75  27  26     2.608221492612   133.77821158     3.36550466
 C     76  75  27     2.768052744343   126.72695692   180.19654278
 C     77  76  75     2.808296859629   107.11003316   181.93977993
 C     78  77  76     2.660727969673   108.90840675     0.20886621
 C     76  75  27     2.801573282390   125.15268235     2.47557972
 C     78  77  76     2.640805293356   132.06850383   180.26378291
 C     81  78  77     2.648614650620   118.96543000   180.31414643
 C     82  81  78     2.668765779330   121.22169009   359.75444826
 C     79  78  77     2.618737463347   122.59926746   179.73628011
 Cl    83  82  81     3.271856578253   120.90554376   180.07799720
 Cl    82  81  78     3.273443660179   118.58339978   179.69360531
 O     80  76  75     2.303313472975   127.78670517   358.48042597
 C     77  76  75     2.617898903817   128.31786574     1.78263838
 C     88  77  76     2.702393940982   122.93336325   181.39665009
 C     88  77  76     2.703397998648   123.87717637     1.03759342
 N     90  88  77     2.197677243970   178.48763545   180.64482729
 N     89  88  77     2.196721951927   178.72306737   170.08163062
 H      2   1   3     2.063018831348   121.14147966   180.34155157
 H      5   4   3     2.063514209064   121.17545560   178.91113583
 H     22  18  17     2.057901801792   125.16994723   180.72978383
 H     28  24  23     2.061442652324   125.69430659   181.02864856
 H     29  13   7     2.061229671397   119.88689139     6.10495141
 H     30  29  13     2.065494101947   119.20183414   179.61703308
 H     32  31  30     2.066064040114   119.51011564   179.53359847
 H     33  32  31     2.061523974176   119.38819669   179.44147610
 H     34  14   7     2.063320246948   119.74071171   350.86430684
 H     35  34  14     2.067365263113   119.22669710   180.84518319
 H     37  36  35     2.066610223486   119.51818268   178.46637040
 H     38  37  36     2.063210228587   119.49002953   180.89580904
 H     39  15  10     2.061758118240   119.63439746   351.20700418
 H     40  39  15     2.066455900049   119.31936245   180.40099523
 H     42  41  40     2.066940179894   119.27169896   179.24711186
 H     43  42  41     2.062871144837   119.52348236   180.65904946
 H     44  16  10     2.061390054545   119.83206785   353.05663697
 H     45  44  16     2.065843044653   119.22473864   180.75897308
 H     47  46  45     2.065991185488   119.49960909   180.36669802
 H     48  47  46     2.062442478234   119.43053463   180.72088877
 H     49  21  20     2.075013579137   116.22034086   337.01109054
 H     55  52  51     2.055270979546   122.72714674     0.86850797
 H     58  53  52     2.061442523440   120.88706815   180.54635714
 H     67  31  30     2.081333849249   109.13547153   346.57829497
 H     67  31  30     2.086623870370   109.30081835   230.94045216
 H     68  67  31     2.081363851374   111.05617872   299.95339464
 H     68  67  31     2.081738826411   111.11057930   179.36152845
 H     68  67  31     2.079757022194   111.10631971    59.53997900
 H     69  36  35     2.084432150315   109.29716814   317.52162094
 H     69  36  35     2.082312899516   109.32934724   201.34322012
 H     70  69  36     2.082161152967   111.03875186   299.86379264
 H     70  69  36     2.082102915285   111.43472705   179.72283343
 H     70  69  36     2.081691852767   111.02967936    59.41666217
 H     71  41  40     2.082421913190   109.42540580   335.50268274
 H     71  41  40     2.083880980212   109.51592229   219.18242885
 H     72  71  41     2.081370008188   111.03213412   298.74707059
 H     72  71  41     2.081607602627   111.25075759   178.25448705
 H     72  71  41     2.081888089799   110.88942888    58.13508410
 H     73  46  45     2.086066075661   109.15606049   127.42517735
 H     73  46  45     2.080938349393   109.09415714    11.89545586
 H     74  73  46     2.080094829834   111.21266332   299.92574491
 H     74  73  46     2.081458539930   111.27007111   180.00597521
 H     74  73  46     2.081386624175   110.98801003    59.39516213
 H     75  27  26     2.059776527742   110.41781992   183.03499375
 H     81  78  77     2.053860338767   122.76143445     0.00000000
 H     84  79  78     2.060663514207   120.73213676   179.98031443

---------------------
BASIS SET INFORMATION
---------------------
There are 7 groups of distinct atoms

 Group   1 Type C   : 7s4p1d contracted to 3s2p1d pattern {511/31/1}
 Group   2 Type Se  : 14s10p6d contracted to 5s4p3d pattern {63311/5311/411}
 Group   3 Type S   : 10s7p1d contracted to 4s3p1d pattern {5311/511/1}
 Group   4 Type Cl  : 10s7p1d contracted to 4s3p1d pattern {5311/511/1}
 Group   5 Type O   : 7s4p1d contracted to 3s2p1d pattern {511/31/1}
 Group   6 Type N   : 7s4p1d contracted to 3s2p1d pattern {511/31/1}
 Group   7 Type H   : 4s1p contracted to 2s1p pattern {31/1}

Atom   0C    basis set group =>   1
Atom   1C    basis set group =>   1
Atom   2C    basis set group =>   1
Atom   3C    basis set group =>   1
Atom   4C    basis set group =>   1
Atom   5C    basis set group =>   1
Atom   6C    basis set group =>   1
Atom   7C    basis set group =>   1
Atom   8C    basis set group =>   1
Atom   9C    basis set group =>   1
Atom  10C    basis set group =>   1
Atom  11C    basis set group =>   1
Atom  12C    basis set group =>   1
Atom  13C    basis set group =>   1
Atom  14C    basis set group =>   1
Atom  15C    basis set group =>   1
Atom  16C    basis set group =>   1
Atom  17C    basis set group =>   1
Atom  18Se   basis set group =>   2
Atom  19S    basis set group =>   3
Atom  20C    basis set group =>   1
Atom  21C    basis set group =>   1
Atom  22C    basis set group =>   1
Atom  23C    basis set group =>   1
Atom  24Se   basis set group =>   2
Atom  25S    basis set group =>   3
Atom  26C    basis set group =>   1
Atom  27C    basis set group =>   1
Atom  28C    basis set group =>   1
Atom  29C    basis set group =>   1
Atom  30C    basis set group =>   1
Atom  31C    basis set group =>   1
Atom  32C    basis set group =>   1
Atom  33C    basis set group =>   1
Atom  34C    basis set group =>   1
Atom  35C    basis set group =>   1
Atom  36C    basis set group =>   1
Atom  37C    basis set group =>   1
Atom  38C    basis set group =>   1
Atom  39C    basis set group =>   1
Atom  40C    basis set group =>   1
Atom  41C    basis set group =>   1
Atom  42C    basis set group =>   1
Atom  43C    basis set group =>   1
Atom  44C    basis set group =>   1
Atom  45C    basis set group =>   1
Atom  46C    basis set group =>   1
Atom  47C    basis set group =>   1
Atom  48C    basis set group =>   1
Atom  49C    basis set group =>   1
Atom  50C    basis set group =>   1
Atom  51C    basis set group =>   1
Atom  52C    basis set group =>   1
Atom  53C    basis set group =>   1
Atom  54C    basis set group =>   1
Atom  55C    basis set group =>   1
Atom  56C    basis set group =>   1
Atom  57C    basis set group =>   1
Atom  58Cl   basis set group =>   4
Atom  59Cl   basis set group =>   4
Atom  60O    basis set group =>   5
Atom  61C    basis set group =>   1
Atom  62C    basis set group =>   1
Atom  63C    basis set group =>   1
Atom  64N    basis set group =>   6
Atom  65N    basis set group =>   6
Atom  66C    basis set group =>   1
Atom  67C    basis set group =>   1
Atom  68C    basis set group =>   1
Atom  69C    basis set group =>   1
Atom  70C    basis set group =>   1
Atom  71C    basis set group =>   1
Atom  72C    basis set group =>   1
Atom  73C    basis set group =>   1
Atom  74C    basis set group =>   1
Atom  75C    basis set group =>   1
Atom  76C    basis set group =>   1
Atom  77C    basis set group =>   1
Atom  78C    basis set group =>   1
Atom  79C    basis set group =>   1
Atom  80C    basis set group =>   1
Atom  81C    basis set group =>   1
Atom  82C    basis set group =>   1
Atom  83C    basis set group =>   1
Atom  84Cl   basis set group =>   4
Atom  85Cl   basis set group =>   4
Atom  86O    basis set group =>   5
Atom  87C    basis set group =>   1
Atom  88C    basis set group =>   1
Atom  89C    basis set group =>   1
Atom  90N    basis set group =>   6
Atom  91N    basis set group =>   6
Atom  92H    basis set group =>   7
Atom  93H    basis set group =>   7
Atom  94H    basis set group =>   7
Atom  95H    basis set group =>   7
Atom  96H    basis set group =>   7
Atom  97H    basis set group =>   7
Atom  98H    basis set group =>   7
Atom  99H    basis set group =>   7
Atom 100H    basis set group =>   7
Atom 101H    basis set group =>   7
Atom 102H    basis set group =>   7
Atom 103H    basis set group =>   7
Atom 104H    basis set group =>   7
Atom 105H    basis set group =>   7
Atom 106H    basis set group =>   7
Atom 107H    basis set group =>   7
Atom 108H    basis set group =>   7
Atom 109H    basis set group =>   7
Atom 110H    basis set group =>   7
Atom 111H    basis set group =>   7
Atom 112H    basis set group =>   7
Atom 113H    basis set group =>   7
Atom 114H    basis set group =>   7
Atom 115H    basis set group =>   7
Atom 116H    basis set group =>   7
Atom 117H    basis set group =>   7
Atom 118H    basis set group =>   7
Atom 119H    basis set group =>   7
Atom 120H    basis set group =>   7
Atom 121H    basis set group =>   7
Atom 122H    basis set group =>   7
Atom 123H    basis set group =>   7
Atom 124H    basis set group =>   7
Atom 125H    basis set group =>   7
Atom 126H    basis set group =>   7
Atom 127H    basis set group =>   7
Atom 128H    basis set group =>   7
Atom 129H    basis set group =>   7
Atom 130H    basis set group =>   7
Atom 131H    basis set group =>   7
Atom 132H    basis set group =>   7
Atom 133H    basis set group =>   7
Atom 134H    basis set group =>   7
Atom 135H    basis set group =>   7
Atom 136H    basis set group =>   7
Atom 137H    basis set group =>   7
---------------------------------
AUXILIARY/J BASIS SET INFORMATION
---------------------------------
There are 7 groups of distinct atoms

 Group   1 Type C   : 12s5p4d2f1g contracted to 6s4p3d1f1g pattern {711111/2111/211/2/1}
 Group   2 Type Se  : 19s5p5d3f1g contracted to 8s4p3d2f1g pattern {121111111/2111/311/21/1}
 Group   3 Type S   : 14s5p5d2f1g contracted to 8s4p3d1f1g pattern {71111111/2111/311/2/1}
 Group   4 Type Cl  : 14s5p5d2f1g contracted to 8s4p3d1f1g pattern {71111111/2111/311/2/1}
 Group   5 Type O   : 12s5p4d2f1g contracted to 6s4p3d1f1g pattern {711111/2111/211/2/1}
 Group   6 Type N   : 12s5p4d2f1g contracted to 6s4p3d1f1g pattern {711111/2111/211/2/1}
 Group   7 Type H   : 5s2p1d contracted to 3s1p1d pattern {311/2/1}

Atom   0C    basis set group =>   1
Atom   1C    basis set group =>   1
Atom   2C    basis set group =>   1
Atom   3C    basis set group =>   1
Atom   4C    basis set group =>   1
Atom   5C    basis set group =>   1
Atom   6C    basis set group =>   1
Atom   7C    basis set group =>   1
Atom   8C    basis set group =>   1
Atom   9C    basis set group =>   1
Atom  10C    basis set group =>   1
Atom  11C    basis set group =>   1
Atom  12C    basis set group =>   1
Atom  13C    basis set group =>   1
Atom  14C    basis set group =>   1
Atom  15C    basis set group =>   1
Atom  16C    basis set group =>   1
Atom  17C    basis set group =>   1
Atom  18Se   basis set group =>   2
Atom  19S    basis set group =>   3
Atom  20C    basis set group =>   1
Atom  21C    basis set group =>   1
Atom  22C    basis set group =>   1
Atom  23C    basis set group =>   1
Atom  24Se   basis set group =>   2
Atom  25S    basis set group =>   3
Atom  26C    basis set group =>   1
Atom  27C    basis set group =>   1
Atom  28C    basis set group =>   1
Atom  29C    basis set group =>   1
Atom  30C    basis set group =>   1
Atom  31C    basis set group =>   1
Atom  32C    basis set group =>   1
Atom  33C    basis set group =>   1
Atom  34C    basis set group =>   1
Atom  35C    basis set group =>   1
Atom  36C    basis set group =>   1
Atom  37C    basis set group =>   1
Atom  38C    basis set group =>   1
Atom  39C    basis set group =>   1
Atom  40C    basis set group =>   1
Atom  41C    basis set group =>   1
Atom  42C    basis set group =>   1
Atom  43C    basis set group =>   1
Atom  44C    basis set group =>   1
Atom  45C    basis set group =>   1
Atom  46C    basis set group =>   1
Atom  47C    basis set group =>   1
Atom  48C    basis set group =>   1
Atom  49C    basis set group =>   1
Atom  50C    basis set group =>   1
Atom  51C    basis set group =>   1
Atom  52C    basis set group =>   1
Atom  53C    basis set group =>   1
Atom  54C    basis set group =>   1
Atom  55C    basis set group =>   1
Atom  56C    basis set group =>   1
Atom  57C    basis set group =>   1
Atom  58Cl   basis set group =>   4
Atom  59Cl   basis set group =>   4
Atom  60O    basis set group =>   5
Atom  61C    basis set group =>   1
Atom  62C    basis set group =>   1
Atom  63C    basis set group =>   1
Atom  64N    basis set group =>   6
Atom  65N    basis set group =>   6
Atom  66C    basis set group =>   1
Atom  67C    basis set group =>   1
Atom  68C    basis set group =>   1
Atom  69C    basis set group =>   1
Atom  70C    basis set group =>   1
Atom  71C    basis set group =>   1
Atom  72C    basis set group =>   1
Atom  73C    basis set group =>   1
Atom  74C    basis set group =>   1
Atom  75C    basis set group =>   1
Atom  76C    basis set group =>   1
Atom  77C    basis set group =>   1
Atom  78C    basis set group =>   1
Atom  79C    basis set group =>   1
Atom  80C    basis set group =>   1
Atom  81C    basis set group =>   1
Atom  82C    basis set group =>   1
Atom  83C    basis set group =>   1
Atom  84Cl   basis set group =>   4
Atom  85Cl   basis set group =>   4
Atom  86O    basis set group =>   5
Atom  87C    basis set group =>   1
Atom  88C    basis set group =>   1
Atom  89C    basis set group =>   1
Atom  90N    basis set group =>   6
Atom  91N    basis set group =>   6
Atom  92H    basis set group =>   7
Atom  93H    basis set group =>   7
Atom  94H    basis set group =>   7
Atom  95H    basis set group =>   7
Atom  96H    basis set group =>   7
Atom  97H    basis set group =>   7
Atom  98H    basis set group =>   7
Atom  99H    basis set group =>   7
Atom 100H    basis set group =>   7
Atom 101H    basis set group =>   7
Atom 102H    basis set group =>   7
Atom 103H    basis set group =>   7
Atom 104H    basis set group =>   7
Atom 105H    basis set group =>   7
Atom 106H    basis set group =>   7
Atom 107H    basis set group =>   7
Atom 108H    basis set group =>   7
Atom 109H    basis set group =>   7
Atom 110H    basis set group =>   7
Atom 111H    basis set group =>   7
Atom 112H    basis set group =>   7
Atom 113H    basis set group =>   7
Atom 114H    basis set group =>   7
Atom 115H    basis set group =>   7
Atom 116H    basis set group =>   7
Atom 117H    basis set group =>   7
Atom 118H    basis set group =>   7
Atom 119H    basis set group =>   7
Atom 120H    basis set group =>   7
Atom 121H    basis set group =>   7
Atom 122H    basis set group =>   7
Atom 123H    basis set group =>   7
Atom 124H    basis set group =>   7
Atom 125H    basis set group =>   7
Atom 126H    basis set group =>   7
Atom 127H    basis set group =>   7
Atom 128H    basis set group =>   7
Atom 129H    basis set group =>   7
Atom 130H    basis set group =>   7
Atom 131H    basis set group =>   7
Atom 132H    basis set group =>   7
Atom 133H    basis set group =>   7
Atom 134H    basis set group =>   7
Atom 135H    basis set group =>   7
Atom 136H    basis set group =>   7
Atom 137H    basis set group =>   7
------------------------------------------------------------------------------
                           ORCA GTO INTEGRAL CALCULATION
                           -- RI-GTO INTEGRALS CHOSEN --
------------------------------------------------------------------------------

                         BASIS SET STATISTICS AND STARTUP INFO

Gaussian basis set:
 # of primitive gaussian shells          ... 1406
 # of primitive gaussian functions       ... 2702
 # of contracted shells                  ...  714
 # of contracted basis functions         ... 1578
 Highest angular momentum                ...    2
 Maximum contraction depth               ...    6
Auxiliary gaussian basis set:
 # of primitive gaussian shells          ... 2612
 # of primitive gaussian functions       ... 7256
 # of contracted shells                  ... 1628
 # of contracted aux-basis functions     ... 5044
 Highest angular momentum                ...    4
 Maximum contraction depth               ...   12
Ratio of auxiliary to basis functions    ...  3.20
Integral package used                  ... LIBINT
 One Electron integrals                  ... done
 Ordering auxiliary basis shells         ... done
 Integral threshhold             Thresh  ...  2.500e-11
 Primitive cut-off               TCut    ...  2.500e-12
 Pre-screening matrix                    ... done
 Shell pair data                         ... 
 Ordering of the shell pairs             ... done (   0.018 sec) 75642 of 255255 pairs
 Determination of significant pairs      ... done (   0.000 sec)
 Creation of shell pair data             ... done (   0.011 sec)
 Storage of shell pair data              ... done (   0.015 sec)
 Shell pair data done in (   0.044 sec)
 Computing two index integrals           ... done
 Cholesky decomposition of the V-matrix  ... done


Timings:
 Total evaluation time                   ...   4.135 sec (  0.069 min)
 One electron matrix time                ...   1.152 sec (  0.019 min) = 27.9%
 Schwartz matrix evaluation time         ...   1.292 sec (  0.022 min) = 31.3%
 Two index repulsion integral time       ...   0.639 sec (  0.011 min) = 15.5%
 Cholesky decomposition of V             ...   0.990 sec (  0.017 min) = 23.9%
 Three index repulsion integral time     ...   0.000 sec (  0.000 min) =  0.0%

-------------------------------------------------------------------------------
                                 ORCA SCF
-------------------------------------------------------------------------------

------------
SCF SETTINGS
------------
Hamiltonian:
 Density Functional     Method          .... DFT(GTOs)
 Exchange Functional    Exchange        .... WB88
 Correlation Functional Correlation     .... LYP
 LDA part of GGA corr.  LDAOpt          .... VWN-5
 Gradients option       PostSCFGGA      .... off
 Hybrid DFT is turned on
   Fraction HF Exchange ScalHFX         ....  0.190000
   Scaling of DF-GGA-X  ScalDFX         ....  0.350000
   Scaling of DF-GGA-C  ScalDFC         ....  0.810000
   Scaling of DF-LDA-C  ScalLDAC        ....  1.000000
   Perturbative correction              ....  0.000000
   Density functional embedding theory  .... OFF
 Long-range corrected/Screened/Range-Separated Hybrid DFT is turned on
   Amount of maximum screened exact exchange              ....  0.460000
   Range separation parameter mu (erf(mu*r12)/r12)        ....  0.330000
 RI-approximation to the Coulomb term is turned on
   Number of auxiliary basis functions  .... 5044
   RIJ-COSX (HFX calculated with COS-X)).... on


General Settings:
 Integral files         IntName         .... SeTIC4Cl
 Hartree-Fock type      HFTyp           .... RHF
 Total Charge           Charge          ....    0
 Multiplicity           Mult            ....    1
 Number of Electrons    NEL             ....  726
 Basis Dimension        Dim             .... 1578
 Nuclear Repulsion      ENuc            ....  18588.1577549547 Eh

Convergence Acceleration:
 DIIS                   CNVDIIS         .... on
   Start iteration      DIISMaxIt       ....    12
   Startup error        DIISStart       ....  0.200000
   # of expansion vecs  DIISMaxEq       ....     5
   Bias factor          DIISBfac        ....   1.050
   Max. coefficient     DIISMaxC        ....  10.000
 Newton-Raphson         CNVNR           .... off
 SOSCF                  CNVSOSCF        .... on
   Start iteration      SOSCFMaxIt      ....   150
   Startup grad/error   SOSCFStart      ....  0.003300
 Level Shifting         CNVShift        .... on
   Level shift para.    LevelShift      ....    0.2500
   Turn off err/grad.   ShiftErr        ....    0.0010
 Zerner damping         CNVZerner       .... off
 Static damping         CNVDamp         .... on
   Fraction old density DampFac         ....    0.7000
   Max. Damping (<1)    DampMax         ....    0.9800
   Min. Damping (>=0)   DampMin         ....    0.0000
   Turn off err/grad.   DampErr         ....    0.1000
 Fernandez-Rico         CNVRico         .... off

SCF Procedure:
 Maximum # iterations   MaxIter         ....   125
 SCF integral mode      SCFMode         .... Direct
   Integral package                     .... LIBINT
 Reset frequency        DirectResetFreq ....    20
 Integral Threshold     Thresh          ....  2.500e-11 Eh
 Primitive CutOff       TCut            ....  2.500e-12 Eh

Convergence Tolerance:
 Convergence Check Mode ConvCheckMode   .... Total+1el-Energy
 Convergence forced     ConvForced      .... 1
 Energy Change          TolE            ....  1.000e-08 Eh
 1-El. energy change                    ....  1.000e-05 Eh
 Orbital Gradient       TolG            ....  1.000e-05
 Orbital Rotation angle TolX            ....  1.000e-05
 DIIS Error             TolErr          ....  5.000e-07


Diagonalization of the overlap matrix:
Smallest eigenvalue                        ... 2.076e-04
Time for diagonalization                   ...    0.721 sec
Threshold for overlap eigenvalues          ... 1.000e-08
Number of eigenvalues below threshold      ... 0
Time for construction of square roots      ...    0.310 sec
Total time needed                          ...    1.038 sec

-------------------
DFT GRID GENERATION
-------------------

General Integration Accuracy     IntAcc      ...  4.670
Radial Grid Type                 RadialGrid  ... Gauss-Chebyshev
Angular Grid (max. acc.)         AngularGrid ... Lebedev-302
Angular grid pruning method      GridPruning ... 3 (G Style)
Weight generation scheme         WeightScheme... Becke
Basis function cutoff            BFCut       ...    1.0000e-11
Integration weight cutoff        WCut        ...    1.0000e-14
Grids for H and He will be reduced by one unit

# of grid points (after initial pruning)     ... 737856 (   1.8 sec)
# of grid points (after weights+screening)   ... 621547 (  33.3 sec)
nearest neighbour list constructed           ...    0.0 sec
Grid point re-assignment to atoms done       ...    0.1 sec
Grid point division into batches done        ...    2.2 sec
Reduced shell lists constructed in   14.0 sec

Total number of grid points                  ...   621547
Total number of batches                      ...     9780
Average number of points per batch           ...       63
Average number of grid points per atom       ...     4504
Average number of shells per batch           ...   108.23 (15.16%)
Average number of basis functions per batch  ...   220.70 (13.99%)
Average number of large shells per batch     ...    61.10 (56.46%)
Average number of large basis fcns per batch ...   127.32 (57.69%)
Maximum spatial batch extension              ...  20.57, 21.00, 23.50 au
Average spatial batch extension              ...   2.05,  2.06,  2.17 au

Time for grid setup =   49.142 sec

------------------------------
INITIAL GUESS: MODEL POTENTIAL
------------------------------
Loading Hartree-Fock densities                     ... done
Calculating cut-offs                               ... done
Setting up the integral package                    ... done
Initializing the effective Hamiltonian             ... done
Starting the Coulomb interaction                   ... done (  18.0 sec)
Reading the grid                                   ... done
Mapping shells                                     ... done
Starting the XC term evaluation                    ... done (  13.0 sec)
  promolecular density results
     # of electrons  =    725.976172240
     EX              =   -784.651063902
     EC              =    -26.085883854
     EX+EC           =   -810.736947756
Transforming the Hamiltonian                       ... done (   0.3 sec)
Diagonalizing the Hamiltonian                      ... done (   0.7 sec)
Back transforming the eigenvectors                 ... done (   0.1 sec)
Now organizing SCF variables                       ... done
                      ------------------
                      INITIAL GUESS DONE (  81.7 sec)
                      ------------------
--------------------
COSX GRID GENERATION
--------------------

General Integration Accuracy     IntAcc      ...  3.340
Radial Grid Type                 RadialGrid  ... Gauss-Chebyshev
Angular Grid (max. acc.)         AngularGrid ... Lebedev-50
Angular grid pruning method      GridPruning ... 3 (G Style)
Weight generation scheme         WeightScheme... Becke
Basis function cutoff            BFCut       ...    1.0000e-11
Integration weight cutoff        WCut        ...    1.0000e-14
Grids for H and He will be reduced by one unit

# of grid points (after initial pruning)     ...  69704 (   0.1 sec)
# of grid points (after weights+screening)   ...  61687 (   3.1 sec)
nearest neighbour list constructed           ...    0.0 sec
Grid point re-assignment to atoms done       ...    0.0 sec
Grid point division into batches done        ...    0.0 sec
Reduced shell lists constructed in    1.4 sec

Total number of grid points                  ...    61687
Total number of batches                      ...     1035
Average number of points per batch           ...       59
Average number of grid points per atom       ...      447
Average number of shells per batch           ...   133.47 (18.69%)
Average number of basis functions per batch  ...   274.31 (17.38%)
Average number of large shells per batch     ...    74.69 (55.96%)
Average number of large basis fcns per batch ...   157.86 (57.55%)
Maximum spatial batch extension              ...  17.53, 18.27, 30.36 au
Average spatial batch extension              ...   4.07,  4.17,  4.71 au

Overlap Fitting                  UseSFitting ... on
Constructing numerical overlap ... done (      1.0 sec)
Inverting numerical overlap    ... done (      0.1 sec)
Obtaining analytic overlap     ... done (      0.0 sec)
Final contraction and storage  ... done (      0.1 sec)


General Integration Accuracy     IntAcc      ...  3.670
Radial Grid Type                 RadialGrid  ... Gauss-Chebyshev
Angular Grid (max. acc.)         AngularGrid ... Lebedev-50
Angular grid pruning method      GridPruning ... 3 (G Style)
Weight generation scheme         WeightScheme... Becke
Basis function cutoff            BFCut       ...    1.0000e-11
Integration weight cutoff        WCut        ...    1.0000e-14
Grids for H and He will be reduced by one unit

# of grid points (after initial pruning)     ...  86992 (   0.1 sec)
# of grid points (after weights+screening)   ...  76610 (   3.9 sec)
nearest neighbour list constructed           ...    0.0 sec
Grid point re-assignment to atoms done       ...    0.0 sec
Grid point division into batches done        ...    0.0 sec
Reduced shell lists constructed in    1.7 sec

Total number of grid points                  ...    76610
Total number of batches                      ...     1264
Average number of points per batch           ...       60
Average number of grid points per atom       ...      555
Average number of shells per batch           ...   130.37 (18.26%)
Average number of basis functions per batch  ...   267.63 (16.96%)
Average number of large shells per batch     ...    72.82 (55.85%)
Average number of large basis fcns per batch ...   153.60 (57.39%)
Maximum spatial batch extension              ...  18.62, 22.47, 33.72 au
Average spatial batch extension              ...   3.79,  3.87,  4.39 au

Overlap Fitting                  UseSFitting ... on
Constructing numerical overlap ... done (      1.1 sec)
Inverting numerical overlap    ... done (      0.1 sec)
Obtaining analytic overlap     ... done (      0.0 sec)
Final contraction and storage  ... done (      0.1 sec)


General Integration Accuracy     IntAcc      ...  4.010
Radial Grid Type                 RadialGrid  ... Gauss-Chebyshev
Angular Grid (max. acc.)         AngularGrid ... Lebedev-110
Angular grid pruning method      GridPruning ... 3 (G Style)
Weight generation scheme         WeightScheme... Becke
Basis function cutoff            BFCut       ...    1.0000e-11
Integration weight cutoff        WCut        ...    1.0000e-14
Grids for H and He will be reduced by one unit

# of grid points (after initial pruning)     ... 169072 (   0.3 sec)
# of grid points (after weights+screening)   ... 147283 (   7.5 sec)
nearest neighbour list constructed           ...    0.0 sec
Grid point re-assignment to atoms done       ...    0.0 sec
Grid point division into batches done        ...    0.1 sec
Reduced shell lists constructed in    3.2 sec

Total number of grid points                  ...   147283
Total number of batches                      ...     2368
Average number of points per batch           ...       62
Average number of grid points per atom       ...     1067
Average number of shells per batch           ...   123.34 (17.27%)
Average number of basis functions per batch  ...   253.09 (16.04%)
Average number of large shells per batch     ...    69.63 (56.46%)
Average number of large basis fcns per batch ...   146.45 (57.86%)
Maximum spatial batch extension              ...  21.64, 20.43, 24.31 au
Average spatial batch extension              ...   3.24,  3.29,  3.60 au

Overlap Fitting                  UseSFitting ... on
Constructing numerical overlap ... done (      2.0 sec)
Inverting numerical overlap    ... done (      0.1 sec)
Obtaining analytic overlap     ... done (      0.0 sec)
Final contraction and storage  ... done (      0.2 sec)

Time for X-Grid setup             =   26.233 sec
--------------
SCF ITERATIONS
--------------
ITER       Energy         Delta-E        Max-DP      RMS-DP      [F,P]     Damp
               ***  Starting incremental Fock matrix formation  ***
  0 -10802.6387000268   0.000000000000 0.13145138  0.00078195  0.2332271 0.7000
  1 -10803.3361828461  -0.697482819272 0.08104179  0.00055761  0.0985251 0.7000
                               ***Turning on DIIS***
  2 -10803.6463145372  -0.310131691109 0.14609831  0.00103970  0.0416207 0.0000
  3 -10804.1539257810  -0.507611243771 0.06151052  0.00038965  0.0523096 0.0000
  4 -10804.2430453521  -0.089119571130 0.01655833  0.00012565  0.0243421 0.0000
  5 -10804.2501774637  -0.007132111568 0.00721937  0.00005014  0.0088805 0.0000
                      *** Initiating the SOSCF procedure ***
                           *** Shutting down DIIS ***
                      *** Re-Reading the Fockian *** 
                      *** Removing any level shift *** 
ITER      Energy       Delta-E        Grad      Rot      Max-DP    RMS-DP
  6 -10804.25130583  -0.0011283626  0.002812  0.002812  0.002709  0.000025
               *** Restarting incremental Fock matrix formation ***
  7 -10804.25156761  -0.0002617827  0.001828  0.011757  0.002625  0.000026
  8 -10804.25177855  -0.0002109426  0.000732  0.012740  0.002554  0.000029
  9 -10804.25178641  -0.0000078600  0.000794  0.004603  0.001462  0.000011
 10 -10804.25184143  -0.0000550166  0.000187  0.001344  0.000722  0.000006
 11 -10804.25183895   0.0000024781  0.000199  0.001104  0.000312  0.000003
 12 -10804.25184442  -0.0000054697  0.000038  0.000090  0.000188  0.000001
 13 -10804.25184452  -0.0000001040  0.000037  0.000065  0.000085  0.000001
 14 -10804.25184460  -0.0000000738  0.000009  0.000044  0.000052  0.000000
 15 -10804.25184469  -0.0000000975  0.000013  0.000018  0.000028  0.000000
                  ***Gradient check signals convergence***
              ***Rediagonalizing the Fockian in SOSCF/NRSCF***

               *****************************************************
               *                     SUCCESS                       *
               *           SCF CONVERGED AFTER  16 CYCLES          *
               *****************************************************

Setting up the final grid:

General Integration Accuracy     IntAcc      ...  5.010
Radial Grid Type                 RadialGrid  ... Gauss-Chebyshev
Angular Grid (max. acc.)         AngularGrid ... Lebedev-434
Angular grid pruning method      GridPruning ... 3 (G Style)
Weight generation scheme         WeightScheme... Becke
Basis function cutoff            BFCut       ...    1.0000e-11
Integration weight cutoff        WCut        ...    1.0000e-14
Grids for H and He will be reduced by one unit

# of grid points (after initial pruning)     ... 1309044 (   2.8 sec)
# of grid points (after weights+screening)   ... 1098981 (  58.2 sec)
nearest neighbour list constructed           ...    0.0 sec
Grid point re-assignment to atoms done       ...    0.2 sec
Grid point division into batches done        ...    7.1 sec
Reduced shell lists constructed in   24.9 sec

Total number of grid points                  ...  1098981
Total number of batches                      ...    17245
Average number of points per batch           ...       63
Average number of grid points per atom       ...     7964
Average number of shells per batch           ...   103.80 (14.54%)
Average number of basis functions per batch  ...   211.05 (13.37%)
Average number of large shells per batch     ...    58.61 (56.46%)
Average number of large basis fcns per batch ...   121.76 (57.69%)
Maximum spatial batch extension              ...  21.80, 20.52, 23.79 au
Average spatial batch extension              ...   1.67,  1.69,  1.75 au

Final grid set up in   86.0 sec
Final integration                            ... done (  28.7 sec)
Change in XC energy                          ...    -0.000006058
Integrated number of electrons               ...   725.999931854
Previous integrated no of electrons          ...   725.999328723
Old exchange energy                            =   -207.982150970 Eh
New exchange energy                            =   -207.979455020 Eh
Exchange energy change after final integration =      0.002695950 Eh
Total energy after final integration           = -10804.249154796 Eh
Final COS-X integration done in                =   723.536 sec

----------------
TOTAL SCF ENERGY
----------------

Total Energy       :       -10804.24915480 Eh         -293998.56610 eV

Components:
Nuclear Repulsion  :        18588.15775495 Eh          505809.48737 eV
[...]
  24   4.182     296.5   0.029639   0.026880  -87.018278  -82.823952     0.43 ( 118-> 131)    0.17 ( 129-> 133)    0.10 ( 118-> 132)
  25   4.195     295.5   0.034515   0.030424  -78.043256  -73.524928     0.22 ( 129-> 133)    0.19 ( 118-> 131)    0.19 ( 126-> 132)
  26   4.210     294.5   0.011614   0.009400  -5.474291  -4.462219     0.27 ( 125-> 132)    0.12 ( 117-> 131)    0.09 ( 123-> 132)
  27   4.242     292.3   0.016871   0.014399  -3.145243  -2.055275     0.39 ( 117-> 131)    0.19 ( 116-> 131)    0.08 ( 125-> 132)
  28   4.256     291.3   0.019873   0.016007  -2.111534  -1.774705     0.10 ( 114-> 131)    0.10 ( 123-> 132)    0.09 ( 130-> 137)
  29   4.275     290.0   0.027281   0.022711  -74.995292  -69.384757     0.15 ( 128-> 134)    0.10 ( 128-> 133)    0.08 ( 125-> 132)
  30   4.306     287.9   0.144130   0.123657  93.280771  85.735122     0.13 ( 115-> 132)    0.10 ( 116-> 131)    0.08 ( 113-> 131)
  31   4.316     287.2   0.131707   0.110741  -488.725358  -449.932714     0.19 ( 111-> 131)    0.15 ( 115-> 131)    0.12 ( 111-> 132)
  32   4.361     284.3   0.172429   0.155166  197.764002  179.765402     0.36 ( 129-> 134)    0.09 ( 130-> 133)    0.09 ( 130-> 135)
  33   4.370     283.7   0.153001   0.133520  324.080431  297.212563     0.14 ( 124-> 132)    0.11 ( 125-> 132)    0.08 ( 127-> 134)
  34   4.406     281.4   0.012148   0.010355  54.934714  49.725084     0.31 ( 124-> 132)    0.15 ( 127-> 134)    0.14 ( 127-> 133)
  35   4.457     278.2   0.130477   0.106154  248.521229  218.687610     0.20 ( 116-> 131)    0.10 ( 122-> 133)    0.08 ( 113-> 131)
  36   4.484     276.5   0.185917   0.150775  -240.658693  -217.226911     0.33 ( 130-> 136)    0.14 ( 129-> 135)    0.12 ( 121-> 133)
  37   4.506     275.2   0.017428   0.015528  -36.134495  -31.198726     0.42 ( 123-> 132)    0.19 ( 130-> 137)    0.06 ( 124-> 131)
  38   4.581     270.7   0.378512   0.301522  336.277510  303.848031     0.14 ( 122-> 133)    0.12 ( 113-> 131)    0.11 ( 122-> 134)
  39   4.601     269.5   0.293829   0.232177  -279.127346  -270.679371     0.20 ( 121-> 133)    0.16 ( 130-> 136)    0.13 ( 121-> 134)
  40   4.639     267.3   0.011470   0.009698  -9.883541  -9.191277     0.14 ( 125-> 133)    0.12 ( 128-> 133)    0.12 ( 126-> 133)
  41   4.654     266.4   0.007583   0.006459  -6.873072  -8.135896     0.26 ( 120-> 132)    0.07 ( 119-> 132)    0.07 ( 119-> 131)
  42   4.702     263.7   0.011462   0.008782  -16.576145  -14.326221     0.46 ( 119-> 132)    0.14 ( 120-> 132)    0.12 ( 120-> 131)
  43   4.717     262.9   0.002269   0.001490   5.658859   3.996948     0.16 ( 120-> 132)    0.07 ( 124-> 134)    0.07 ( 116-> 132)
  44   4.743     261.4   0.012792   0.011144  -10.982424  -9.765342     0.23 ( 124-> 133)    0.09 ( 127-> 133)    0.09 ( 125-> 133)
  45   4.755     260.7   0.008048   0.006066  -0.307366  -0.786197     0.19 ( 114-> 131)    0.19 ( 126-> 133)    0.09 ( 119-> 132)
  46   4.812     257.7   0.049482   0.041387  -20.674234  -18.171896     0.19 ( 114-> 131)    0.10 ( 118-> 132)    0.10 ( 130-> 137)
  47   4.830     256.7   0.003553   0.003217  -0.285671  -0.184812     0.63 ( 118-> 132)    0.14 ( 118-> 131)    0.03 ( 114-> 131)
  48   4.847     255.8   0.003004   0.002701  -4.795063  -5.796923     0.39 ( 117-> 132)    0.11 ( 116-> 132)    0.08 ( 129-> 135)
  49   4.853     255.5   0.006873   0.005683  -22.123009  -22.699193     0.24 ( 116-> 132)    0.11 ( 117-> 132)    0.10 ( 129-> 135)
  50   4.916     252.2   0.010277   0.008959  -19.381836  -19.368326     0.26 ( 129-> 135)    0.14 ( 126-> 134)    0.10 ( 123-> 133)
  51   4.949     250.5   0.035120   0.026371  87.327762  76.576000     0.17 ( 109-> 131)    0.10 ( 109-> 132)    0.09 ( 110-> 131)
  52   4.979     249.0   0.015829   0.014313  -82.264575  -74.757723     0.17 ( 128-> 135)    0.12 ( 128-> 133)    0.12 ( 109-> 131)
  53   4.998     248.1   0.022204   0.015618  60.927097  54.120337     0.12 ( 121-> 131)    0.09 ( 129-> 135)    0.07 ( 122-> 132)

-----------------------------------------------------------------------------
         ABSORPTION SPECTRUM VIA TRANSITION ELECTRIC DIPOLE MOMENTS
-----------------------------------------------------------------------------
State   Energy  Wavelength   fosc         T2         TX        TY        TZ  
        (cm-1)    (nm)                  (au**2)     (au)      (au)      (au) 
-----------------------------------------------------------------------------
   0   17098.7    584.8   2.251970773  43.35851   6.37899   1.61583   0.23688
   1   19997.3    500.1   0.362963253   5.97539  -2.27424   0.46259   0.76763
   2   24704.9    404.8   0.188092784   2.50648  -1.54228   0.26770   0.23702
   3   25608.9    390.5   0.021815136   0.28044  -0.34093  -0.40275   0.04467
   4   25869.3    386.6   0.022872381   0.29107  -0.33307  -0.41707   0.07871
   5   26249.2    381.0   0.147860944   1.85444   0.42403   1.25742   0.30583
   6   26704.3    374.5   0.043470912   0.53591   0.57034   0.27922  -0.36422
   7   28112.2    355.7   0.099476442   1.16493   1.05895  -0.11272   0.17566
   8   28423.8    351.8   0.003670541   0.04251  -0.16581  -0.00904   0.12222
   9   28543.6    350.3   0.004258906   0.04912   0.14236   0.00375   0.16982
  10   29589.9    338.0   0.104596169   1.16372   0.94014  -0.05758  -0.52587
  11   29811.7    335.4   0.184203175   2.03416  -1.20323  -0.60397   0.47076
  12   30388.8    329.1   0.075744756   0.82057  -0.43098   0.79666  -0.01268
  13   30629.2    326.5   0.013803222   0.14836  -0.26357   0.26984   0.07795
  14   30723.0    325.5   0.147830866   1.58408   0.47564  -1.16472  -0.03581
  15   31326.9    319.2   0.093970441   0.98753  -0.87012  -0.45399   0.15592
  16   31642.6    316.0   0.030608749   0.31846   0.39254   0.31325   0.25738
  17   32198.1    310.6   0.048984141   0.50084  -0.68259  -0.11167   0.14979
  18   32250.8    310.1   0.004535298   0.04630  -0.16117   0.14235  -0.00758
  19   32292.3    309.7   0.002754878   0.02809   0.16642   0.00645   0.01862
  20   32509.8    307.6   0.074068594   0.75006   0.64414   0.15256  -0.55845
  21   33093.9    302.2   0.019926329   0.19822   0.32257   0.22404  -0.20970
  22   33200.6    301.2   0.012470419   0.12365   0.04724   0.34560  -0.04457
  23   33566.3    297.9   0.032062038   0.31446  -0.06741   0.55624  -0.02264
  24   33726.4    296.5   0.029639162   0.28932  -0.01548  -0.52294   0.12493
  25   33838.7    295.5   0.034515210   0.33579  -0.18677  -0.53185   0.13435
  26   33954.4    294.5   0.011614460   0.11261   0.31722   0.08397  -0.07020
  27   34215.8    292.3   0.016871390   0.16233  -0.40239   0.01311   0.01549
  28   34324.4    291.3   0.019872878   0.19060  -0.27230  -0.31967   0.11945
  29   34479.1    290.0   0.027280986   0.26048   0.11746  -0.47232   0.15362
  30   34729.1    287.9   0.144130324   1.36627  -0.46493   1.06559   0.12100
  31   34814.7    287.2   0.131706699   1.24543  -0.41597  -0.91239   0.48984
  32   35176.0    284.3   0.172429010   1.61376  -1.12341   0.52576   0.27437
  33   35246.1    283.7   0.153000621   1.42908   1.12607  -0.16695  -0.36493
  34   35535.4    281.4   0.012147970   0.11254  -0.28443   0.11010   0.13972
  35   35951.6    278.2   0.130476643   1.19479  -0.24287   1.06205   0.08858
  36   36164.2    276.5   0.185916885   1.69245  -1.13458  -0.36271   0.52307
  37   36342.2    275.2   0.017427892   0.15787  -0.36433   0.02062   0.15720
  38   36945.9    270.7   0.378511710   3.37278   0.64452   1.71626   0.10867
  39   37111.8    269.5   0.293828931   2.60650   1.23199  -0.16580  -1.03015
  40   37413.8    267.3   0.011470285   0.10093  -0.18603   0.25613  -0.02678
  41   37538.6    266.4   0.007582526   0.06650  -0.20249  -0.15685   0.02985
  42   37921.8    263.7   0.011462265   0.09951   0.28183  -0.07427   0.12069
  43   38042.0    262.9   0.002268987   0.01964  -0.08647   0.10474   0.03448
  44   38255.3    261.4   0.012791867   0.11008  -0.20245   0.22076  -0.14269
  45   38353.5    260.7   0.008048133   0.06908   0.11938  -0.06788  -0.22410
  46   38810.8    257.7   0.049482398   0.41973  -0.54151   0.35217  -0.04978
  47   38959.8    256.7   0.003552798   0.03002  -0.12342   0.11962   0.02187
  48   39091.4    255.8   0.003003878   0.02530   0.15349   0.04124   0.00623
  49   39141.9    255.5   0.006873295   0.05781  -0.11947  -0.15582  -0.13877
  50   39652.7    252.2   0.010276814   0.08532   0.28556  -0.06037   0.01147
  51   39913.5    250.5   0.035120282   0.28968   0.30778  -0.43252  -0.08875
  52   40154.9    249.0   0.015828794   0.12977   0.07676  -0.26486   0.23179
  53   40308.8    248.1   0.022204051   0.18135  -0.06457   0.42092  -0.00251

-----------------------------------------------------------------------------
         ABSORPTION SPECTRUM VIA TRANSITION VELOCITY DIPOLE MOMENTS
-----------------------------------------------------------------------------
State   Energy  Wavelength   fosc         P2         PX        PY        PZ  
        (cm-1)    (nm)                  (au**2)     (au)      (au)      (au) 
-----------------------------------------------------------------------------
   0   17098.7    584.8   2.598967892   0.30372   0.53286   0.13910   0.02065
   1   19997.3    500.1   0.396964506   0.05425  -0.21615   0.04438   0.07459
   2   24704.9    404.8   0.178561033   0.03015  -0.16863   0.03155   0.02678
   3   25608.9    390.5   0.020954405   0.00367  -0.03731  -0.04742   0.00515
   4   25869.3    386.6   0.019749825   0.00349  -0.03805  -0.04432   0.00894
   5   26249.2    381.0   0.128175588   0.02299   0.04769   0.13874   0.03838
   6   26704.3    374.5   0.040827282   0.00745   0.06941   0.02795  -0.04303
   7   28112.2    355.7   0.104614134   0.02010   0.13993  -0.00521   0.02218
   8   28423.8    351.8   0.003074919   0.00060  -0.01968   0.00601   0.01318
   9   28543.6    350.3   0.004745937   0.00093   0.02103   0.00220   0.02188
  10   29589.9    338.0   0.088450437   0.01789   0.11450  -0.00500  -0.06893
  11   29811.7    335.4   0.175568160   0.03577  -0.16127  -0.07771   0.06103
  12   30388.8    329.1   0.065854908   0.01368  -0.05553   0.10290  -0.00240
  13   30629.2    326.5   0.012492876   0.00262  -0.03498   0.03551   0.01142
  14   30723.0    325.5   0.126700607   0.02660   0.06417  -0.14988  -0.00470
  15   31326.9    319.2   0.083923111   0.01797  -0.11639  -0.06311   0.02093
  16   31642.6    316.0   0.030437082   0.00658   0.05867   0.04488   0.03355
  17   32198.1    310.6   0.042474299   0.00935  -0.09246  -0.01813   0.02167
  18   32250.8    310.1   0.003980044   0.00088  -0.02342   0.01808  -0.00141
  19   32292.3    309.7   0.002006199   0.00044   0.02081   0.00278   0.00147
  20   32509.8    307.6   0.066531188   0.01478   0.09194   0.01751  -0.07760
  21   33093.9    302.2   0.015376964   0.00348   0.04243   0.02874  -0.02918
  22   33200.6    301.2   0.009933208   0.00225   0.00636   0.04664  -0.00619
  23   33566.3    297.9   0.027610120   0.00633  -0.00887   0.07901  -0.00350
  24   33726.4    296.5   0.026879968   0.00620  -0.00412  -0.07643   0.01837
  25   33838.7    295.5   0.030423603   0.00704  -0.02763  -0.07674   0.01960
  26   33954.4    294.5   0.009399605   0.00218   0.04439   0.01011  -0.01041
  27   34215.8    292.3   0.014399457   0.00337  -0.05781   0.00442   0.00244
  28   34324.4    291.3   0.016007237   0.00376  -0.03961  -0.04377   0.01645
  29   34479.1    290.0   0.022711354   0.00535   0.01750  -0.06726   0.02284
  30   34729.1    287.9   0.123657457   0.02935  -0.07087   0.15496   0.01774
  31   34814.7    287.2   0.110741453   0.02635  -0.06077  -0.13223   0.07191
  32   35176.0    284.3   0.155166138   0.03730  -0.17511   0.07048   0.04088
  33   35246.1    283.7   0.133520273   0.03216   0.16935  -0.02538  -0.05331
  34   35535.4    281.4   0.010355334   0.00251  -0.04238   0.01781   0.02004
  35   35951.6    278.2   0.106153748   0.02608  -0.03393   0.15742   0.01233
  36   36164.2    276.5   0.150775450   0.03727  -0.16820  -0.05468   0.07736
  37   36342.2    275.2   0.015528138   0.00386  -0.05777   0.00277   0.02263
  38   36945.9    270.7   0.301521824   0.07614   0.09259   0.25939   0.01674
  39   37111.8    269.5   0.232177328   0.05889   0.18534  -0.01929  -0.15546
  40   37413.8    267.3   0.009698475   0.00248  -0.02964   0.03978  -0.00433
  41   37538.6    266.4   0.006458776   0.00166  -0.03078  -0.02594   0.00606
  42   37921.8    263.7   0.008781922   0.00228   0.04255  -0.01010   0.01906
  43   38042.0    262.9   0.001490039   0.00039  -0.01401   0.01236   0.00619
  44   38255.3    261.4   0.011143697   0.00291  -0.03391   0.03606  -0.02153
  45   38353.5    260.7   0.006066134   0.00159   0.01747  -0.00895  -0.03471
  46   38810.8    257.7   0.041387287   0.01098  -0.08924   0.05441  -0.00732
  47   38959.8    256.7   0.003217331   0.00086  -0.02174   0.01925   0.00363
  48   39091.4    255.8   0.002700504   0.00072   0.02596   0.00647   0.00236
  49   39141.9    255.5   0.005682644   0.00152  -0.01915  -0.02375  -0.02428
  50   39652.7    252.2   0.008959135   0.00243   0.04727  -0.01352   0.00322
  51   39913.5    250.5   0.026370994   0.00719   0.04860  -0.06766  -0.01594
  52   40154.9    249.0   0.014312624   0.00393   0.01193  -0.04816   0.03829
  53   40308.8    248.1   0.015618302   0.00430  -0.01332   0.06420   0.00188

-------------------------------------------------------------------
                             CD SPECTRUM
-------------------------------------------------------------------
State   Energy Wavelength       R         MX        MY        MZ   
        (cm-1)   (nm)       (1e40*cgs)   (au)      (au)      (au)  
-------------------------------------------------------------------
   0   17098.7    584.8    -48.23363   0.25390  -1.07498   1.35928
   1   19997.3    500.1    137.02641   0.05049  -0.57183  -0.26308
   2   24704.9    404.8     47.67413  -0.01920  -0.21513  -0.73522
   3   25608.9    390.5    -12.91269   0.09178  -0.03348   1.62495
   4   25869.3    386.6    -17.72889  -0.08194  -0.11741  -0.01332
   5   26249.2    381.0    174.04460   0.26284  -0.75234   0.31458
   6   26704.3    374.5    -32.81900  -0.06514   0.18124  -0.34532
   7   28112.2    355.7    -106.52250   0.17663  -0.71314   1.05021
   8   28423.8    351.8      0.07736   0.00415  -0.10922  -0.00514
   9   28543.6    350.3    -18.03499   0.15012  -0.36520   0.33276
  10   29589.9    338.0     18.57181  -0.26079   0.61347  -0.38358
  11   29811.7    335.4    -20.55398   0.28727  -0.78205  -0.08388
  12   30388.8    329.1    -21.52020  -0.29814  -0.09976  -3.33440
  13   30629.2    326.5      2.07913  -0.13338   0.06097  -0.77517
  14   30723.0    325.5      3.57704  -0.00333  -0.08623   3.18369
  15   31326.9    319.2      6.79171   0.36374  -0.55122   0.24011
  16   31642.6    316.0     93.35756   0.18573  -0.50975  -1.20166
  17   32198.1    310.6     26.12589   0.27422  -0.30079   0.28543
  18   32250.8    310.1     -2.68949   0.23210   0.33357  -0.17591
  19   32292.3    309.7     -5.35224   0.18543   0.20927  -0.51048
  20   32509.8    307.6     -3.25505  -0.52540   1.43409  -0.23899
  21   33093.9    302.2      8.30176   0.12823   0.02697   0.39401
  22   33200.6    301.2    -11.09633  -0.02619   0.15880   0.14742
  23   33566.3    297.9    -27.12728  -0.13436   0.13391  -1.39299
  24   33726.4    296.5    -87.01828   0.10249  -0.22275   2.03521
  25   33838.7    295.5    -78.04326   0.16987  -0.18012   1.98747
  26   33954.4    294.5     -5.47429  -0.08195   0.31304  -0.32668
  27   34215.8    292.3     -3.14524  -0.06737  -0.15688  -0.75616
  28   34324.4    291.3     -2.11153   0.02544  -0.00885   0.10930
  29   34479.1    290.0    -74.99529   0.21080  -0.36129   0.79902
  30   34729.1    287.9     93.28077  -0.14129  -0.07315  -3.16906
  31   34814.7    287.2    -488.72536   0.52510  -1.02664   2.76631
  32   35176.0    284.3    197.76400   0.12794  -0.47861  -1.61681
  33   35246.1    283.7    324.08043  -0.19184   0.72903   2.84195
  34   35535.4    281.4     54.93471  -0.00592  -0.36860  -1.38953
  35   35951.6    278.2    248.52123   0.01989  -0.54281  -5.33960
  36   36164.2    276.5    -240.65869   0.95741  -1.19815   3.19767
  37   36342.2    275.2    -36.13450   0.02827  -0.01188   1.04221
  38   36945.9    270.7    336.27751   0.00725  -0.56549  -4.23952
  39   37111.8    269.5    -279.12735  -1.17736   2.58081  -2.97288
  40   37413.8    267.3     -9.88354  -0.05432   0.06656  -0.55184
  41   37538.6    266.4     -6.87307   0.03958  -0.07247   0.86458
  42   37921.8    263.7    -16.57615   0.07478  -0.28104   0.23508
  43   38042.0    262.9      5.65886  -0.04607  -0.22344  -0.13301
  44   38255.3    261.4    -10.98242  -0.05592   0.00139  -0.24502
  45   38353.5    260.7     -0.30737  -0.00488   0.23983  -0.08106
  46   38810.8    257.7    -20.67423  -0.02192   0.19985  -0.10954
  47   38959.8    256.7     -0.28567   0.03853   0.02343   0.14473
  48   39091.4    255.8     -4.79506   0.15913  -0.19582   0.64089
  49   39141.9    255.5    -22.12301  -0.18782   0.30770  -0.86016
  50   39652.7    252.2    -19.38184   0.21330  -0.35658  -0.01872
  51   39913.5    250.5     87.32776  -0.30656   0.53975   0.48070
  52   40154.9    249.0    -82.26458   0.16995  -0.11404   1.31901
  53   40308.8    248.1     60.92710   0.21711  -0.58601  -0.87971

sTD-DFT done

Total run time:        8.878 sec

           *** ORCA-CIS/TD-DFT FINISHED WITHOUT ERROR ***

-------------------------   --------------------
FINAL SINGLE POINT ENERGY    -10804.249154796107
-------------------------   --------------------


                            ***************************************
                            *     ORCA property calculations      *
                            ***************************************

                                    ---------------------
                                    Active property flags
                                    ---------------------
   (+) Dipole Moment


------------------------------------------------------------------------------
                       ORCA ELECTRIC PROPERTIES CALCULATION
------------------------------------------------------------------------------

Dipole Moment Calculation                       ... on
Quadrupole Moment Calculation                   ... off
Polarizability Calculation                      ... off
GBWName                                         ... SeTIC4Cl.gbw
Electron density file                           ... SeTIC4Cl.scfp
The origin for moment calculation is the CENTER OF MASS  = ( 4.062220, -0.884106  0.164331)

-------------
DIPOLE MOMENT
-------------
                                X             Y             Z
Electronic contribution:      4.07742     -33.54919     -16.85331
Nuclear contribution   :     -5.48211      33.15914      18.36933
                        -----------------------------------------
Total Dipole Moment    :     -1.40469      -0.39006       1.51602
                        -----------------------------------------
Magnitude (a.u.)       :      2.10324
Magnitude (Debye)      :      5.34602



--------------------
Rotational spectrum 
--------------------
 
Rotational constants in cm-1:     0.000942     0.000175     0.000165 
Rotational constants in MHz :    28.243246     5.243131     4.935903 

 Dipole components along the rotational axes: 
x,y,z [a.u.] :    -1.478946     0.095383    -1.492399 
x,y,z [Debye]:    -3.759182     0.242445    -3.793376 

 

Timings for individual modules:

Sum of individual times         ...     6589.193 sec (= 109.820 min)
GTO integral calculation        ...        5.222 sec (=   0.087 min)   0.1 %
SCF iterations                  ...     6575.013 sec (= 109.584 min)  99.8 %
CIS module                      ...        8.958 sec (=   0.149 min)   0.1 %
                             ****ORCA TERMINATED NORMALLY****
TOTAL RUN TIME: 0 days 1 hours 49 minutes 49 seconds 983 msec
