
                                 *****************
                                 * O   R   C   A *
                                 *****************

           --- An Ab Initio, DFT and Semiempirical electronic structure package ---

                  #######################################################
                  #                        -***-                        #
                  #          Department of theory and spectroscopy      #
                  #               Directorship: Frank Neese             #
                  #        Max Planck Institute fuer Kohlenforschung    #
                  #                Kaiser Wilhelm Platz 1               #
                  #                 D-45470 Muelheim/Ruhr               #
                  #                      Germany                        #
                  #                                                     #
                  #                  All rights reserved                #
                  #                        -***-                        #
                  #######################################################


                         Program Version 4.2.0 -  RELEASE  -


 With contributions from (in alphabetic order):
   Daniel Aravena         : Magnetic Suceptibility
   Michael Atanasov       : Ab Initio Ligand Field Theory (pilot matlab implementation)
   Alexander A. Auer      : GIAO ZORA, VPT2
   Ute Becker             : Parallelization
   Giovanni Bistoni       : ED, misc. LED, open-shell LED, HFLED
   Martin Brehm           : Molecular dynamics
   Dmytro Bykov           : SCF Hessian
   Vijay G. Chilkuri      : MRCI spin determinant printing, contributions to CSF-ICE
   Dipayan Datta          : RHF DLPNO-CCSD density
   Achintya Kumar Dutta   : EOM-CC, STEOM-CC
   Dmitry Ganyushin       : Spin-Orbit,Spin-Spin,Magnetic field MRCI
   Miquel Garcia          : C-PCM Hessian, Gaussian charge scheme
   Yang Guo               : DLPNO-NEVPT2, CIM, IAO-localization
   Andreas Hansen         : Spin unrestricted coupled pair/coupled cluster methods
   Benjamin Helmich-Paris : CASSCF linear response (MC-RPA)
   Lee Huntington         : MR-EOM, pCC
   Robert Izsak           : Overlap fitted RIJCOSX, COSX-SCS-MP3, EOM
   Christian Kollmar      : KDIIS, OOCD, Brueckner-CCSD(T), CCSD density
   Simone Kossmann        : Meta GGA functionals, TD-DFT gradient, OOMP2, MP2 Hessian
   Martin Krupicka        : AUTO-CI
   Lucas Lang             : DCDCAS
   Dagmar Lenk            : GEPOL surface, SMD
   Dimitrios Liakos       : Extrapolation schemes; Compound Job, initial MDCI parallelization
   Dimitrios Manganas     : Further ROCIS development; embedding schemes
   Dimitrios Pantazis     : SARC Basis sets
   Taras Petrenko         : DFT Hessian,TD-DFT gradient, ASA, ECA, R-Raman, ABS, FL, XAS/XES, NRVS
   Peter Pinski           : DLPNO-MP2, DLPNO-MP2 Gradient
   Christoph Reimann      : Effective Core Potentials
   Marius Retegan         : Local ZFS, SOC
   Christoph Riplinger    : Optimizer, TS searches, QM/MM, DLPNO-CCSD(T), (RO)-DLPNO pert. Triples
   Tobias Risthaus        : Range-separated hybrids, TD-DFT gradient, RPA, STAB
   Michael Roemelt        : Original ROCIS implementation
   Masaaki Saitow         : Open-shell DLPNO-CCSD energy and density
   Barbara Sandhoefer     : DKH picture change effects
   Avijit Sen             : IP-ROCIS
   Kantharuban Sivalingam : CASSCF convergence, NEVPT2, FIC-MRCI
   Bernardo de Souza      : ESD, SOC TD-DFT
   Georgi Stoychev        : AutoAux, RI-MP2 NMR
   Willem Van den Heuvel  : Paramagnetic NMR
   Boris Wezisla          : Elementary symmetry handling
   Frank Wennmohs         : Technical directorship


 We gratefully acknowledge several colleagues who have allowed us to
 interface, adapt or use parts of their codes:
   Stefan Grimme, W. Hujo, H. Kruse,             : VdW corrections, initial TS optimization,
                  C. Bannwarth                     DFT functionals, gCP, sTDA/sTD-DF
   Ed Valeev, F. Pavosevic, A. Kumar             : LibInt (2-el integral package), F12 methods
   Garnet Chan, S. Sharma, J. Yang, R. Olivares  : DMRG
   Ulf Ekstrom                                   : XCFun DFT Library
   Mihaly Kallay                                 : mrcc  (arbitrary order and MRCC methods)
   Andreas Klamt, Michael Diedenhofen            : otool_cosmo (COSMO solvation model)
   Jiri Pittner, Ondrej Demel                    : Mk-CCSD
   Frank Weinhold                                : gennbo (NPA and NBO analysis)
   Christopher J. Cramer and Donald G. Truhlar   : smd solvation model
   Lars Goerigk                                  : TD-DFT with DH, B97 family of functionals
   V. Asgeirsson, H. Jonsson                     : NEB implementation
   FAccTs GmbH                                   : IRC, NEB, NEB-TS, Multilevel, MM, QM/MM, CI optimization
   S Lehtola, MJT Oliveira, MAL Marques          : LibXC Library


 Your calculation uses the libint2 library for the computation of 2-el integrals
 For citations please refer to: http://libint.valeyev.net

 Your ORCA version has been built with support for libXC version: 4.2.3
 For citations please refer to: https://tddft.org/programs/libxc/

 This ORCA versions uses:
   CBLAS   interface :  Fast vector & matrix operations
   LAPACKE interface :  Fast linear algebra routines
   SCALAPACK package :  Parallel linear algebra routines


XCFun DFT library Copyright 2009-2010 Ulf Ekstrom and contributors.
See http://admol.org/xcfun for more information. This is free soft-
ware; see the source code for copying conditions. There is ABSOLUTELY
NO WARRANTY; not even for MERCHANTABILITY or FITNESS FOR A PARTICULAR
PURPOSE. For details see the documentation. Scientific users of this 
library should cite U. Ekstrom, L. Visscher, R. Bast, A. J. Thorvald-
sen and K. Ruud; J.Chem.Theor.Comp. 2010, DOI: 10.1021/ct100117s
XCFun Version 0.99 
----- Orbital basis set information -----
Your calculation utilizes the basis: def2-SVP
   F. Weigend and R. Ahlrichs, Phys. Chem. Chem. Phys. 7, 3297 (2005).

----- AuxJ basis set information -----
Your calculation utilizes the auxiliary basis: def2/J
   F. Weigend, Phys. Chem. Chem. Phys. 8, 1057 (2006).

================================================================================
                                        WARNINGS
                       Please study these warnings very carefully!
================================================================================

INFO   : Checking CIS options ...

WARNING: CIS/ROCIS methods need fully converged wavefunctions
  ===> : Setting SCFConvForced true
         You can overwrite this default with %scf ConvForced false 


INFO   : the flag for use of LIBINT has been found!

================================================================================
                                       INPUT FILE
================================================================================
NAME = SNBDT1-F.inp
|  1> # ORCA input file
|  2> # SNBDT1-F.out
|  3> ! CAM-B3LYP def2-SVP def2/J RIJCOSX Grid4 TightSCF
|  4> %maxcore 5000
|  5> %tddft
|  6>     Mode sTDDFT
|  7>     Ethresh 5.0
|  8>     maxcore 5000
|  9> end
| 10> * xyz 0 1
| 11>    C       -2.75775        -0.28298         0.46022
| 12>    C       -1.64820         0.35948        -0.10791
| 13>    C       -0.43908        -0.31159        -0.07805
| 14>    C       -0.24055        -1.55111         0.58587
| 15>    C       -1.30408        -2.06736         1.36280
| 16>    C       -2.54433        -1.44639         1.25749
| 17>    S        0.98268         0.34692        -0.85103
| 18>    C        1.86730        -1.04648        -0.34291
| 19>    C        1.10640        -1.98383         0.39234
| 20>    C        3.15556        -1.54909        -0.45640
| 21>    C        3.14882        -2.80500         0.19241
| 22>    N        1.90424        -3.05416         0.70766
| 23>    S        4.70313        -1.15719        -1.09025
| 24>    C        5.34789        -2.68405        -0.47470
| 25>    C        4.37896        -3.45397         0.14902
| 26>    S       -4.02964        -1.98707         2.05892
| 27>    C       -4.92437        -0.73651         1.27614
| 28>    C       -4.13769         0.06000         0.42492
| 29>    C       -6.23614        -0.28797         1.16929
| 30>    C       -6.21732         0.75858         0.21314
| 31>    N       -4.93804         0.95657        -0.23915
| 32>    S       -7.81217        -0.56112         1.78988
| 33>    C       -8.44039         0.76614         0.80703
| 34>    C       -7.46006         1.34489         0.01220
| 35>    O       -1.01045        -3.13685         2.14337
| 36>    O       -1.70373         1.61441        -0.66139
| 37>    C       -1.89782         2.65795         0.29709
| 38>    C       -0.64917         2.94782         1.13761
| 39>    C        0.41143         3.64290         0.28893
| 40>    C       -1.02766         3.80387         2.34280
| 41>    C       -1.79773        -3.46375         3.27795
| 42>    C       -0.95014        -4.31517         4.22854
| 43>    C        0.18601        -3.48488         4.81962
| 44>    C       -1.83848        -4.88396         5.33044
| 45>    C       -4.63070         1.66037        -1.45970
| 46>    C       -4.55651         0.71089        -2.66852
| 47>    C        1.55701        -4.33509         1.26581
| 48>    C        1.32099        -5.39801         0.17948
| 49>    C       -5.91965         0.10647        -2.99067
| 50>    C       -4.00069         1.47303        -3.86741
| 51>    C        1.06211        -6.74513         0.84731
| 52>    C        0.14500        -5.00209        -0.70807
| 53>    C        6.68878        -3.06501        -0.69462
| 54>    C        7.76071        -2.27122        -0.97860
| 55>    C        8.95602        -2.83869        -1.64921
| 56>    C        9.71074        -1.66203        -2.14219
| 57>    C        9.09341        -0.48225        -1.68635
| 58>    C        7.96672        -0.84723        -0.83059
| 59>    C       10.83863        -1.63095        -2.93703
| 60>    C       11.33097        -0.37922        -3.27617
| 61>    C       10.73322         0.79836        -2.85188
| 62>    C        9.60586         0.75467        -2.04561
| 63>    C       -9.81415         1.05209         0.89010
| 64>    C      -10.51439         2.14630         0.46220
| 65>    C      -11.98155         2.01556         0.27035
| 66>    C      -12.37967         3.21166        -0.50681
| 67>    C      -11.26594         4.05554        -0.66696
| 68>    C      -10.13055         3.47601         0.05373
| 69>    C      -13.61317         3.52205        -1.04133
| 70>    C      -13.70407         4.70633        -1.75824
| 71>    C      -12.61895         5.54972        -1.94385
| 72>    C      -11.38662         5.23036        -1.39343
| 73>    O      -12.68561         1.10374         0.63804
| 74>    F      -14.88473         5.05027        -2.29871
| 75>    C       -9.02922         4.18300         0.46734
| 76>    C       -8.74622         5.50590         0.07277
| 77>    C       -8.08188         3.70487         1.39358
| 78>    N       -8.44274         6.57002        -0.23402
| 79>    N       -7.28917         3.38437         2.15984
| 80>    O        9.22417        -4.00849        -1.80056
| 81>    F       12.42771        -0.30033        -4.04904
| 82>    C        7.42095        -0.05247         0.14338
| 83>    C        7.72835         1.31231         0.30785
| 84>    C        6.56865        -0.54802         1.15252
| 85>    N        5.92601        -0.93246         2.02276
| 86>    N        7.93789         2.42844         0.47570
| 87>    H        4.59939        -4.41379         0.57947
| 88>    H       -7.67016         2.12149        -0.70026
| 89>    H       -2.74069         2.40713         0.95393
| 90>    H       -2.15655         3.54180        -0.29166
| 91>    H       -0.25125         1.99126         1.49585
| 92>    H        0.08078         4.64462         0.02263
| 93>    H        0.59167         3.08338        -0.62532
| 94>    H        1.34707         3.72124         0.83611
| 95>    H       -1.47231         4.74153         2.01690
| 96>    H       -0.14262         4.02969         2.93162
| 97>    H       -1.74258         3.28745         2.97970
| 98>    H       -2.68489        -4.02870         2.96756
| 99>    H       -2.11700        -2.55312         3.79432
|100>    H       -0.52595        -5.14397         3.65238
|101>    H       -0.21490        -2.69980         5.45707
|102>    H        0.77623        -3.02190         4.03296
|103>    H        0.84091        -4.11217         5.41855
|104>    H       -2.30488        -4.07982         5.89448
|105>    H       -1.24591        -5.48522         6.01457
|106>    H       -2.62302        -5.50993         4.91253
|107>    H       -3.67005         2.16082        -1.36137
|108>    H       -5.40787         2.41133        -1.61559
|109>    H       -3.86094        -0.09703        -2.41471
|110>    H        0.65195        -4.22181         1.85563
|111>    H        2.37759        -4.64846         1.91802
|112>    H        2.22174        -5.47372        -0.44014
|113>    H       -5.83988        -0.56820        -3.83944
|114>    H       -6.63317         0.88855        -3.24339
|115>    H       -6.30976        -0.45851        -2.14671
|116>    H       -4.64772         2.31027        -4.12031
|117>    H       -3.93331         0.81854        -4.73252
|118>    H       -3.00689         1.85490        -3.64714
|119>    H        0.16109        -6.69760         1.45502
|120>    H        1.89512        -7.02878         1.48653
|121>    H        0.92744        -7.52016         0.09724
|122>    H       -0.75272        -4.87255        -0.10756
|123>    H       -0.04420        -5.77260        -1.45145
|124>    H        0.34689        -4.06953        -1.23047
|125>    H        6.88111        -4.13350        -0.71816
|126>    H       11.31654        -2.53547        -3.27761
|127>    H       11.15734         1.74219        -3.15636
|128>    H        9.14023         1.67159        -1.72237
|129>    H      -10.43456         0.25943         1.29843
|130>    H      -14.46636         2.87661        -0.90755
|131>    H      -12.74787         6.45348        -2.51825
|132>    H      -10.54746         5.88925        -1.54617
|133> *
|134> 
|135>                          ****END OF INPUT****
================================================================================

                       ****************************
                       * Single Point Calculation *
                       ****************************

---------------------------------
CARTESIAN COORDINATES (ANGSTROEM)
---------------------------------
  C     -2.757750   -0.282980    0.460220
  C     -1.648200    0.359480   -0.107910
  C     -0.439080   -0.311590   -0.078050
  C     -0.240550   -1.551110    0.585870
  C     -1.304080   -2.067360    1.362800
  C     -2.544330   -1.446390    1.257490
  S      0.982680    0.346920   -0.851030
  C      1.867300   -1.046480   -0.342910
  C      1.106400   -1.983830    0.392340
  C      3.155560   -1.549090   -0.456400
  C      3.148820   -2.805000    0.192410
  N      1.904240   -3.054160    0.707660
  S      4.703130   -1.157190   -1.090250
  C      5.347890   -2.684050   -0.474700
  C      4.378960   -3.453970    0.149020
  S     -4.029640   -1.987070    2.058920
  C     -4.924370   -0.736510    1.276140
  C     -4.137690    0.060000    0.424920
  C     -6.236140   -0.287970    1.169290
  C     -6.217320    0.758580    0.213140
  N     -4.938040    0.956570   -0.239150
  S     -7.812170   -0.561120    1.789880
  C     -8.440390    0.766140    0.807030
  C     -7.460060    1.344890    0.012200
  O     -1.010450   -3.136850    2.143370
  O     -1.703730    1.614410   -0.661390
  C     -1.897820    2.657950    0.297090
  C     -0.649170    2.947820    1.137610
  C      0.411430    3.642900    0.288930
  C     -1.027660    3.803870    2.342800
  C     -1.797730   -3.463750    3.277950
  C     -0.950140   -4.315170    4.228540
  C      0.186010   -3.484880    4.819620
  C     -1.838480   -4.883960    5.330440
  C     -4.630700    1.660370   -1.459700
  C     -4.556510    0.710890   -2.668520
  C      1.557010   -4.335090    1.265810
  C      1.320990   -5.398010    0.179480
  C     -5.919650    0.106470   -2.990670
  C     -4.000690    1.473030   -3.867410
  C      1.062110   -6.745130    0.847310
  C      0.145000   -5.002090   -0.708070
  C      6.688780   -3.065010   -0.694620
  C      7.760710   -2.271220   -0.978600
  C      8.956020   -2.838690   -1.649210
  C      9.710740   -1.662030   -2.142190
  C      9.093410   -0.482250   -1.686350
  C      7.966720   -0.847230   -0.830590
  C     10.838630   -1.630950   -2.937030
  C     11.330970   -0.379220   -3.276170
  C     10.733220    0.798360   -2.851880
  C      9.605860    0.754670   -2.045610
  C     -9.814150    1.052090    0.890100
  C    -10.514390    2.146300    0.462200
  C    -11.981550    2.015560    0.270350
  C    -12.379670    3.211660   -0.506810
  C    -11.265940    4.055540   -0.666960
  C    -10.130550    3.476010    0.053730
  C    -13.613170    3.522050   -1.041330
  C    -13.704070    4.706330   -1.758240
  C    -12.618950    5.549720   -1.943850
  C    -11.386620    5.230360   -1.393430
  O    -12.685610    1.103740    0.638040
  F    -14.884730    5.050270   -2.298710
  C     -9.029220    4.183000    0.467340
  C     -8.746220    5.505900    0.072770
  C     -8.081880    3.704870    1.393580
  N     -8.442740    6.570020   -0.234020
  N     -7.289170    3.384370    2.159840
  O      9.224170   -4.008490   -1.800560
  F     12.427710   -0.300330   -4.049040
  C      7.420950   -0.052470    0.143380
  C      7.728350    1.312310    0.307850
  C      6.568650   -0.548020    1.152520
  N      5.926010   -0.932460    2.022760
  N      7.937890    2.428440    0.475700
  H      4.599390   -4.413790    0.579470
  H     -7.670160    2.121490   -0.700260
  H     -2.740690    2.407130    0.953930
  H     -2.156550    3.541800   -0.291660
  H     -0.251250    1.991260    1.495850
  H      0.080780    4.644620    0.022630
  H      0.591670    3.083380   -0.625320
  H      1.347070    3.721240    0.836110
  H     -1.472310    4.741530    2.016900
  H     -0.142620    4.029690    2.931620
  H     -1.742580    3.287450    2.979700
  H     -2.684890   -4.028700    2.967560
  H     -2.117000   -2.553120    3.794320
  H     -0.525950   -5.143970    3.652380
  H     -0.214900   -2.699800    5.457070
  H      0.776230   -3.021900    4.032960
  H      0.840910   -4.112170    5.418550
  H     -2.304880   -4.079820    5.894480
  H     -1.245910   -5.485220    6.014570
  H     -2.623020   -5.509930    4.912530
  H     -3.670050    2.160820   -1.361370
  H     -5.407870    2.411330   -1.615590
  H     -3.860940   -0.097030   -2.414710
  H      0.651950   -4.221810    1.855630
  H      2.377590   -4.648460    1.918020
  H      2.221740   -5.473720   -0.440140
  H     -5.839880   -0.568200   -3.839440
  H     -6.633170    0.888550   -3.243390
  H     -6.309760   -0.458510   -2.146710
  H     -4.647720    2.310270   -4.120310
  H     -3.933310    0.818540   -4.732520
  H     -3.006890    1.854900   -3.647140
  H      0.161090   -6.697600    1.455020
  H      1.895120   -7.028780    1.486530
  H      0.927440   -7.520160    0.097240
  H     -0.752720   -4.872550   -0.107560
  H     -0.044200   -5.772600   -1.451450
  H      0.346890   -4.069530   -1.230470
  H      6.881110   -4.133500   -0.718160
  H     11.316540   -2.535470   -3.277610
  H     11.157340    1.742190   -3.156360
  H      9.140230    1.671590   -1.722370
  H    -10.434560    0.259430    1.298430
  H    -14.466360    2.876610   -0.907550
  H    -12.747870    6.453480   -2.518250
  H    -10.547460    5.889250   -1.546170

----------------------------
CARTESIAN COORDINATES (A.U.)
----------------------------
  NO LB      ZA    FRAG     MASS         X           Y           Z
   0 C     6.0000    0    12.011   -5.211392   -0.534755    0.869690
   1 C     6.0000    0    12.011   -3.114647    0.679319   -0.203920
   2 C     6.0000    0    12.011   -0.829741   -0.588820   -0.147493
   3 C     6.0000    0    12.011   -0.454574   -2.931173    1.107134
   4 C     6.0000    0    12.011   -2.464354   -3.906744    2.575319
   5 C     6.0000    0    12.011   -4.808087   -2.733281    2.376312
   6 S    16.0000    0    32.060    1.856996    0.655584   -1.608214
   7 C     6.0000    0    12.011    3.528686   -1.977561   -0.648006
   8 C     6.0000    0    12.011    2.090793   -3.748895    0.741415
   9 C     6.0000    0    12.011    5.963144   -2.927356   -0.862471
  10 C     6.0000    0    12.011    5.950407   -5.300682    0.363602
  11 N     7.0000    0    14.007    3.598492   -5.771526    1.337284
  12 S    16.0000    0    32.060    8.887628   -2.186772   -2.060274
  13 C     6.0000    0    12.011   10.106047   -5.072119   -0.897053
  14 C     6.0000    0    12.011    8.275035   -6.527057    0.281607
  15 S    16.0000    0    32.060   -7.614916   -3.755018    3.890795
  16 C     6.0000    0    12.011   -9.305711   -1.391802    2.411555
  17 C     6.0000    0    12.011   -7.819101    0.113384    0.802982
  18 C     6.0000    0    12.011  -11.784597   -0.544184    2.209638
  19 C     6.0000    0    12.011  -11.749032    1.433508    0.402776
  20 N     7.0000    0    14.007   -9.331543    1.807655   -0.451928
  21 S    16.0000    0    32.060  -14.762862   -1.060363    3.382383
  22 C     6.0000    0    12.011  -15.950026    1.447795    1.525066
  23 C     6.0000    0    12.011  -14.097470    2.541474    0.023055
  24 O     8.0000    0    15.999   -1.909474   -5.927787    4.050382
  25 O     8.0000    0    15.999   -3.219583    3.050793   -1.249846
  26 C     6.0000    0    12.011   -3.586360    5.022798    0.561419
  27 C     6.0000    0    12.011   -1.226754    5.570572    2.149771
  28 C     6.0000    0    12.011    0.777490    6.884083    0.545999
  29 C     6.0000    0    12.011   -1.941996    7.188273    4.427250
  30 C     6.0000    0    12.011   -3.397217   -6.545539    6.194428
  31 C     6.0000    0    12.011   -1.795504   -8.154490    7.990783
  32 C     6.0000    0    12.011    0.351508   -6.585469    9.107762
  33 C     6.0000    0    12.011   -3.474224   -9.229347   10.073072
  34 C     6.0000    0    12.011   -8.750755    3.137645   -2.758433
  35 C     6.0000    0    12.011   -8.610556    1.343387   -5.042772
  36 C     6.0000    0    12.011    2.942322   -8.192133    2.392034
  37 C     6.0000    0    12.011    2.496309  -10.200761    0.339168
  38 C     6.0000    0    12.011  -11.186517    0.201199   -5.651547
  39 C     6.0000    0    12.011   -7.560208    2.783623   -7.308346
  40 C     6.0000    0    12.011    2.007097  -12.746448    1.601184
  41 C     6.0000    0    12.011    0.274010   -9.452580   -1.338058
  42 C     6.0000    0    12.011   12.639962   -5.792029   -1.312642
  43 C     6.0000    0    12.011   14.665617   -4.291984   -1.849286
  44 C     6.0000    0    12.011   16.924425   -5.364347   -3.116555
  45 C     6.0000    0    12.011   18.350639   -3.140782   -4.048152
  46 C     6.0000    0    12.011   17.184055   -0.911320   -3.186740
  47 C     6.0000    0    12.011   15.054919   -1.601033   -1.569588
  48 C     6.0000    0    12.011   20.482042   -3.082049   -5.550182
  49 C     6.0000    0    12.011   21.412430   -0.716622   -6.191064
  50 C     6.0000    0    12.011   20.282846    1.508682   -5.389272
  51 C     6.0000    0    12.011   18.152445    1.426120   -3.865643
  52 C     6.0000    0    12.011  -18.546056    1.988162    1.682045
  53 C     6.0000    0    12.011  -19.869318    4.055919    0.873431
  54 C     6.0000    0    12.011  -22.641848    3.808856    0.510887
  55 C     6.0000    0    12.011  -23.394186    6.069158   -0.957732
  56 C     6.0000    0    12.011  -21.289541    7.663860   -1.260372
  57 C     6.0000    0    12.011  -19.143965    6.568707    0.101535
  58 C     6.0000    0    12.011  -25.725163    6.655710   -1.967829
  59 C     6.0000    0    12.011  -25.896939    8.893675   -3.322592
  60 C     6.0000    0    12.011  -23.846360   10.487451   -3.673344
  61 C     6.0000    0    12.011  -21.517593    9.883948   -2.633201
  62 O     8.0000    0    15.999  -23.972329    2.085766    1.205721
  63 F     9.0000    0    18.998  -28.128063    9.543627   -4.343932
  64 C     6.0000    0    12.011  -17.062753    7.904724    0.883145
  65 C     6.0000    0    12.011  -16.527961   10.404643    0.137515
  66 C     6.0000    0    12.011  -15.272540    7.001190    2.633485
  67 N     7.0000    0    14.007  -15.954466   12.415538   -0.442234
  68 N     7.0000    0    14.007  -13.774535    6.395532    4.081506
  69 O     8.0000    0    15.999   17.431155   -7.574948   -3.402565
  70 F     9.0000    0    18.998   23.484968   -0.567541   -7.651577
  71 C     6.0000    0    12.011   14.023563   -0.099154    0.270949
  72 C     6.0000    0    12.011   14.604465    2.479907    0.581752
  73 C     6.0000    0    12.011   12.412950   -1.035608    2.177947
  74 N     7.0000    0    14.007   11.198536   -1.762094    3.822462
  75 N     7.0000    0    14.007   15.000438    4.589087    0.898943
  76 H     1.0000    0     1.008    8.691587   -8.340854    1.095040
  77 H     1.0000    0     1.008  -14.494502    4.009035   -1.323300
  78 H     1.0000    0     1.008   -5.179154    4.548816    1.802666
  79 H     1.0000    0     1.008   -4.075289    6.693032   -0.551158
  80 H     1.0000    0     1.008   -0.474794    3.762936    2.826747
  81 H     1.0000    0     1.008    0.152652    8.777060    0.042765
  82 H     1.0000    0     1.008    1.118094    5.826744   -1.181684
  83 H     1.0000    0     1.008    2.545593    7.032124    1.580019
  84 H     1.0000    0     1.008   -2.782263    8.960193    3.811389
  85 H     1.0000    0     1.008   -0.269513    7.615011    5.539959
  86 H     1.0000    0     1.008   -3.292999    6.212380    5.630817
  87 H     1.0000    0     1.008   -5.073707   -7.613140    5.607876
  88 H     1.0000    0     1.008   -4.000550   -4.824698    7.170226
  89 H     1.0000    0     1.008   -0.993901   -9.720695    6.901998
  90 H     1.0000    0     1.008   -0.406102   -5.101883   10.312368
  91 H     1.0000    0     1.008    1.466862   -5.710563    7.621190
  92 H     1.0000    0     1.008    1.589090   -7.770875   10.239576
  93 H     1.0000    0     1.008   -4.355592   -7.709742   11.138953
  94 H     1.0000    0     1.008   -2.354429  -10.365564   11.365890
  95 H     1.0000    0     1.008   -4.956789  -10.412259    9.283336
  96 H     1.0000    0     1.008   -6.935389    4.083358   -2.572616
  97 H     1.0000    0     1.008  -10.219393    4.556753   -3.053023
  98 H     1.0000    0     1.008   -7.296119   -0.183360   -4.563141
  99 H     1.0000    0     1.008    1.232007   -7.978065    3.506633
 100 H     1.0000    0     1.008    4.492994   -8.784316    3.624533
 101 H     1.0000    0     1.008    4.198480  -10.343832   -0.831744
 102 H     1.0000    0     1.008  -11.035774   -1.073742   -7.255490
 103 H     1.0000    0     1.008  -12.534875    1.679116   -6.129119
 104 H     1.0000    0     1.008  -11.923718   -0.866458   -4.056694
 105 H     1.0000    0     1.008   -8.782918    4.365778   -7.786257
 106 H     1.0000    0     1.008   -7.432879    1.546816   -8.943167
 107 H     1.0000    0     1.008   -5.682199    3.505253   -6.892096
 108 H     1.0000    0     1.008    0.304416  -12.656630    2.749589
 109 H     1.0000    0     1.008    3.581258  -13.282469    2.809135
 110 H     1.0000    0     1.008    1.752608  -14.211043    0.183757
 111 H     1.0000    0     1.008   -1.422435   -9.207785   -0.203259
 112 H     1.0000    0     1.008   -0.083526  -10.908633   -2.742843
 113 H     1.0000    0     1.008    0.655527   -7.690297   -2.325251
 114 H     1.0000    0     1.008   13.003413   -7.811183   -1.357126
 115 H     1.0000    0     1.008   21.385161   -4.791344   -6.193785
 116 H     1.0000    0     1.008   21.084317    3.292262   -5.964656
 117 H     1.0000    0     1.008   17.272532    3.158847   -3.254808
 118 H     1.0000    0     1.008  -19.718461    0.490252    2.453677
 119 H     1.0000    0     1.008  -27.337459    5.436005   -1.715021
 120 H     1.0000    0     1.008  -24.089983   12.195310   -4.758803
 121 H     1.0000    0     1.008  -19.931811   11.129070   -2.921838

--------------------------------
INTERNAL COORDINATES (ANGSTROEM)
--------------------------------
 C      0   0   0     0.000000000000     0.00000000     0.00000000
 C      1   0   0     1.402365056253     0.00000000     0.00000000
 C      2   1   0     1.383183913621   117.42716308     0.00000000
 C      3   2   1     1.420075264801   123.76441448   354.65242207
 C      4   3   2     1.414648489308   118.04698015   353.94484717
 C      5   4   3     1.391011861740   117.76368454    10.15222499
 S      3   2   1     1.747150536760   121.26130659   175.82815539
 C      7   3   2     1.726934289080    89.00077010   180.49172991
 C      8   7   3     1.413572210748   114.35214908   359.97297294
 C      8   7   3     1.387483556587   138.05888161   179.15552867
 C     10   8   7     1.413615850152   106.25209110   181.97232244
 N     11  10   8     1.369869572076   109.78914367   358.95954766
 S     10   8   7     1.717650819404   141.63591074     2.68095764
 C     13  10   8     1.768026787043    90.17486619   179.01326645
 C     14  13  10     1.385867522421   112.42644676     1.77746805
 S      6   5   4     1.772221967870   125.22846591   176.01983993
 C     16   6   5     1.725452582629    90.47696229   183.34283346
 C     17  16   6     1.406367338536   113.26649783     0.58282642
 C     17  16   6     1.390447980688   139.27681016   176.55783084
 C     19  17  16     1.417689640718   106.10748575   185.54833759
 N     20  19  17     1.371248920729   109.96395261   359.30556623
 S     19  17  16     1.715696194406   141.94902098     5.95977068
 C     22  19  17     1.766995641902    90.33273649   177.78306067
 C     23  22  19     1.388435522558   112.36425777     1.95216971
 O      5   4   3     1.356214202071   116.17437012   189.89957962
 O      2   1   3     1.372688237074   123.37849282   181.20396365
 C     26   2   1     1.430150541062   113.72434906    69.64156176
 C     27  26   2     1.532848756336   113.26145924    73.41603423
 C     28  27  26     1.525865757136   110.32646823    71.60309260
 C     28  27  26     1.525961735660   109.70101618   194.01743102
 C     25   5   4     1.419135365214   121.44550399   158.03839965
 C     31  25   5     1.531974599202   108.49203691   202.08559894
 C     32  31  25     1.526300715128   110.47553732    67.52764520
 C     32  31  25     1.525402776220   109.46671570   189.91953896
 C     21  20  19     1.442059159015   123.26229045   161.82094043
 C     35  21  20     1.538915923272   111.96249415   269.27209212
 C     12  11  10     1.439750589616   121.78630913   171.56857690
 C     37  12  11     1.538056317467   112.21249233   284.69914088
 C     36  35  21     1.525534273132   111.54594081    66.61213405
 C     36  35  21     1.525493521487   109.06547214   189.51260252
 C     38  37  12     1.525695925701   109.09086142   175.80217672
 C     38  37  12     1.525598285592   110.47789062   297.67213168
 C     14  13  10     1.411198540284   121.69411484   178.12081801
 C     43  14  13     1.363737925483   128.47559468    22.50087141
 C     44  43  14     1.483410249762   120.32052900   202.29677432
 C     45  44  43     1.482282130500   104.88949743   163.97248541
 C     46  45  44     1.407397343645   109.53479606     5.59135093
 C     44  43  14     1.446407480726   131.58202654    17.22768632
 C     46  45  44     1.380171164784   128.71897258   186.27793109
 C     49  46  45     1.387170720604   116.81848306   178.72103256
 C     50  49  46     1.387091101190   122.57017535   359.81999232
 C     47  46  45     1.386233687551   120.12510274   181.38669430
 C     23  22  19     1.405661611128   117.86516099   179.69129807
 C     53  23  22     1.367746318474   130.13588075   165.95650688
 C     54  53  23     1.485415038196   118.40281582   160.30293293
 C     55  54  53     1.480922823783   105.20177975   194.11230635
 C     56  55  54     1.406476444808   109.35847776   355.11973294
 C     54  53  23     1.443020987581   133.59572240   344.57239471
 C     56  55  54     1.379701356272   128.70829128   174.29367547
 C     59  56  55     1.387350668180   116.79592576   181.44171713
 C     60  59  56     1.386810433549   122.48156380     0.18652038
 C     57  56  55     1.386551245248   119.94134362   178.44606402
 O     55  54  53     1.209260985933   127.02499743    12.08378327
 F     60  59  56     1.343264895730   118.95186499   179.93790959
 C     58  54  53     1.372529001916   127.06998522   331.67306993
 C     65  58  54     1.409197961572   124.07807348   183.01506215
 C     65  58  54     1.408538927435   124.26270804   359.39324870
 N     66  65  58     1.148290724904   176.22571298   204.04242456
 N     67  65  58     1.148156688654   176.35238233   199.77233955
 O     45  44  43     1.209645933734   127.23818199   346.44661374
 F     50  49  46     1.344020199476   118.89313509   180.01150867
 C     48  44  43     1.370447339886   125.94038224    32.10201802
 C     72  48  44     1.408605547803   123.91464604   175.08161088
 C     72  48  44     1.410797161927   123.04137926     0.21565255
 N     74  72  48     1.148084465882   176.34805879   115.86063636
 N     73  72  48     1.147966380605   177.34099050   168.38241501
 H     15  14  13     1.074770217209   122.20773844   179.93050082
 H     24  23  22     1.074638926151   122.86899247   175.73927261
 H     27  26   2     1.097624386983   109.78758495   310.14051341
 H     27  26   2     1.093050135126   105.13861763   193.04223933
 H     28  27  26     1.096213144238   108.05172306   312.43026526
 H     29  28  27     1.087974296985   110.13974242    68.17744271
 H     29  28  27     1.086923249590   110.40186844   308.28832255
 H     29  28  27     1.086722281726   110.56274084   188.17335206
 H     30  28  27     1.087718119781   110.38683261   300.78754910
 H     30  28  27     1.086737993446   110.02924602   181.15432966
 H     30  28  27     1.087861127534   111.04404181    61.06430183
 H     31  25   5     1.096614481119   109.94892852    82.13122049
 H     31  25   5     1.094448859792   110.32685039   321.83195402
 H     32  31  25     1.094900425473   107.97024700   308.30135657
 H     33  32  31     1.087851983038   110.19281924    65.67758089
 H     33  32  31     1.086988539222   110.83174899   305.60523852
 H     33  32  31     1.086786041040   110.36497154   185.36875905
 H     34  32  31     1.087341354497   110.41096044   300.06457795
 H     34  32  31     1.086594059159   110.09323255   180.34452755
 H     34  32  31     1.087193736461   110.93223083    60.26054997
 H     35  21  20     1.087643054453   109.65075377   149.16720289
 H     35  21  20     1.091895518170   107.74652940    30.69427840
 H     36  35  21     1.095888619979   107.66975436   307.18460230
 H     37  12  11     1.086210658390   108.58286049   163.98413254
 H     37  12  11     1.094043041841   107.76143234    45.65685580
 H     38  37  12     1.095906707252   108.72067263    57.02025466
 H     39  36  35     1.087176790913   110.19233504   180.64602077
 H     39  36  35     1.088405859595   110.49455204    61.09473028
 H     39  36  35     1.087959877063   111.24379053   300.44590169
 H     40  36  35     1.087923273260   110.51658750   299.46120678
 H     40  36  35     1.086882025153   110.32135817   179.62411576
 H     40  36  35     1.087189960311   110.44518193    59.76910768
 H     41  38  37     1.087845386716   110.27268874    62.37878585
 H     41  38  37     1.087642032564   110.95087552   302.12882358
 H     41  38  37     1.086928017258   110.39845044   182.01754888
 H     42  38  37     1.087793211093   110.23605501   302.06028036
 H     42  38  37     1.087242440535   110.36496034   182.15157101
 H     42  38  37     1.087809489617   111.02668172    62.24095047
 H     43  14  13     1.085917050515   115.93108164   207.77569679
 H     49  46  45     1.078215718166   121.68452388   358.61869201
 H     51  50  49     1.078610640454   119.14858357   180.58316472
 H     52  47  46     1.077978515973   121.43850486   178.94848090
 H     53  23  22     1.086255878051   115.59159618   341.48245024
 H     59  56  55     1.078157251100   121.65049435     1.53230211
 H     61  60  59     1.078581412783   119.16526337   179.46531122
 H     62  57  56     1.077801023056   121.63196560   180.96556040

---------------------------
INTERNAL COORDINATES (A.U.)
---------------------------
 C      0   0   0     0.000000000000     0.00000000     0.00000000
 C      1   0   0     2.650085896100     0.00000000     0.00000000
 C      2   1   0     2.613838789589   117.42716308     0.00000000
 C      3   2   1     2.683553340030   123.76441448   354.65242207
 C      4   3   2     2.673298220557   118.04698015   353.94484717
 C      5   4   3     2.628631467724   117.76368454    10.15222499
 S      3   2   1     3.301636029210   121.26130659   175.82815539
 C      7   3   2     3.263432857639    89.00077010   180.49172991
 C      8   7   3     2.671264348836   114.35214908   359.97297294
 C      8   7   3     2.621963937269   138.05888161   179.15552867
 C     10   8   7     2.671346815357   106.25209110   181.97232244
 N     11  10   8     2.588678330416   109.78914367   358.95954766
 S     10   8   7     3.245889642379   141.63591074     2.68095764
 C     13  10   8     3.341086424947    90.17486619   179.01326645
 C     14  13  10     2.618910075271   112.42644676     1.77746805
 S      6   5   4     3.349014167793   125.22846591   176.01983993
 C     16   6   5     3.260632838235    90.47696229   183.34283346
 C     17  16   6     2.657649113524   113.26649783     0.58282642
 C     17  16   6     2.627565886965   139.27681016   176.55783084
 C     19  17  16     2.679045163855   106.10748575   185.54833759
 N     20  19  17     2.591284921613   109.96395261   359.30556623
 S     19  17  16     3.242195936439   141.94902098     5.95977068
 C     22  19  17     3.339137843027    90.33273649   177.78306067
 C     23  22  19     2.623762892242   112.36425777     1.95216971
 O      5   4   3     2.562873420849   116.17437012   189.89957962
 O      2   1   3     2.594004835324   123.37849282   181.20396365
 C     26   2   1     2.702592852887   113.72434906    69.64156176
 C     27  26   2     2.896664354196   113.26145924    73.41603423
 C     28  27  26     2.883468398115   110.32646823    71.60309260
 C     28  27  26     2.883649771241   109.70101618   194.01743102
 C     25   5   4     2.681777187216   121.44550399   158.03839965
 C     31  25   5     2.895012436615   108.49203691   202.08559894
 C     32  31  25     2.884290349600   110.47553732    67.52764520
 C     32  31  25     2.882593490979   109.46671570   189.91953896
 C     21  20  19     2.725096879452   123.26229045   161.82094043
 C     35  21  20     2.908129638115   111.96249415   269.27209212
 C     12  11  10     2.720734315526   121.78630913   171.56857690
 C     37  12  11     2.906505218560   112.21249233   284.69914088
 C     36  35  21     2.882841984130   111.54594081    66.61213405
 C     36  35  21     2.882764974682   109.06547214   189.51260252
 C     38  37  12     2.883147463214   109.09086142   175.80217672
 C     38  37  12     2.882962950148   110.47789062   297.67213168
 C     14  13  10     2.666778761726   121.69411484   178.12081801
 C     43  14  13     2.577091197604   128.47559468    22.50087141
 C     44  43  14     2.803239116303   120.32052900   202.29677432
 C     45  44  43     2.801107279851   104.88949743   163.97248541
 C     46  45  44     2.659595541098   109.53479606     5.59135093
 C     44  43  14     2.733314016627   131.58202654    17.22768632
 C     46  45  44     2.608145519376   128.71897258   186.27793109
 C     49  46  45     2.621372762935   116.81848306   178.72103256
 C     50  49  46     2.621222304048   122.57017535   359.81999232
 C     47  46  45     2.619602027086   120.12510274   181.38669430
 C     23  22  19     2.656315481999   117.86516099   179.69129807
 C     53  23  22     2.584665962595   130.13588075   165.95650688
 C     54  53  23     2.807027617399   118.40281582   160.30293293
 C     55  54  53     2.798538562422   105.20177975   194.11230635
 C     56  55  54     2.657855294498   109.35847776   355.11973294
 C     54  53  23     2.726914472029   133.59572240   344.57239471
 C     56  55  54     2.607257709955   128.70829128   174.29367547
 C     59  56  55     2.621712814573   116.79592576   181.44171713
 C     60  59  56     2.620691919072   122.48156380     0.18652038
 C     57  56  55     2.620202124167   119.94134362   178.44606402
 O     55  54  53     2.285172087849   127.02499743    12.08378327
 F     60  59  56     2.538402778240   118.95186499   179.93790959
 C     58  54  53     2.593703924485   127.06998522   331.67306993
 C     65  58  54     2.662998215852   124.07807348   183.01506215
 C     65  58  54     2.661752821820   124.26270804   359.39324870
 N     66  65  58     2.169954992190   176.22571298   204.04242456
 N     67  65  58     2.169701700385   176.35238233   199.77233955
 O     45  44  43     2.285899533769   127.23818199   346.44661374
 F     50  49  46     2.539830095468   118.89313509   180.01150867
 C     48  44  43     2.589770153345   125.94038224    32.10201802
 C     72  48  44     2.661878716069   123.91464604   175.08161088
 C     72  48  44     2.666020266555   123.04137926     0.21565255
 N     74  72  48     2.169565219127   176.34805879   115.86063636
 N     73  72  48     2.169342070293   177.34099050   168.38241501
 H     15  14  13     2.031021367421   122.20773844   179.93050082
 H     24  23  22     2.030773263278   122.86899247   175.73927261
 H     27  26   2     2.074209489311   109.78758495   310.14051341
 H     27  26   2     2.065565406035   105.13861763   193.04223933
 H     28  27  26     2.071542627014   108.05172306   312.43026526
 H     29  28  27     2.055973462047   110.13974242    68.17744271
 H     29  28  27     2.053987270317   110.40186844   308.28832255
 H     29  28  27     2.053607496092   110.56274084   188.17335206
 H     30  28  27     2.055489357290   110.38683261   300.78754910
 H     30  28  27     2.053637186941   110.02924602   181.15432966
 H     30  28  27     2.055759602778   111.04404181    61.06430183
 H     31  25   5     2.072301043807   109.94892852    82.13122049
 H     31  25   5     2.068208612589   110.32685039   321.83195402
 H     32  31  25     2.069061948057   107.97024700   308.30135657
 H     33  32  31     2.055742322185   110.19281924    65.67758089
 H     33  32  31     2.054110649841   110.83174899   305.60523852
 H     33  32  31     2.053727983735   110.36497154   185.36875905
 H     34  32  31     2.054777374087   110.41096044   300.06457795
 H     34  32  31     2.053365190557   110.09323255   180.34452755
 H     34  32  31     2.054498416426   110.93223083    60.26054997
 H     35  21  20     2.055347504378   109.65075377   149.16720289
 H     35  21  20     2.063383496198   107.74652940    30.69427840
 H     36  35  21     2.070929365042   107.66975436   307.18460230
 H     37  12  11     2.052640668103   108.58286049   163.98413254
 H     37  12  11     2.067441727801   107.76143234    45.65685580
 H     38  37  12     2.070963545034   108.72067263    57.02025466
 H     39  36  35     2.054466393981   110.19233504   180.64602077
 H     39  36  35     2.056788997189   110.49455204    61.09473028
 H     39  36  35     2.055946212345   111.24379053   300.44590169
 H     40  36  35     2.055877041180   110.51658750   299.46120678
 H     40  36  35     2.053909367420   110.32135817   179.62411576
 H     40  36  35     2.054491280536   110.44518193    59.76910768
 H     41  38  37     2.055729856944   110.27268874    62.37878585
 H     41  38  37     2.055345573287   110.95087552   302.12882358
 H     41  38  37     2.053996279903   110.39845044   182.01754888
 H     42  38  37     2.055631259305   110.23605501   302.06028036
 H     42  38  37     2.054590453787   110.36496034   182.15157101
 H     42  38  37     2.055662021256   111.02668172    62.24095047
 H     43  14  13     2.052085829630   115.93108164   207.77569679
 H     49  46  45     2.037532420623   121.68452388   358.61869201
 H     51  50  49     2.038278715591   119.14858357   180.58316472
 H     52  47  46     2.037084173440   121.43850486   178.94848090
 H     53  23  22     2.052726120878   115.59159618   341.48245024
 H     59  56  55     2.037421933881   121.65049435     1.53230211
 H     61  60  59     2.038223483297   119.16526337   179.46531122
 H     62  57  56     2.036748760435   121.63196560   180.96556040

---------------------
BASIS SET INFORMATION
---------------------
There are 6 groups of distinct atoms

 Group   1 Type C   : 7s4p1d contracted to 3s2p1d pattern {511/31/1}
 Group   2 Type S   : 10s7p1d contracted to 4s3p1d pattern {5311/511/1}
 Group   3 Type N   : 7s4p1d contracted to 3s2p1d pattern {511/31/1}
 Group   4 Type O   : 7s4p1d contracted to 3s2p1d pattern {511/31/1}
 Group   5 Type F   : 7s4p1d contracted to 3s2p1d pattern {511/31/1}
 Group   6 Type H   : 4s1p contracted to 2s1p pattern {31/1}

Atom   0C    basis set group =>   1
Atom   1C    basis set group =>   1
Atom   2C    basis set group =>   1
Atom   3C    basis set group =>   1
Atom   4C    basis set group =>   1
Atom   5C    basis set group =>   1
Atom   6S    basis set group =>   2
Atom   7C    basis set group =>   1
Atom   8C    basis set group =>   1
Atom   9C    basis set group =>   1
Atom  10C    basis set group =>   1
Atom  11N    basis set group =>   3
Atom  12S    basis set group =>   2
Atom  13C    basis set group =>   1
Atom  14C    basis set group =>   1
Atom  15S    basis set group =>   2
Atom  16C    basis set group =>   1
Atom  17C    basis set group =>   1
Atom  18C    basis set group =>   1
Atom  19C    basis set group =>   1
Atom  20N    basis set group =>   3
Atom  21S    basis set group =>   2
Atom  22C    basis set group =>   1
Atom  23C    basis set group =>   1
Atom  24O    basis set group =>   4
Atom  25O    basis set group =>   4
Atom  26C    basis set group =>   1
Atom  27C    basis set group =>   1
Atom  28C    basis set group =>   1
Atom  29C    basis set group =>   1
Atom  30C    basis set group =>   1
Atom  31C    basis set group =>   1
Atom  32C    basis set group =>   1
Atom  33C    basis set group =>   1
Atom  34C    basis set group =>   1
Atom  35C    basis set group =>   1
Atom  36C    basis set group =>   1
Atom  37C    basis set group =>   1
Atom  38C    basis set group =>   1
Atom  39C    basis set group =>   1
Atom  40C    basis set group =>   1
Atom  41C    basis set group =>   1
Atom  42C    basis set group =>   1
Atom  43C    basis set group =>   1
Atom  44C    basis set group =>   1
Atom  45C    basis set group =>   1
Atom  46C    basis set group =>   1
Atom  47C    basis set group =>   1
Atom  48C    basis set group =>   1
Atom  49C    basis set group =>   1
Atom  50C    basis set group =>   1
Atom  51C    basis set group =>   1
Atom  52C    basis set group =>   1
Atom  53C    basis set group =>   1
Atom  54C    basis set group =>   1
Atom  55C    basis set group =>   1
Atom  56C    basis set group =>   1
Atom  57C    basis set group =>   1
Atom  58C    basis set group =>   1
Atom  59C    basis set group =>   1
Atom  60C    basis set group =>   1
Atom  61C    basis set group =>   1
Atom  62O    basis set group =>   4
Atom  63F    basis set group =>   5
Atom  64C    basis set group =>   1
Atom  65C    basis set group =>   1
Atom  66C    basis set group =>   1
Atom  67N    basis set group =>   3
Atom  68N    basis set group =>   3
Atom  69O    basis set group =>   4
Atom  70F    basis set group =>   5
Atom  71C    basis set group =>   1
Atom  72C    basis set group =>   1
Atom  73C    basis set group =>   1
Atom  74N    basis set group =>   3
Atom  75N    basis set group =>   3
Atom  76H    basis set group =>   6
Atom  77H    basis set group =>   6
Atom  78H    basis set group =>   6
Atom  79H    basis set group =>   6
Atom  80H    basis set group =>   6
Atom  81H    basis set group =>   6
Atom  82H    basis set group =>   6
Atom  83H    basis set group =>   6
Atom  84H    basis set group =>   6
Atom  85H    basis set group =>   6
Atom  86H    basis set group =>   6
Atom  87H    basis set group =>   6
Atom  88H    basis set group =>   6
Atom  89H    basis set group =>   6
Atom  90H    basis set group =>   6
Atom  91H    basis set group =>   6
Atom  92H    basis set group =>   6
Atom  93H    basis set group =>   6
Atom  94H    basis set group =>   6
Atom  95H    basis set group =>   6
Atom  96H    basis set group =>   6
Atom  97H    basis set group =>   6
Atom  98H    basis set group =>   6
Atom  99H    basis set group =>   6
Atom 100H    basis set group =>   6
Atom 101H    basis set group =>   6
Atom 102H    basis set group =>   6
Atom 103H    basis set group =>   6
Atom 104H    basis set group =>   6
Atom 105H    basis set group =>   6
Atom 106H    basis set group =>   6
Atom 107H    basis set group =>   6
Atom 108H    basis set group =>   6
Atom 109H    basis set group =>   6
Atom 110H    basis set group =>   6
Atom 111H    basis set group =>   6
Atom 112H    basis set group =>   6
Atom 113H    basis set group =>   6
Atom 114H    basis set group =>   6
Atom 115H    basis set group =>   6
Atom 116H    basis set group =>   6
Atom 117H    basis set group =>   6
Atom 118H    basis set group =>   6
Atom 119H    basis set group =>   6
Atom 120H    basis set group =>   6
Atom 121H    basis set group =>   6
---------------------------------
AUXILIARY/J BASIS SET INFORMATION
---------------------------------
There are 6 groups of distinct atoms

 Group   1 Type C   : 12s5p4d2f1g contracted to 6s4p3d1f1g pattern {711111/2111/211/2/1}
 Group   2 Type S   : 14s5p5d2f1g contracted to 8s4p3d1f1g pattern {71111111/2111/311/2/1}
 Group   3 Type N   : 12s5p4d2f1g contracted to 6s4p3d1f1g pattern {711111/2111/211/2/1}
 Group   4 Type O   : 12s5p4d2f1g contracted to 6s4p3d1f1g pattern {711111/2111/211/2/1}
 Group   5 Type F   : 12s5p4d2f1g contracted to 6s4p3d1f1g pattern {711111/2111/211/2/1}
 Group   6 Type H   : 5s2p1d contracted to 3s1p1d pattern {311/2/1}

Atom   0C    basis set group =>   1
Atom   1C    basis set group =>   1
Atom   2C    basis set group =>   1
Atom   3C    basis set group =>   1
Atom   4C    basis set group =>   1
Atom   5C    basis set group =>   1
Atom   6S    basis set group =>   2
Atom   7C    basis set group =>   1
Atom   8C    basis set group =>   1
Atom   9C    basis set group =>   1
Atom  10C    basis set group =>   1
Atom  11N    basis set group =>   3
Atom  12S    basis set group =>   2
Atom  13C    basis set group =>   1
Atom  14C    basis set group =>   1
Atom  15S    basis set group =>   2
Atom  16C    basis set group =>   1
Atom  17C    basis set group =>   1
Atom  18C    basis set group =>   1
Atom  19C    basis set group =>   1
Atom  20N    basis set group =>   3
Atom  21S    basis set group =>   2
Atom  22C    basis set group =>   1
Atom  23C    basis set group =>   1
Atom  24O    basis set group =>   4
Atom  25O    basis set group =>   4
Atom  26C    basis set group =>   1
Atom  27C    basis set group =>   1
Atom  28C    basis set group =>   1
Atom  29C    basis set group =>   1
Atom  30C    basis set group =>   1
Atom  31C    basis set group =>   1
Atom  32C    basis set group =>   1
Atom  33C    basis set group =>   1
Atom  34C    basis set group =>   1
Atom  35C    basis set group =>   1
Atom  36C    basis set group =>   1
Atom  37C    basis set group =>   1
Atom  38C    basis set group =>   1
Atom  39C    basis set group =>   1
Atom  40C    basis set group =>   1
Atom  41C    basis set group =>   1
Atom  42C    basis set group =>   1
Atom  43C    basis set group =>   1
Atom  44C    basis set group =>   1
Atom  45C    basis set group =>   1
Atom  46C    basis set group =>   1
Atom  47C    basis set group =>   1
Atom  48C    basis set group =>   1
Atom  49C    basis set group =>   1
Atom  50C    basis set group =>   1
Atom  51C    basis set group =>   1
Atom  52C    basis set group =>   1
Atom  53C    basis set group =>   1
Atom  54C    basis set group =>   1
Atom  55C    basis set group =>   1
Atom  56C    basis set group =>   1
Atom  57C    basis set group =>   1
Atom  58C    basis set group =>   1
Atom  59C    basis set group =>   1
Atom  60C    basis set group =>   1
Atom  61C    basis set group =>   1
Atom  62O    basis set group =>   4
Atom  63F    basis set group =>   5
Atom  64C    basis set group =>   1
Atom  65C    basis set group =>   1
Atom  66C    basis set group =>   1
Atom  67N    basis set group =>   3
Atom  68N    basis set group =>   3
Atom  69O    basis set group =>   4
Atom  70F    basis set group =>   5
Atom  71C    basis set group =>   1
Atom  72C    basis set group =>   1
Atom  73C    basis set group =>   1
Atom  74N    basis set group =>   3
Atom  75N    basis set group =>   3
Atom  76H    basis set group =>   6
Atom  77H    basis set group =>   6
Atom  78H    basis set group =>   6
Atom  79H    basis set group =>   6
Atom  80H    basis set group =>   6
Atom  81H    basis set group =>   6
Atom  82H    basis set group =>   6
Atom  83H    basis set group =>   6
Atom  84H    basis set group =>   6
Atom  85H    basis set group =>   6
Atom  86H    basis set group =>   6
Atom  87H    basis set group =>   6
Atom  88H    basis set group =>   6
Atom  89H    basis set group =>   6
Atom  90H    basis set group =>   6
Atom  91H    basis set group =>   6
Atom  92H    basis set group =>   6
Atom  93H    basis set group =>   6
Atom  94H    basis set group =>   6
Atom  95H    basis set group =>   6
Atom  96H    basis set group =>   6
Atom  97H    basis set group =>   6
Atom  98H    basis set group =>   6
Atom  99H    basis set group =>   6
Atom 100H    basis set group =>   6
Atom 101H    basis set group =>   6
Atom 102H    basis set group =>   6
Atom 103H    basis set group =>   6
Atom 104H    basis set group =>   6
Atom 105H    basis set group =>   6
Atom 106H    basis set group =>   6
Atom 107H    basis set group =>   6
Atom 108H    basis set group =>   6
Atom 109H    basis set group =>   6
Atom 110H    basis set group =>   6
Atom 111H    basis set group =>   6
Atom 112H    basis set group =>   6
Atom 113H    basis set group =>   6
Atom 114H    basis set group =>   6
Atom 115H    basis set group =>   6
Atom 116H    basis set group =>   6
Atom 117H    basis set group =>   6
Atom 118H    basis set group =>   6
Atom 119H    basis set group =>   6
Atom 120H    basis set group =>   6
Atom 121H    basis set group =>   6
------------------------------------------------------------------------------
                           ORCA GTO INTEGRAL CALCULATION
                           -- RI-GTO INTEGRALS CHOSEN --
------------------------------------------------------------------------------

                         BASIS SET STATISTICS AND STARTUP INFO

Gaussian basis set:
 # of primitive gaussian shells          ... 1166
 # of primitive gaussian functions       ... 2194
 # of contracted shells                  ...  602
 # of contracted basis functions         ... 1310
 Highest angular momentum                ...    2
 Maximum contraction depth               ...    5
Auxiliary gaussian basis set:
 # of primitive gaussian shells          ... 2204
 # of primitive gaussian functions       ... 6084
 # of contracted shells                  ... 1378
 # of contracted aux-basis functions     ... 4238
 Highest angular momentum                ...    4
 Maximum contraction depth               ...    7
Ratio of auxiliary to basis functions    ...  3.24
Integral package used                  ... LIBINT
 One Electron integrals                  ... done
 Ordering auxiliary basis shells         ... done
 Integral threshhold             Thresh  ...  2.500e-11
 Primitive cut-off               TCut    ...  2.500e-12
 Pre-screening matrix                    ... done
 Shell pair data                         ... 
 Ordering of the shell pairs             ... done (   0.015 sec) 63916 of 181503 pairs
 Determination of significant pairs      ... done (   0.000 sec)
 Creation of shell pair data             ... done (   0.010 sec)
 Storage of shell pair data              ... done (   0.013 sec)
 Shell pair data done in (   0.038 sec)
 Computing two index integrals           ... done
 Cholesky decomposition of the V-matrix  ... done


Timings:
 Total evaluation time                   ...   3.038 sec (  0.051 min)
 One electron matrix time                ...   0.929 sec (  0.015 min) = 30.6%
 Schwartz matrix evaluation time         ...   0.877 sec (  0.015 min) = 28.9%
 Two index repulsion integral time       ...   0.513 sec (  0.009 min) = 16.9%
 Cholesky decomposition of V             ...   0.662 sec (  0.011 min) = 21.8%
 Three index repulsion integral time     ...   0.000 sec (  0.000 min) =  0.0%

-------------------------------------------------------------------------------
                                 ORCA SCF
-------------------------------------------------------------------------------

------------
SCF SETTINGS
------------
Hamiltonian:
 Density Functional     Method          .... DFT(GTOs)
 Exchange Functional    Exchange        .... WB88
 Correlation Functional Correlation     .... LYP
 LDA part of GGA corr.  LDAOpt          .... VWN-5
 Gradients option       PostSCFGGA      .... off
 Hybrid DFT is turned on
   Fraction HF Exchange ScalHFX         ....  0.190000
   Scaling of DF-GGA-X  ScalDFX         ....  0.350000
   Scaling of DF-GGA-C  ScalDFC         ....  0.810000
   Scaling of DF-LDA-C  ScalLDAC        ....  1.000000
   Perturbative correction              ....  0.000000
   Density functional embedding theory  .... OFF
 Long-range corrected/Screened/Range-Separated Hybrid DFT is turned on
   Amount of maximum screened exact exchange              ....  0.460000
   Range separation parameter mu (erf(mu*r12)/r12)        ....  0.330000
 RI-approximation to the Coulomb term is turned on
   Number of auxiliary basis functions  .... 4238
   RIJ-COSX (HFX calculated with COS-X)).... on


General Settings:
 Integral files         IntName         .... SNBDT1-F
 Hartree-Fock type      HFTyp           .... RHF
 Total Charge           Charge          ....    0
 Multiplicity           Mult            ....    1
 Number of Electrons    NEL             ....  562
 Basis Dimension        Dim             .... 1310
 Nuclear Repulsion      ENuc            ....  12630.2925491178 Eh

Convergence Acceleration:
 DIIS                   CNVDIIS         .... on
   Start iteration      DIISMaxIt       ....    12
   Startup error        DIISStart       ....  0.200000
   # of expansion vecs  DIISMaxEq       ....     5
   Bias factor          DIISBfac        ....   1.050
   Max. coefficient     DIISMaxC        ....  10.000
 Newton-Raphson         CNVNR           .... off
 SOSCF                  CNVSOSCF        .... on
   Start iteration      SOSCFMaxIt      ....   150
   Startup grad/error   SOSCFStart      ....  0.003300
 Level Shifting         CNVShift        .... on
   Level shift para.    LevelShift      ....    0.2500
   Turn off err/grad.   ShiftErr        ....    0.0010
 Zerner damping         CNVZerner       .... off
 Static damping         CNVDamp         .... on
   Fraction old density DampFac         ....    0.7000
   Max. Damping (<1)    DampMax         ....    0.9800
   Min. Damping (>=0)   DampMin         ....    0.0000
   Turn off err/grad.   DampErr         ....    0.1000
 Fernandez-Rico         CNVRico         .... off

SCF Procedure:
 Maximum # iterations   MaxIter         ....   125
 SCF integral mode      SCFMode         .... Direct
   Integral package                     .... LIBINT
 Reset frequency        DirectResetFreq ....    20
 Integral Threshold     Thresh          ....  2.500e-11 Eh
 Primitive CutOff       TCut            ....  2.500e-12 Eh

Convergence Tolerance:
 Convergence Check Mode ConvCheckMode   .... Total+1el-Energy
 Convergence forced     ConvForced      .... 1
 Energy Change          TolE            ....  1.000e-08 Eh
 1-El. energy change                    ....  1.000e-05 Eh
 Orbital Gradient       TolG            ....  1.000e-05
 Orbital Rotation angle TolX            ....  1.000e-05
 DIIS Error             TolErr          ....  5.000e-07


Diagonalization of the overlap matrix:
Smallest eigenvalue                        ... 1.366e-04
Time for diagonalization                   ...    0.630 sec
Threshold for overlap eigenvalues          ... 1.000e-08
Number of eigenvalues below threshold      ... 0
Time for construction of square roots      ...    0.207 sec
Total time needed                          ...    0.843 sec

-------------------
DFT GRID GENERATION
-------------------

General Integration Accuracy     IntAcc      ...  4.670
Radial Grid Type                 RadialGrid  ... Gauss-Chebyshev
Angular Grid (max. acc.)         AngularGrid ... Lebedev-302
Angular grid pruning method      GridPruning ... 3 (G Style)
Weight generation scheme         WeightScheme... Becke
Basis function cutoff            BFCut       ...    1.0000e-11
Integration weight cutoff        WCut        ...    1.0000e-14
Grids for H and He will be reduced by one unit

# of grid points (after initial pruning)     ... 630892 (   1.8 sec)
# of grid points (after weights+screening)   ... 530417 (  24.7 sec)
nearest neighbour list constructed           ...    0.0 sec
Grid point re-assignment to atoms done       ...    0.1 sec
Grid point division into batches done        ...    1.9 sec
Reduced shell lists constructed in   12.0 sec

Total number of grid points                  ...   530417
Total number of batches                      ...     8349
Average number of points per batch           ...       63
Average number of grid points per atom       ...     4348
Average number of shells per batch           ...   110.81 (18.41%)
Average number of basis functions per batch  ...   220.57 (16.84%)
Average number of large shells per batch     ...    63.05 (56.90%)
Average number of large basis fcns per batch ...   128.04 (58.05%)
Maximum spatial batch extension              ...  20.02, 20.86, 21.56 au
Average spatial batch extension              ...   2.03,  2.06,  2.13 au

Time for grid setup =   38.510 sec

------------------------------
INITIAL GUESS: MODEL POTENTIAL
------------------------------
Loading Hartree-Fock densities                     ... done
Calculating cut-offs                               ... done
Setting up the integral package                    ... done
Initializing the effective Hamiltonian             ... done
Starting the Coulomb interaction                   ... done (  13.7 sec)
Reading the grid                                   ... done
Mapping shells                                     ... done
Starting the XC term evaluation                    ... done (  11.7 sec)
  promolecular density results
     # of electrons  =    561.978512574
     EX              =   -512.279465580
     EC              =    -19.410382354
     EX+EC           =   -531.689847933
Transforming the Hamiltonian                       ... done (   0.2 sec)
Diagonalizing the Hamiltonian                      ... done (   0.5 sec)
Back transforming the eigenvectors                 ... done (   0.1 sec)
Now organizing SCF variables                       ... done
                      ------------------
                      INITIAL GUESS DONE (  65.1 sec)
                      ------------------
--------------------
COSX GRID GENERATION
--------------------

General Integration Accuracy     IntAcc      ...  3.340
Radial Grid Type                 RadialGrid  ... Gauss-Chebyshev
Angular Grid (max. acc.)         AngularGrid ... Lebedev-50
Angular grid pruning method      GridPruning ... 3 (G Style)
Weight generation scheme         WeightScheme... Becke
Basis function cutoff            BFCut       ...    1.0000e-11
Integration weight cutoff        WCut        ...    1.0000e-14
Grids for H and He will be reduced by one unit

# of grid points (after initial pruning)     ...  59220 (   0.1 sec)
# of grid points (after weights+screening)   ...  52116 (   2.3 sec)
nearest neighbour list constructed           ...    0.0 sec
Grid point re-assignment to atoms done       ...    0.0 sec
Grid point division into batches done        ...    0.0 sec
Reduced shell lists constructed in    1.4 sec

Total number of grid points                  ...    52116
Total number of batches                      ...      870
Average number of points per batch           ...       59
Average number of grid points per atom       ...      427
Average number of shells per batch           ...   135.43 (22.50%)
Average number of basis functions per batch  ...   272.56 (20.81%)
Average number of large shells per batch     ...    77.54 (57.25%)
Average number of large basis fcns per batch ...   159.57 (58.54%)
Maximum spatial batch extension              ...  19.55, 18.99, 18.88 au
Average spatial batch extension              ...   4.10,  4.19,  4.64 au

Overlap Fitting                  UseSFitting ... on
Constructing numerical overlap ... done (      1.0 sec)
Inverting numerical overlap    ... done (      0.1 sec)
Obtaining analytic overlap     ... done (      0.0 sec)
Final contraction and storage  ... done (      0.1 sec)


General Integration Accuracy     IntAcc      ...  3.670
Radial Grid Type                 RadialGrid  ... Gauss-Chebyshev
Angular Grid (max. acc.)         AngularGrid ... Lebedev-50
Angular grid pruning method      GridPruning ... 3 (G Style)
Weight generation scheme         WeightScheme... Becke
Basis function cutoff            BFCut       ...    1.0000e-11
Integration weight cutoff        WCut        ...    1.0000e-14
Grids for H and He will be reduced by one unit

# of grid points (after initial pruning)     ...  74464 (   0.1 sec)
# of grid points (after weights+screening)   ...  65240 (   2.9 sec)
nearest neighbour list constructed           ...    0.0 sec
Grid point re-assignment to atoms done       ...    0.0 sec
Grid point division into batches done        ...    0.0 sec
Reduced shell lists constructed in    1.7 sec

Total number of grid points                  ...    65240
Total number of batches                      ...     1078
Average number of points per batch           ...       60
Average number of grid points per atom       ...      535
Average number of shells per batch           ...   132.25 (21.97%)
Average number of basis functions per batch  ...   265.72 (20.28%)
Average number of large shells per batch     ...    75.50 (57.09%)
Average number of large basis fcns per batch ...   154.98 (58.32%)
Maximum spatial batch extension              ...  20.53, 20.06, 20.96 au
Average spatial batch extension              ...   3.76,  3.89,  4.24 au

Overlap Fitting                  UseSFitting ... on
Constructing numerical overlap ... done (      1.1 sec)
Inverting numerical overlap    ... done (      0.1 sec)
Obtaining analytic overlap     ... done (      0.0 sec)
Final contraction and storage  ... done (      0.1 sec)


General Integration Accuracy     IntAcc      ...  4.010
Radial Grid Type                 RadialGrid  ... Gauss-Chebyshev
Angular Grid (max. acc.)         AngularGrid ... Lebedev-110
Angular grid pruning method      GridPruning ... 3 (G Style)
Weight generation scheme         WeightScheme... Becke
Basis function cutoff            BFCut       ...    1.0000e-11
Integration weight cutoff        WCut        ...    1.0000e-14
Grids for H and He will be reduced by one unit

# of grid points (after initial pruning)     ... 142724 (   0.3 sec)
# of grid points (after weights+screening)   ... 124000 (   5.6 sec)
nearest neighbour list constructed           ...    0.0 sec
Grid point re-assignment to atoms done       ...    0.0 sec
Grid point division into batches done        ...    0.1 sec
Reduced shell lists constructed in    2.7 sec

Total number of grid points                  ...   124000
Total number of batches                      ...     2004
Average number of points per batch           ...       61
Average number of grid points per atom       ...     1016
Average number of shells per batch           ...   125.10 (20.78%)
Average number of basis functions per batch  ...   250.81 (19.15%)
Average number of large shells per batch     ...    71.78 (57.38%)
Average number of large basis fcns per batch ...   147.12 (58.66%)
Maximum spatial batch extension              ...  22.83, 22.33, 26.76 au
Average spatial batch extension              ...   3.17,  3.29,  3.55 au

Overlap Fitting                  UseSFitting ... on
Constructing numerical overlap ... done (      1.9 sec)
Inverting numerical overlap    ... done (      0.1 sec)
Obtaining analytic overlap     ... done (      0.0 sec)
Final contraction and storage  ... done (      0.1 sec)

Time for X-Grid setup             =   21.745 sec
--------------
SCF ITERATIONS
--------------
ITER       Energy         Delta-E        Max-DP      RMS-DP      [F,P]     Damp
               ***  Starting incremental Fock matrix formation  ***
  0  -4729.9961630004   0.000000000000 0.07950805  0.00087594  0.2242645 0.7000
  1  -4730.6282558682  -0.632092867836 0.04488026  0.00062622  0.0977699 0.7000
                               ***Turning on DIIS***
  2  -4730.9042991719  -0.276043303696 0.07713086  0.00114759  0.0427795 0.0000
  3  -4731.3618021099  -0.457502937994 0.04566435  0.00045355  0.0513607 0.0000
  4  -4731.4416223703  -0.079820260342 0.01721971  0.00014330  0.0230889 0.0000
  5  -4731.4478752172  -0.006252846901 0.00762005  0.00006164  0.0082831 0.0000
  6  -4731.4491305097  -0.001255292540 0.00346499  0.00003686  0.0014896 0.0000
                      *** Initiating the SOSCF procedure ***
                           *** Shutting down DIIS ***
                      *** Re-Reading the Fockian *** 
                      *** Removing any level shift *** 
ITER      Energy       Delta-E        Grad      Rot      Max-DP    RMS-DP
  7  -4731.44960769  -0.0004771828  0.003292  0.003292  0.003535  0.000049
               *** Restarting incremental Fock matrix formation ***
  8  -4731.44991617  -0.0003084792  0.000817  0.005358  0.002160  0.000022
  9  -4731.44995497  -0.0000387959  0.000546  0.005145  0.001273  0.000016
 10  -4731.44998995  -0.0000349778  0.000152  0.000672  0.000759  0.000005
 11  -4731.44999055  -0.0000006086  0.000164  0.000375  0.000306  0.000003
 12  -4731.44999306  -0.0000025090  0.000040  0.000258  0.000176  0.000002
 13  -4731.44999308  -0.0000000139  0.000046  0.000172  0.000104  0.000001
 14  -4731.44999340  -0.0000003275  0.000008  0.000036  0.000051  0.000000
 15  -4731.44999340   0.0000000069  0.000009  0.000011  0.000032  0.000000
                  ***Gradient check signals convergence***
              ***Rediagonalizing the Fockian in SOSCF/NRSCF***

               *****************************************************
               *                     SUCCESS                       *
               *           SCF CONVERGED AFTER  16 CYCLES          *
               *****************************************************

Setting up the final grid:

General Integration Accuracy     IntAcc      ...  5.010
Radial Grid Type                 RadialGrid  ... Gauss-Chebyshev
Angular Grid (max. acc.)         AngularGrid ... Lebedev-434
Angular grid pruning method      GridPruning ... 3 (G Style)
Weight generation scheme         WeightScheme... Becke
Basis function cutoff            BFCut       ...    1.0000e-11
Integration weight cutoff        WCut        ...    1.0000e-14
Grids for H and He will be reduced by one unit

# of grid points (after initial pruning)     ... 1125216 (   2.3 sec)
# of grid points (after weights+screening)   ... 942433 (  42.8 sec)
nearest neighbour list constructed           ...    0.0 sec
Grid point re-assignment to atoms done       ...    0.1 sec
Grid point division into batches done        ...    6.1 sec
Reduced shell lists constructed in   20.0 sec

Total number of grid points                  ...   942433
Total number of batches                      ...    14786
Average number of points per batch           ...       63
Average number of grid points per atom       ...     7725
Average number of shells per batch           ...   106.72 (17.73%)
Average number of basis functions per batch  ...   211.66 (16.16%)
Average number of large shells per batch     ...    60.59 (56.77%)
Average number of large basis fcns per batch ...   122.55 (57.90%)
Maximum spatial batch extension              ...  21.14, 22.83, 22.85 au
Average spatial batch extension              ...   1.66,  1.67,  1.72 au

Final grid set up in   65.3 sec
Final integration                            ... done (  25.8 sec)
Change in XC energy                          ...     0.000020376
Integrated number of electrons               ...   561.999936930
Previous integrated no of electrons          ...   562.000622552
Old exchange energy                            =   -142.947608417 Eh
New exchange energy                            =   -142.945604613 Eh
Exchange energy change after final integration =      0.002003804 Eh
Total energy after final integration           =  -4731.447969287 Eh
Final COS-X integration done in                =   538.747 sec

----------------
TOTAL SCF ENERGY
----------------

Total Energy       :        -4731.44796929 Eh         -128749.24473 eV

Components:
Nuclear Repulsion  :        12630.29254912 Eh          343687.73301 eV
Electronic Energy  :       -17361.74051841 Eh         -472436.97774 eV
One Electron Energy:       -31636.31703668 Eh         -860867.95225 eV
Two Electron Energy:        14274.57651827 Eh          388430.97451 eV

Virial components:
Potential Energy   :        -9429.62962169 Eh         -256593.26696 eV
Kinetic Energy     :         4698.18165240 Eh          127844.02223 eV
Virial Ratio       :            2.00708068


DFT components:
N(Alpha)           :      280.999968465050 electrons
N(Beta)            :      280.999968465050 electrons
N(Total)           :      561.999936930099 electrons
E(XC)              :     -397.931943350587 Eh       
DFET-embed. en.    :        0.000000000000 Eh       

---------------
SCF CONVERGENCE
---------------

  Last Energy change         ...   -7.0451e-08  Tolerance :   1.0000e-08
  Last MAX-Density change    ...    8.8818e-15  Tolerance :   1.0000e-07
  Last RMS-Density change    ...    3.4331e-17  Tolerance :   5.0000e-09
  Last Orbital Gradient      ...    1.4568e-06  Tolerance :   1.0000e-05
  Last Orbital Rotation      ...    8.6716e-06  Tolerance :   1.0000e-05

             **** THE GBW FILE WAS UPDATED (SNBDT1-F.gbw) ****
             **** DENSITY FILE WAS UPDATED (SNBDT1-F.scfp) ****
             **** ENERGY FILE WAS UPDATED (SNBDT1-F.en.tmp) ****
             **** THE GBW FILE WAS UPDATED (SNBDT1-F.gbw) ****
             **** DENSITY FILE WAS UPDATED (SNBDT1-F.scfp) ****
----------------
ORBITAL ENERGIES
----------------

  NO   OCC          E(Eh)            E(eV) 
   0   2.0000     -88.967363     -2420.9250 
   1   2.0000     -88.962667     -2420.7972 
   2   2.0000     -88.962582     -2420.7949 
   3   2.0000     -88.956690     -2420.6346 
   4   2.0000     -24.791606      -674.6139 
   5   2.0000     -24.787798      -674.5103 
   6   2.0000     -19.267588      -524.2977 
   7   2.0000     -19.251483      -523.8595 
   8   2.0000     -19.215571      -522.8823 
   9   2.0000     -19.211912      -522.7827 
  10   2.0000     -14.477243      -393.9458 
  11   2.0000     -14.473933      -393.8557 
  12   2.0000     -14.415286      -392.2599 
  13   2.0000     -14.414373      -392.2350 
  14   2.0000     -14.409690      -392.1076 
  15   2.0000     -14.405406      -391.9910 
  16   2.0000     -10.377643      -282.3900 
  17   2.0000     -10.373508      -282.2775 
  18   2.0000     -10.366535      -282.0877 
  19   2.0000     -10.363576      -282.0072 
  20   2.0000     -10.359891      -281.9070 
  21   2.0000     -10.342535      -281.4347 
  22   2.0000     -10.342464      -281.4328 
  23   2.0000     -10.340987      -281.3926 
  24   2.0000     -10.336029      -281.2577 
  25   2.0000     -10.335280      -281.2373 
  26   2.0000     -10.334812      -281.2245 
  27   2.0000     -10.327183      -281.0169 
  28   2.0000     -10.325545      -280.9724 
  29   2.0000     -10.322641      -280.8933 
  30   2.0000     -10.320609      -280.8380 
  31   2.0000     -10.320001      -280.8215 
  32   2.0000     -10.319510      -280.8081 
  33   2.0000     -10.318604      -280.7835 
  34   2.0000     -10.316253      -280.7195 
  35   2.0000     -10.316201      -280.7181 
  36   2.0000     -10.315888      -280.7096 
  37   2.0000     -10.313072      -280.6330 
  38   2.0000     -10.312754      -280.6243 
  39   2.0000     -10.312575      -280.6194 
  40   2.0000     -10.312484      -280.6169 
  41   2.0000     -10.312186      -280.6088 
  42   2.0000     -10.311394      -280.5873 
  43   2.0000     -10.308290      -280.5028 
  44   2.0000     -10.307406      -280.4788 
  45   2.0000     -10.307159      -280.4721 
  46   2.0000     -10.306750      -280.4609 
  47   2.0000     -10.305749      -280.4337 
  48   2.0000     -10.304326      -280.3950 
  49   2.0000     -10.304167      -280.3906 
  50   2.0000     -10.304073      -280.3881 
  51   2.0000     -10.303683      -280.3775 
  52   2.0000     -10.303095      -280.3615 
  53   2.0000     -10.301059      -280.3061 
  54   2.0000     -10.300292      -280.2852 
  55   2.0000     -10.299765      -280.2709 
  56   2.0000     -10.299545      -280.2649 
  57   2.0000     -10.299453      -280.2624 
  58   2.0000     -10.299426      -280.2616 
  59   2.0000     -10.296486      -280.1816 
  60   2.0000     -10.295995      -280.1683 
  61   2.0000     -10.295756      -280.1618 
  62   2.0000     -10.293474      -280.0997 
  63   2.0000     -10.289052      -279.9793 
  64   2.0000     -10.283594      -279.8308 
  65   2.0000     -10.278036      -279.6796 
  66   2.0000     -10.277743      -279.6716 
  67   2.0000     -10.267834      -279.4020 
  68   2.0000     -10.267062      -279.3810 
  69   2.0000     -10.264225      -279.3038 
  70   2.0000     -10.261093      -279.2185 
  71   2.0000     -10.260145      -279.1927 
  72   2.0000     -10.259518      -279.1757 
  73   2.0000     -10.257556      -279.1223 
  74   2.0000     -10.254058      -279.0271 
  75   2.0000     -10.247594      -278.8512 
  76   2.0000      -8.062236      -219.3846 
  77   2.0000      -8.056983      -219.2417 
  78   2.0000      -8.056876      -219.2387 
  79   2.0000      -8.051150      -219.0829 
  80   2.0000      -6.031873      -164.1356 
  81   2.0000      -6.027865      -164.0266 
  82   2.0000      -6.027171      -164.0077 
  83   2.0000      -6.026627      -163.9929 
  84   2.0000      -6.023602      -163.9105 
  85   2.0000      -6.022950      -163.8928 
  86   2.0000      -6.022552      -163.8820 
  87   2.0000      -6.021116      -163.8429 
  88   2.0000      -6.018159      -163.7624 
  89   2.0000      -6.017453      -163.7432 
  90   2.0000      -6.017069      -163.7328 
  91   2.0000      -6.011879      -163.5915 
  92   2.0000      -1.307139       -35.5691 
  93   2.0000      -1.303155       -35.4606 
  94   2.0000      -1.172057       -31.8933 
  95   2.0000      -1.154095       -31.4045 
  96   2.0000      -1.130933       -30.7743 
  97   2.0000      -1.126850       -30.6632 
  98   2.0000      -1.105585       -30.0845 
  99   2.0000      -1.100998       -29.9597 
 100   2.0000      -1.019125       -27.7318 
 101   2.0000      -1.013748       -27.5855 
 102   2.0000      -0.999998       -27.2113 
[...]
  96      -9.174       8.8
  97      -9.064      12.1
  98      -8.856      26.4
  99      -8.478      13.6
 100      -8.297      15.8
 101      -8.272      18.2
 102      -7.720      15.6
 103      -7.369      22.7
 104      -7.169      15.9
 105      -6.380      22.5

 106      -2.546      23.5
 107      -2.241      21.0
 108      -1.662      14.4
 109      -1.506      13.4
 110      -0.612      31.9
 111      -0.026      21.8
 112       0.386      26.3
 113       0.622       6.5
 114       1.059      33.9
 115       1.153      10.1
 116       1.266      30.0

           eV        nm       excitation i->a                     eV 
   0      2.25     550.9   105 -> 106      gap,J,K:    3.834     1.869     0.143
   1      2.62     473.0   105 -> 107      gap,J,K:    4.138     1.824     0.153
   2      3.03     409.7   104 -> 106      gap,J,K:    4.623     1.798     0.101
   3      3.25     382.0   104 -> 107      gap,J,K:    4.927     1.840     0.079
   4      3.27     379.1   103 -> 106      gap,J,K:    4.823     1.994     0.220
   5      3.34     371.2   105 -> 108      gap,J,K:    4.717     1.506     0.064
   6      3.43     361.0   105 -> 109      gap,J,K:    4.874     1.571     0.066
   7      3.53     351.1   102 -> 106      gap,J,K:    5.174     1.880     0.119
   8      3.62     342.2   103 -> 107      gap,J,K:    5.128     1.826     0.160
   9      3.81     325.5   102 -> 107      gap,J,K:    5.478     1.823     0.077
  10      4.11     301.6   101 -> 106      gap,J,K:    5.727     1.909     0.146
  11      4.15     298.9   104 -> 109      gap,J,K:    5.663     1.637     0.061
  12      4.16     298.2   103 -> 108      gap,J,K:    5.707     1.802     0.127
  13      4.20     295.0   104 -> 108      gap,J,K:    5.506     1.367     0.032
  14      4.23     292.8   105 -> 110      gap,J,K:    5.768     2.008     0.238
  15      4.35     285.2    99 -> 106      gap,J,K:    5.932     2.035     0.225
  16      4.44     279.0   101 -> 107      gap,J,K:    6.031     1.794     0.103
  17      4.46     278.3   100 -> 106      gap,J,K:    5.751     1.524     0.114
  18      4.50     275.3   103 -> 109      gap,J,K:    5.863     1.516     0.078
  19      4.51     275.1   100 -> 107      gap,J,K:    6.056     2.036     0.243
  20      4.63     267.7    95 -> 108      gap,J,K:    7.550     2.976     0.029
  21      4.63     267.7   102 -> 108      gap,J,K:    6.057     1.513     0.044
  22      4.66     266.0    95 -> 106      gap,J,K:    6.667     2.054     0.024
  23      4.75     260.7   102 -> 109      gap,J,K:    6.214     1.541     0.041
  24      4.85     255.5    98 -> 106      gap,J,K:    6.310     1.748     0.145

average / max PT2 energy lowering (eV):       0.048       0.112

CSF included by PT:                   201 
total number of CSF included:         231 
 
sTD-DFT procedure...
setting up A+B and A-B matrices...  done
estimated time (min):    0.001
calculating (A-B)^0.5 ... done
calculating (A+B)*(A-B)^0.5 ... done
calculating (A-B)^0.5 *(A+B)*(A-B)^0.5 ... done
diagonalizing ...using LAPACKE_ssyevr ...done

   36 roots found, lowest/highest eigenvalue :     1.993     4.917

excitation energies, transition moments and amplitudes

molecular weight: 1081.302
state   eV        nm        fL         fV        Rl        RV
   0   1.993     622.2   1.673318   1.994552  63.423702  78.163658     0.87 ( 105-> 106)    0.09 ( 103-> 107)    0.02 ( 103-> 106)
   1   2.336     530.8   0.206971   0.249754  -155.497242  -172.725714     0.79 ( 105-> 107)    0.13 ( 103-> 106)    0.01 ( 103-> 108)
   2   2.684     461.9   0.181541   0.178951  330.560362  317.663616     0.67 ( 104-> 106)    0.12 ( 102-> 107)    0.11 ( 104-> 107)
   3   2.849     435.3   0.104655   0.112058  -89.340618  -94.245353     0.43 ( 104-> 107)    0.29 ( 102-> 106)    0.10 ( 103-> 106)
   4   3.010     411.9   0.513257   0.498692  -21.833349  -21.773614     0.58 ( 105-> 108)    0.10 ( 105-> 109)    0.07 ( 103-> 109)
   5   3.140     394.8   0.013318   0.013812   7.510576   7.659418     0.62 ( 105-> 109)    0.11 ( 103-> 108)    0.08 ( 105-> 108)
   6   3.195     388.0   0.030690   0.033258  -10.869005  -9.090946     0.60 ( 103-> 106)    0.12 ( 102-> 106)    0.10 ( 105-> 107)
   7   3.431     361.4   0.062378   0.060051  32.003890  40.963097     0.31 ( 102-> 107)    0.24 ( 101-> 106)    0.21 ( 103-> 107)
   8   3.578     346.6   0.011305   0.007051  -71.038595  -67.132013     0.29 ( 102-> 106)    0.24 ( 104-> 107)    0.10 ( 103-> 107)
   9   3.617     342.7   0.140941   0.118904  90.694291  81.604503     0.21 ( 100-> 106)    0.20 ( 100-> 107)    0.15 ( 103-> 107)
  10   3.672     337.6   0.049556   0.049679  41.824677  41.735507     0.11 (  99-> 106)    0.10 ( 103-> 107)    0.10 ( 104-> 108)
  11   3.718     333.5   0.075655   0.061332  -148.082034  -133.457264     0.23 (  99-> 106)    0.09 ( 104-> 107)    0.09 ( 103-> 107)
  12   3.868     320.5   0.086164   0.075689  205.148493  185.623019     0.16 ( 105-> 110)    0.14 (  95-> 108)    0.12 ( 104-> 108)
  13   3.888     318.9   0.012880   0.010663  22.995268  21.472206     0.39 ( 104-> 109)    0.07 ( 102-> 109)    0.06 (  97-> 109)
  14   3.971     312.2   0.145512   0.135297  -166.130948  -158.531091     0.18 (  99-> 106)    0.12 (  95-> 108)    0.11 ( 100-> 107)
  15   3.973     312.1   0.041333   0.036634  -72.137070  -53.435365     0.21 ( 105-> 110)    0.10 (  95-> 108)    0.08 (  99-> 106)
  16   4.010     309.2   0.505722   0.474512  127.178311  125.810540     0.29 ( 105-> 110)    0.24 ( 104-> 108)    0.06 ( 102-> 108)
  17   4.037     307.1   0.018954   0.016084  -27.232664  -26.966602     0.35 (  95-> 106)    0.19 (  95-> 108)    0.19 (  95-> 107)
  18   4.086     303.5   0.024737   0.023730  -55.280140  -51.627765     0.21 ( 101-> 106)    0.14 ( 102-> 107)    0.14 ( 101-> 107)
  19   4.109     301.7   0.044649   0.043260  -60.541726  -59.899264     0.18 (  97-> 109)    0.17 (  97-> 107)    0.15 (  96-> 109)
  20   4.202     295.1   0.086887   0.078815   0.179569   0.005933     0.25 ( 103-> 108)    0.17 ( 101-> 106)    0.13 ( 102-> 107)
  21   4.332     286.2   0.018347   0.017187  20.971698  17.133786     0.20 ( 101-> 107)    0.10 ( 104-> 108)    0.10 ( 103-> 108)
  22   4.411     281.1   0.096779   0.087707  -48.641282  -45.680080     0.13 ( 102-> 109)    0.13 ( 103-> 109)    0.11 ( 100-> 109)
  23   4.435     279.5   0.367577   0.328033  -291.354572  -271.993952     0.38 (  99-> 108)    0.06 (  92-> 106)    0.05 (  95-> 108)
  24   4.443     279.1   0.123111   0.108085  -23.440307  -5.800000     0.20 ( 104-> 110)    0.17 ( 105-> 113)    0.11 ( 100-> 109)
  25   4.468     277.5   0.386646   0.352023  380.554485  346.415790     0.21 ( 100-> 109)    0.20 ( 103-> 109)    0.06 ( 101-> 109)
  26   4.570     271.3   0.093609   0.082058  -84.775519  -82.161622     0.46 (  98-> 106)    0.09 ( 100-> 106)    0.04 (  91-> 107)
  27   4.663     265.9   0.026099   0.026099  61.264244  57.365740     0.32 ( 102-> 108)    0.15 ( 105-> 113)    0.14 ( 104-> 108)
  28   4.720     262.7   0.013966   0.010724  34.655844  28.475971     0.65 ( 105-> 111)    0.11 ( 103-> 110)    0.02 ( 103-> 112)
  29   4.745     261.3   0.094340   0.083613  28.396090  27.120021     0.17 ( 104-> 110)    0.12 ( 105-> 113)    0.08 (  94-> 106)
  30   4.766     260.1   0.033373   0.025926  -63.857011  -54.127718     0.13 ( 105-> 113)    0.12 (  98-> 107)    0.07 ( 101-> 107)
  31   4.808     257.9   0.172617   0.143370  98.466840  88.864945     0.45 (  92-> 106)    0.17 (  92-> 107)    0.11 (  99-> 108)
  32   4.824     257.0   0.079244   0.063758  -18.701913  -16.936107     0.26 (  93-> 107)    0.16 (  93-> 106)    0.10 (  98-> 107)
  33   4.861     255.1   0.154785   0.129233  -95.057999  -89.244976     0.10 (  96-> 106)    0.09 ( 100-> 107)    0.08 (  98-> 107)
  34   4.869     254.6   0.005158   0.004100   3.023316   2.349343     0.15 (  94-> 106)    0.10 ( 101-> 107)    0.09 (  96-> 106)
  35   4.917     252.2   0.163285   0.138175  116.608959  102.738938     0.18 ( 102-> 109)    0.15 ( 104-> 110)    0.11 (  94-> 106)

-----------------------------------------------------------------------------
         ABSORPTION SPECTRUM VIA TRANSITION ELECTRIC DIPOLE MOMENTS
-----------------------------------------------------------------------------
State   Energy  Wavelength   fosc         T2         TX        TY        TZ  
        (cm-1)    (nm)                  (au**2)     (au)      (au)      (au) 
-----------------------------------------------------------------------------
   0   16071.5    622.2   1.673317906  34.27649   5.72202  -1.12429  -0.52052
   1   18840.8    530.8   0.206971254   3.61648   1.10911   1.51797  -0.28656
   2   21649.7    461.9   0.181541130   2.76058   1.05037  -1.10380   0.66251
   3   22974.8    435.3   0.104655435   1.49963   0.20191  -1.19092   0.20146
   4   24276.8    411.9   0.513257338   6.96017   2.52674  -0.69947  -0.29409
   5   25329.8    394.8   0.013318203   0.17310  -0.14625  -0.11721   0.37144
   6   25771.7    388.0   0.030689508   0.39203  -0.17092   0.60030   0.04964
   7   27673.1    361.4   0.062378151   0.74208  -0.84436  -0.16134   0.05578
   8   28855.3    346.6   0.011304953   0.12898  -0.28634   0.17675  -0.12550
   9   29176.1    342.7   0.140941025   1.59033  -1.09485   0.33829   0.52649
  10   29620.5    337.6   0.049556095   0.55078   0.62623   0.35406  -0.18238
  11   29988.9    333.5   0.075654850   0.83052  -0.65002   0.42333  -0.47832
  12   31198.3    320.5   0.086164431   0.90923  -0.81060  -0.17945   0.46899
  13   31356.2    318.9   0.012880397   0.13523  -0.06319  -0.35394   0.07723
  14   32031.1    312.2   0.145511753   1.49555   0.10555  -0.04015   1.21770
  15   32041.6    312.1   0.041332851   0.42467   0.53674  -0.26543   0.25716
  16   32343.8    309.2   0.505721732   5.14750  -2.23244   0.30486   0.26604
  17   32562.5    307.1   0.018954435   0.19163  -0.22382   0.37491   0.03133
  18   32952.6    303.5   0.024737165   0.24714   0.44925   0.11156   0.18130
  19   33140.3    301.7   0.044648924   0.44354   0.07357  -0.55145  -0.36610
  20   33892.2    295.1   0.086886816   0.84397  -0.77691  -0.34550   0.34788
  21   34936.7    286.2   0.018346627   0.17288  -0.31502  -0.01776   0.27079
  22   35575.5    281.1   0.096778976   0.89558   0.62630   0.36122   0.61061
  23   35772.0    279.5   0.367576873   3.38283   1.60746   0.19328   0.87267
  24   35832.3    279.1   0.123111050   1.13109  -0.55213   0.66602   0.61859
  25   36040.5    277.5   0.386646100   3.53182  -1.51048   0.28516   1.08118
  26   36863.2    271.3   0.093609020   0.83599  -0.84320   0.34728   0.06635
  27   37610.0    265.9   0.026098993   0.22845   0.10121  -0.46569   0.03663
  28   38072.9    262.7   0.013966143   0.12076  -0.30114  -0.15196  -0.08358
  29   38273.8    261.3   0.094340417   0.81147   0.76934  -0.40279   0.23947
  30   38442.4    260.1   0.033373077   0.28580   0.29111   0.41098   0.17930
  31   38775.3    257.9   0.172616750   1.46556   1.19014   0.22151   0.00842
  32   38905.3    257.0   0.079243704   0.67055   0.43856  -0.23162  -0.65159
  33   39206.5    255.1   0.154785042   1.29971  -0.43739   1.04078   0.15866
  34   39272.9    254.6   0.005157553   0.04323  -0.20490   0.00785   0.03447
  35   39654.3    252.2   0.163284915   1.35560  -0.51292   0.96436  -0.40314

-----------------------------------------------------------------------------
         ABSORPTION SPECTRUM VIA TRANSITION VELOCITY DIPOLE MOMENTS
-----------------------------------------------------------------------------
State   Energy  Wavelength   fosc         P2         PX        PY        PZ  
        (cm-1)    (nm)                  (au**2)     (au)      (au)      (au) 
-----------------------------------------------------------------------------
   0   16071.5    622.2   1.994552233   0.21908   0.45775  -0.08868  -0.04103
   1   18840.8    530.8   0.249754030   0.03216   0.10340   0.14358  -0.02924
   2   21649.7    461.9   0.178951173   0.02648   0.10485  -0.10741   0.06283
   3   22974.8    435.3   0.112058349   0.01760   0.02159  -0.12915   0.02120
   4   24276.8    411.9   0.498691952   0.08274   0.27529  -0.07628  -0.03379
   5   25329.8    394.8   0.013812459   0.00239  -0.01745  -0.01418   0.04342
   6   25771.7    388.0   0.033258046   0.00586  -0.02119   0.07349   0.00291
   7   27673.1    361.4   0.060051053   0.01136  -0.10543  -0.01539   0.00210
   8   28855.3    346.6   0.007051070   0.00139  -0.02780   0.01864  -0.01644
   9   29176.1    342.7   0.118904229   0.02371  -0.13245   0.04282   0.06584
  10   29620.5    337.6   0.049678594   0.01006   0.08675   0.04471  -0.02309
  11   29988.9    333.5   0.061331936   0.01257  -0.07990   0.05220  -0.05883
  12   31198.3    320.5   0.075689423   0.01614  -0.11006  -0.02150   0.05970
  13   31356.2    318.9   0.010662922   0.00229  -0.00573  -0.04636   0.01015
  14   32031.1    312.2   0.135296865   0.02962   0.01495  -0.00217   0.17144
  15   32041.6    312.1   0.036634494   0.00802   0.07666  -0.03307   0.03243
  16   32343.8    309.2   0.474512273   0.10489  -0.31860   0.04283   0.03940
  17   32562.5    307.1   0.016083682   0.00358  -0.02802   0.05265   0.00477
  18   32952.6    303.5   0.023729708   0.00534   0.06700   0.01578   0.02461
  19   33140.3    301.7   0.043260169   0.00980   0.01407  -0.08180  -0.05393
  20   33892.2    295.1   0.078814712   0.01826  -0.11722  -0.04601   0.04899
  21   34936.7    286.2   0.017187068   0.00410  -0.05237   0.00186   0.03685
  22   35575.5    281.1   0.087707491   0.02133   0.09713   0.05536   0.09395
  23   35772.0    279.5   0.328032544   0.08020   0.24708   0.03177   0.13469
  24   35832.3    279.1   0.108084727   0.02647  -0.08284   0.09724   0.10076
  25   36040.5    277.5   0.352023021   0.08671  -0.23844   0.04709   0.16625
  26   36863.2    271.3   0.082058262   0.02067  -0.13206   0.05600   0.00993
  27   37610.0    265.9   0.026099325   0.00671   0.01854  -0.07897   0.01134
  28   38072.9    262.7   0.010724450   0.00279  -0.04793  -0.01859  -0.01216
  29   38273.8    261.3   0.083613288   0.02187   0.12580  -0.06663   0.04009
  30   38442.4    260.1   0.025925695   0.00681   0.04597   0.06068   0.03188
  31   38775.3    257.9   0.143370091   0.03799   0.19122   0.03777   0.00194
  32   38905.3    257.0   0.063757605   0.01695   0.06822  -0.03802  -0.10418
  33   39206.5    255.1   0.129232784   0.03463  -0.06865   0.17118   0.02473
  34   39272.9    254.6   0.004099708   0.00110  -0.03287  -0.00019   0.00450
  35   39654.3    252.2   0.138175016   0.03745  -0.08843   0.15976  -0.06405

-------------------------------------------------------------------
                             CD SPECTRUM
-------------------------------------------------------------------
State   Energy Wavelength       R         MX        MY        MZ   
        (cm-1)   (nm)       (1e40*cgs)   (au)      (au)      (au)  
-------------------------------------------------------------------
   0   16071.5    622.2     63.42370  -0.46383  -0.53869  -3.41844
   1   18840.8    530.8    -155.49724   0.00226   0.38756  -0.24028
   2   21649.7    461.9    330.56036  -0.12065  -0.25239  -2.34590
   3   22974.8    435.3    -89.34062  -0.13932  -0.52739  -1.09671
   4   24276.8    411.9    -21.83335  -0.15755  -0.68349  -0.04292
   5   25329.8    394.8      7.51058   0.16951  -0.07048  -0.04128
   6   25771.7    388.0    -10.86900   0.04327   0.06033   0.34823
   7   27673.1    361.4     32.00389   0.20408   0.18956   1.20350
   8   28855.3    346.6    -71.03860  -0.18509   0.05272  -1.90485
   9   29176.1    342.7     90.69429   0.34795   1.04719  -0.68008
  10   29620.5    337.6     41.82468  -0.19925  -0.47468  -0.63281
  11   29988.9    333.5    -148.08203  -0.09888   0.75564  -0.51023
  12   31198.3    320.5    205.14849   0.26002   0.47242  -1.22550
  13   31356.2    318.9     22.99527  -0.08894   0.23406  -0.26322
  14   32031.1    312.2    -166.13095  -0.27290  -0.29992   0.59254
  15   32041.6    312.1    -72.13707  -0.50601  -2.38550  -0.21604
  16   32343.8    309.2    127.17831   0.42939   1.68303  -0.35342
  17   32562.5    307.1    -27.23266   0.09755   0.27264   1.12180
  18   32952.6    303.5    -55.28014   0.15626   0.16575   0.80435
  19   33140.3    301.7    -60.54173  -0.00351  -0.97031   0.75932
  20   33892.2    295.1      0.17957   0.05380   0.19881   0.31541
  21   34936.7    286.2     20.97170   0.02604   0.18296  -0.28625
  22   35575.5    281.1    -48.64128  -0.30938   0.46250   0.38167
  23   35772.0    279.5    -291.35457  -0.63400  -1.72547   2.96634
  24   35832.3    279.1    -23.44031  -0.28169   0.90600  -1.06613
  25   36040.5    277.5    380.55449   0.22540   2.56056  -1.85364
  26   36863.2    271.3    -84.77552   0.45456   1.83493   1.59298
  27   37610.0    265.9     61.26424   0.14682   0.62327   0.42286
  28   38072.9    262.7     34.65584   0.20108   0.35831   0.38308
  29   38273.8    261.3     28.39609  -0.03006   0.01491  -0.38139
  30   38442.4    260.1    -63.85701   0.06941   0.60876   0.00281
  31   38775.3    257.9     98.46684  -0.25134  -0.66208   3.33311
  32   38905.3    257.0    -18.70191   0.49288  -0.99482   0.56360
  33   39206.5    255.1    -95.05800  -0.25267   0.52033  -1.56815
  34   39272.9    254.6      3.02332  -0.00534   0.11808  -0.43068
  35   39654.3    252.2    116.60896  -0.02691  -0.05147   1.13821

sTD-DFT done

Total run time:        5.494 sec

           *** ORCA-CIS/TD-DFT FINISHED WITHOUT ERROR ***

-------------------------   --------------------
FINAL SINGLE POINT ENERGY     -4731.447969287494
-------------------------   --------------------


                            ***************************************
                            *     ORCA property calculations      *
                            ***************************************

                                    ---------------------
                                    Active property flags
                                    ---------------------
   (+) Dipole Moment


------------------------------------------------------------------------------
                       ORCA ELECTRIC PROPERTIES CALCULATION
------------------------------------------------------------------------------

Dipole Moment Calculation                       ... on
Quadrupole Moment Calculation                   ... off
Polarizability Calculation                      ... off
GBWName                                         ... SNBDT1-F.gbw
Electron density file                           ... SNBDT1-F.scfp
The origin for moment calculation is the CENTER OF MASS  = (-2.487423,  0.008874  0.010958)

-------------
DIPOLE MOMENT
-------------
                                X             Y             Z
Electronic contribution:      3.07491      36.38400     -21.87663
Nuclear contribution   :     -4.19910     -38.51088      20.87040
                        -----------------------------------------
Total Dipole Moment    :     -1.12420      -2.12688      -1.00623
                        -----------------------------------------
Magnitude (a.u.)       :      2.60767
Magnitude (Debye)      :      6.62817



--------------------
Rotational spectrum 
--------------------
 
Rotational constants in cm-1:     0.001745     0.000281     0.000259 
Rotational constants in MHz :    52.327766     8.430094     7.758706 

 Dipole components along the rotational axes: 
x,y,z [a.u.] :    -0.538022     1.497700    -2.065760 
x,y,z [Debye]:    -1.367544     3.806851    -5.250745 

 

Timings for individual modules:

Sum of individual times         ...     4839.189 sec (=  80.653 min)
GTO integral calculation        ...        4.377 sec (=   0.073 min)   0.1 %
SCF iterations                  ...     4829.220 sec (=  80.487 min)  99.8 %
CIS module                      ...        5.591 sec (=   0.093 min)   0.1 %
                             ****ORCA TERMINATED NORMALLY****
TOTAL RUN TIME: 0 days 1 hours 20 minutes 39 seconds 790 msec
