
                                 *****************
                                 * O   R   C   A *
                                 *****************

           --- An Ab Initio, DFT and Semiempirical electronic structure package ---

                  #######################################################
                  #                        -***-                        #
                  #          Department of theory and spectroscopy      #
                  #               Directorship: Frank Neese             #
                  #        Max Planck Institute fuer Kohlenforschung    #
                  #                Kaiser Wilhelm Platz 1               #
                  #                 D-45470 Muelheim/Ruhr               #
                  #                      Germany                        #
                  #                                                     #
                  #                  All rights reserved                #
                  #                        -***-                        #
                  #######################################################


                         Program Version 4.2.0 -  RELEASE  -


 With contributions from (in alphabetic order):
   Daniel Aravena         : Magnetic Suceptibility
   Michael Atanasov       : Ab Initio Ligand Field Theory (pilot matlab implementation)
   Alexander A. Auer      : GIAO ZORA, VPT2
   Ute Becker             : Parallelization
   Giovanni Bistoni       : ED, misc. LED, open-shell LED, HFLED
   Martin Brehm           : Molecular dynamics
   Dmytro Bykov           : SCF Hessian
   Vijay G. Chilkuri      : MRCI spin determinant printing, contributions to CSF-ICE
   Dipayan Datta          : RHF DLPNO-CCSD density
   Achintya Kumar Dutta   : EOM-CC, STEOM-CC
   Dmitry Ganyushin       : Spin-Orbit,Spin-Spin,Magnetic field MRCI
   Miquel Garcia          : C-PCM Hessian, Gaussian charge scheme
   Yang Guo               : DLPNO-NEVPT2, CIM, IAO-localization
   Andreas Hansen         : Spin unrestricted coupled pair/coupled cluster methods
   Benjamin Helmich-Paris : CASSCF linear response (MC-RPA)
   Lee Huntington         : MR-EOM, pCC
   Robert Izsak           : Overlap fitted RIJCOSX, COSX-SCS-MP3, EOM
   Christian Kollmar      : KDIIS, OOCD, Brueckner-CCSD(T), CCSD density
   Simone Kossmann        : Meta GGA functionals, TD-DFT gradient, OOMP2, MP2 Hessian
   Martin Krupicka        : AUTO-CI
   Lucas Lang             : DCDCAS
   Dagmar Lenk            : GEPOL surface, SMD
   Dimitrios Liakos       : Extrapolation schemes; Compound Job, initial MDCI parallelization
   Dimitrios Manganas     : Further ROCIS development; embedding schemes
   Dimitrios Pantazis     : SARC Basis sets
   Taras Petrenko         : DFT Hessian,TD-DFT gradient, ASA, ECA, R-Raman, ABS, FL, XAS/XES, NRVS
   Peter Pinski           : DLPNO-MP2, DLPNO-MP2 Gradient
   Christoph Reimann      : Effective Core Potentials
   Marius Retegan         : Local ZFS, SOC
   Christoph Riplinger    : Optimizer, TS searches, QM/MM, DLPNO-CCSD(T), (RO)-DLPNO pert. Triples
   Tobias Risthaus        : Range-separated hybrids, TD-DFT gradient, RPA, STAB
   Michael Roemelt        : Original ROCIS implementation
   Masaaki Saitow         : Open-shell DLPNO-CCSD energy and density
   Barbara Sandhoefer     : DKH picture change effects
   Avijit Sen             : IP-ROCIS
   Kantharuban Sivalingam : CASSCF convergence, NEVPT2, FIC-MRCI
   Bernardo de Souza      : ESD, SOC TD-DFT
   Georgi Stoychev        : AutoAux, RI-MP2 NMR
   Willem Van den Heuvel  : Paramagnetic NMR
   Boris Wezisla          : Elementary symmetry handling
   Frank Wennmohs         : Technical directorship


 We gratefully acknowledge several colleagues who have allowed us to
 interface, adapt or use parts of their codes:
   Stefan Grimme, W. Hujo, H. Kruse,             : VdW corrections, initial TS optimization,
                  C. Bannwarth                     DFT functionals, gCP, sTDA/sTD-DF
   Ed Valeev, F. Pavosevic, A. Kumar             : LibInt (2-el integral package), F12 methods
   Garnet Chan, S. Sharma, J. Yang, R. Olivares  : DMRG
   Ulf Ekstrom                                   : XCFun DFT Library
   Mihaly Kallay                                 : mrcc  (arbitrary order and MRCC methods)
   Andreas Klamt, Michael Diedenhofen            : otool_cosmo (COSMO solvation model)
   Jiri Pittner, Ondrej Demel                    : Mk-CCSD
   Frank Weinhold                                : gennbo (NPA and NBO analysis)
   Christopher J. Cramer and Donald G. Truhlar   : smd solvation model
   Lars Goerigk                                  : TD-DFT with DH, B97 family of functionals
   V. Asgeirsson, H. Jonsson                     : NEB implementation
   FAccTs GmbH                                   : IRC, NEB, NEB-TS, Multilevel, MM, QM/MM, CI optimization
   S Lehtola, MJT Oliveira, MAL Marques          : LibXC Library


 Your calculation uses the libint2 library for the computation of 2-el integrals
 For citations please refer to: http://libint.valeyev.net

 Your ORCA version has been built with support for libXC version: 4.2.3
 For citations please refer to: https://tddft.org/programs/libxc/

 This ORCA versions uses:
   CBLAS   interface :  Fast vector & matrix operations
   LAPACKE interface :  Fast linear algebra routines
   SCALAPACK package :  Parallel linear algebra routines


XCFun DFT library Copyright 2009-2010 Ulf Ekstrom and contributors.
See http://admol.org/xcfun for more information. This is free soft-
ware; see the source code for copying conditions. There is ABSOLUTELY
NO WARRANTY; not even for MERCHANTABILITY or FITNESS FOR A PARTICULAR
PURPOSE. For details see the documentation. Scientific users of this 
library should cite U. Ekstrom, L. Visscher, R. Bast, A. J. Thorvald-
sen and K. Ruud; J.Chem.Theor.Comp. 2010, DOI: 10.1021/ct100117s
XCFun Version 0.99 
----- Orbital basis set information -----
Your calculation utilizes the basis: def2-SVP
   F. Weigend and R. Ahlrichs, Phys. Chem. Chem. Phys. 7, 3297 (2005).

----- AuxJ basis set information -----
Your calculation utilizes the auxiliary basis: def2/J
   F. Weigend, Phys. Chem. Chem. Phys. 8, 1057 (2006).

================================================================================
                                        WARNINGS
                       Please study these warnings very carefully!
================================================================================

INFO   : Checking CIS options ...

WARNING: CIS/ROCIS methods need fully converged wavefunctions
  ===> : Setting SCFConvForced true
         You can overwrite this default with %scf ConvForced false 


INFO   : the flag for use of LIBINT has been found!

================================================================================
                                       INPUT FILE
================================================================================
NAME = TPIC-4F.inp
|  1> # ORCA input file
|  2> # TPIC-4F.out: Geometry 135
|  3> ! CAM-B3LYP def2-SVP def2/J RIJCOSX Grid4 TightSCF
|  4> %maxcore 5000
|  5> %tddft
|  6>     Mode sTDDFT
|  7>     Ethresh 5.0
|  8>     maxcore 5000
|  9> end
| 10> * xyz 0 1
| 11>    C        0.46813        -3.24243        -1.29835
| 12>    C       -0.26371        -3.93946        -0.35086
| 13>    C       -1.27809        -4.96073        -0.65099
| 14>    C       -1.80053        -5.47018         0.64180
| 15>    C       -1.14393        -4.79954         1.68900
| 16>    C       -0.17250        -3.82142         1.13292
| 17>    C       -2.76777        -6.43950         0.94732
| 18>    C       -3.03763        -6.69918         2.28721
| 19>    C       -2.37009        -6.01996         3.32214
| 20>    C       -1.41016        -5.05630         3.03015
| 21>    F       -2.68148        -6.32292         4.57902
| 22>    F       -3.94929        -7.61236         2.61749
| 23>    O        0.53558        -3.09214         1.80667
| 24>    C       -1.71365        -5.41028        -1.88685
| 25>    C       -2.72029        -6.41541        -2.03391
| 26>    C       -1.21802        -4.93213        -3.13942
| 27>    N       -3.53696        -7.23006        -2.17670
| 28>    N       -0.83296        -4.56574        -4.17338
| 29>    C        1.46680        -2.23827        -1.21159
| 30>    S        2.15353        -1.68242        -2.76558
| 31>    C        3.19199        -0.59068        -1.94928
| 32>    C        3.02007        -0.63108        -0.56183
| 33>    C        2.06536        -1.55505        -0.13691
| 34>    C       12.90723         7.75125        -5.43227
| 35>    C       14.00235         8.37653        -4.86884
| 36>    C       15.11761         8.97329        -5.60175
| 37>    C       15.96185         9.68782        -4.61152
| 38>    C       15.44436         9.45585        -3.32165
| 39>    C       14.22223         8.61218        -3.42257
| 40>    C       17.10178        10.48775        -4.76157
| 41>    C       17.67826        11.02919        -3.61584
| 42>    C       17.15165        10.78902        -2.33395
| 43>    C       16.02482         9.98725        -2.17491
| 44>    F       17.75237        11.34963        -1.28566
| 45>    F       18.75997        11.79712        -3.71829
| 46>    O       13.54118         8.21991        -2.49129
| 47>    C       15.41036         8.86138        -6.95247
| 48>    C       16.56031         9.46304        -7.55150
| 49>    C       14.62147         8.09791        -7.86912
| 50>    N       17.49229         9.93905        -8.05753
| 51>    N       13.98988         7.47610        -8.62206
| 52>    C        4.21766         0.36345        -2.31122
| 53>    C        4.72512         0.90775        -1.09803
| 54>    C        3.92837         0.38908         0.11523
| 55>    C        4.70215         0.78368        -3.56236
| 56>    C        5.72905         1.71474        -3.59044
| 57>    C        6.26203         2.22908        -2.37294
| 58>    C        5.75198         1.84068        -1.12308
| 59>    C        6.40883         2.38181        -4.81604
| 60>    C        7.36780         3.34234        -4.10787
| 61>    C        7.28511         3.18757        -2.72955
| 62>    C        8.33518         4.31996        -4.44440
| 63>    C        9.01694         4.83965        -3.30366
| 64>    S        8.40323         4.16301        -1.80929
| 65>    N        8.88247         4.85696        -5.59552
| 66>    C        9.90953         5.70091        -5.19831
| 67>    C       10.03063         5.69695        -3.77827
| 68>    C       10.87451         6.47353        -5.83810
| 69>    C       11.78366         7.05473        -4.92819
| 70>    S       11.37668         6.65531        -3.23842
| 71>    C        3.11047         1.57882         0.66948
| 72>    C        8.26051         4.88290        -6.91489
| 73>    C        7.21006         5.98213        -7.02895
| 74>    C        4.75277        -0.28796         1.21194
| 75>    C        7.15912         1.34705        -5.67567
| 76>    C        5.35810         3.18229        -5.61919
| 77>    C        6.10678        -0.60402         1.06621
| 78>    C        6.81384        -1.20751         2.11135
| 79>    C        6.19302        -1.51644         3.32747
| 80>    C        4.82201        -1.24175         3.44982
| 81>    C        4.11517        -0.63844         2.41397
| 82>    C        1.88382         1.94048         0.09780
| 83>    C        1.14909         3.01318         0.60517
| 84>    C        1.60470         3.75433         1.70317
| 85>    C        2.85440         3.41648         2.24273
| 86>    C        3.59752         2.35080         1.73266
| 87>    C        4.59011         4.14586        -4.94636
| 88>    C        3.63756         4.90634        -5.62201
| 89>    C        3.40608         4.72726        -6.99446
| 90>    C        4.17438         3.76509        -7.66135
| 91>    C        5.13960         3.00926        -6.99005
| 92>    C        8.53946         1.43216        -5.90526
| 93>    C        9.19678         0.51915        -6.73285
| 94>    C        8.50834        -0.52694        -7.36007
| 95>    C        7.13117        -0.62744        -7.11271
| 96>    C        6.47239         0.28614        -6.28989
| 97>    C        6.95725        -2.15544         4.46118
| 98>    C        6.91026        -3.68615         4.42535
| 99>    C        0.77603         4.87733         2.28186
|100>    C        1.18815         6.27194         1.79234
|101>    C        9.21518        -1.48122        -8.29524
|102>    C        9.55323        -0.85170        -9.65550
|103>    C        2.40922         5.57636        -7.74728
|104>    C        3.09028         6.62093        -8.64025
|105>    H        0.24729        -3.50951        -2.33157
|106>    H       -3.32090        -7.00213         0.19976
|107>    H       -0.88658        -4.52232         3.82482
|108>    H        1.77823        -1.76682         0.88955
|109>    H       12.87690         7.76476        -6.52144
|110>    H       17.56113        10.71501        -5.72119
|111>    H       15.60922         9.78837        -1.18568
|112>    H        4.25555         0.39215        -4.47587
|113>    H        6.14009         2.27667        -0.20083
|114>    H       10.98350         6.60467        -6.91515
|115>    H        7.82342         3.89333        -7.10475
|116>    H        9.06394         5.02698        -7.65302
|117>    H        6.39538         5.81825        -6.30889
|118>    H        6.76867         5.99331        -8.03671
|119>    H        7.66206         6.96771        -6.83332
|120>    H        6.62652        -0.37033         0.13631
|121>    H        7.87616        -1.43073         1.97799
|122>    H        4.30377        -1.49152         4.38027
|123>    H        3.05729        -0.40780         2.55238
|124>    H        1.48366         1.36804        -0.74066
|125>    H        0.18616         3.26751         0.15385
|126>    H        3.24551         3.98111         3.09377
|127>    H        4.55341         2.09384         2.19093
|128>    H        4.74667         4.30773        -3.87765
|129>    H        3.05452         5.64967        -5.07153
|130>    H        4.01458         3.59239        -8.72959
|131>    H        5.72326         2.27972        -7.55055
|132>    H        9.12560         2.22092        -5.43805
|133>    H       10.27332         0.63131        -6.89016
|134>    H        6.55893        -1.43536        -7.57643
|135>    H        5.39713         0.17691        -6.15289
|136>    H        6.54558        -1.79866         5.41976
|137>    H        8.00595        -1.81719         4.42826
|138>    H        5.87477        -4.05211         4.50920
|139>    H        7.49399        -4.12207         5.25068
|140>    H        7.32204        -4.07171         3.47914
|141>    H        0.84382         4.84211         3.38276
|142>    H       -0.28404         4.70381         2.03188
|143>    H        2.24229         6.48155         2.03451
|144>    H        0.57076         7.05154         2.26459
|145>    H        1.07029         6.35763         0.70009
|146>    H        8.58434        -2.37156        -8.44871
|147>    H       10.14340        -1.83927        -7.81814
|148>    H        8.64271        -0.49484       -10.16311
|149>    H       10.05155        -1.57927       -10.31568
|150>    H       10.22510         0.01309        -9.53861
|151>    H        1.73817         6.07970        -7.03185
|152>    H        1.77040         4.92488        -8.36886
|153>    H        3.71282         7.30429        -8.04030
|154>    H        2.34981         7.22463        -9.18882
|155>    H        3.74712         6.13709        -9.38121
|156> *
|157> 
|158>                          ****END OF INPUT****
================================================================================

                       ****************************
                       * Single Point Calculation *
                       ****************************

---------------------------------
CARTESIAN COORDINATES (ANGSTROEM)
---------------------------------
  C      0.468130   -3.242430   -1.298350
  C     -0.263710   -3.939460   -0.350860
  C     -1.278090   -4.960730   -0.650990
  C     -1.800530   -5.470180    0.641800
  C     -1.143930   -4.799540    1.689000
  C     -0.172500   -3.821420    1.132920
  C     -2.767770   -6.439500    0.947320
  C     -3.037630   -6.699180    2.287210
  C     -2.370090   -6.019960    3.322140
  C     -1.410160   -5.056300    3.030150
  F     -2.681480   -6.322920    4.579020
  F     -3.949290   -7.612360    2.617490
  O      0.535580   -3.092140    1.806670
  C     -1.713650   -5.410280   -1.886850
  C     -2.720290   -6.415410   -2.033910
  C     -1.218020   -4.932130   -3.139420
  N     -3.536960   -7.230060   -2.176700
  N     -0.832960   -4.565740   -4.173380
  C      1.466800   -2.238270   -1.211590
  S      2.153530   -1.682420   -2.765580
  C      3.191990   -0.590680   -1.949280
  C      3.020070   -0.631080   -0.561830
  C      2.065360   -1.555050   -0.136910
  C     12.907230    7.751250   -5.432270
  C     14.002350    8.376530   -4.868840
  C     15.117610    8.973290   -5.601750
  C     15.961850    9.687820   -4.611520
  C     15.444360    9.455850   -3.321650
  C     14.222230    8.612180   -3.422570
  C     17.101780   10.487750   -4.761570
  C     17.678260   11.029190   -3.615840
  C     17.151650   10.789020   -2.333950
  C     16.024820    9.987250   -2.174910
  F     17.752370   11.349630   -1.285660
  F     18.759970   11.797120   -3.718290
  O     13.541180    8.219910   -2.491290
  C     15.410360    8.861380   -6.952470
  C     16.560310    9.463040   -7.551500
  C     14.621470    8.097910   -7.869120
  N     17.492290    9.939050   -8.057530
  N     13.989880    7.476100   -8.622060
  C      4.217660    0.363450   -2.311220
  C      4.725120    0.907750   -1.098030
  C      3.928370    0.389080    0.115230
  C      4.702150    0.783680   -3.562360
  C      5.729050    1.714740   -3.590440
  C      6.262030    2.229080   -2.372940
  C      5.751980    1.840680   -1.123080
  C      6.408830    2.381810   -4.816040
  C      7.367800    3.342340   -4.107870
  C      7.285110    3.187570   -2.729550
  C      8.335180    4.319960   -4.444400
  C      9.016940    4.839650   -3.303660
  S      8.403230    4.163010   -1.809290
  N      8.882470    4.856960   -5.595520
  C      9.909530    5.700910   -5.198310
  C     10.030630    5.696950   -3.778270
  C     10.874510    6.473530   -5.838100
  C     11.783660    7.054730   -4.928190
  S     11.376680    6.655310   -3.238420
  C      3.110470    1.578820    0.669480
  C      8.260510    4.882900   -6.914890
  C      7.210060    5.982130   -7.028950
  C      4.752770   -0.287960    1.211940
  C      7.159120    1.347050   -5.675670
  C      5.358100    3.182290   -5.619190
  C      6.106780   -0.604020    1.066210
  C      6.813840   -1.207510    2.111350
  C      6.193020   -1.516440    3.327470
  C      4.822010   -1.241750    3.449820
  C      4.115170   -0.638440    2.413970
  C      1.883820    1.940480    0.097800
  C      1.149090    3.013180    0.605170
  C      1.604700    3.754330    1.703170
  C      2.854400    3.416480    2.242730
  C      3.597520    2.350800    1.732660
  C      4.590110    4.145860   -4.946360
  C      3.637560    4.906340   -5.622010
  C      3.406080    4.727260   -6.994460
  C      4.174380    3.765090   -7.661350
  C      5.139600    3.009260   -6.990050
  C      8.539460    1.432160   -5.905260
  C      9.196780    0.519150   -6.732850
  C      8.508340   -0.526940   -7.360070
  C      7.131170   -0.627440   -7.112710
  C      6.472390    0.286140   -6.289890
  C      6.957250   -2.155440    4.461180
  C      6.910260   -3.686150    4.425350
  C      0.776030    4.877330    2.281860
  C      1.188150    6.271940    1.792340
  C      9.215180   -1.481220   -8.295240
  C      9.553230   -0.851700   -9.655500
  C      2.409220    5.576360   -7.747280
  C      3.090280    6.620930   -8.640250
  H      0.247290   -3.509510   -2.331570
  H     -3.320900   -7.002130    0.199760
  H     -0.886580   -4.522320    3.824820
  H      1.778230   -1.766820    0.889550
  H     12.876900    7.764760   -6.521440
  H     17.561130   10.715010   -5.721190
  H     15.609220    9.788370   -1.185680
  H      4.255550    0.392150   -4.475870
  H      6.140090    2.276670   -0.200830
  H     10.983500    6.604670   -6.915150
  H      7.823420    3.893330   -7.104750
  H      9.063940    5.026980   -7.653020
  H      6.395380    5.818250   -6.308890
  H      6.768670    5.993310   -8.036710
  H      7.662060    6.967710   -6.833320
  H      6.626520   -0.370330    0.136310
  H      7.876160   -1.430730    1.977990
  H      4.303770   -1.491520    4.380270
  H      3.057290   -0.407800    2.552380
  H      1.483660    1.368040   -0.740660
  H      0.186160    3.267510    0.153850
  H      3.245510    3.981110    3.093770
  H      4.553410    2.093840    2.190930
  H      4.746670    4.307730   -3.877650
  H      3.054520    5.649670   -5.071530
  H      4.014580    3.592390   -8.729590
  H      5.723260    2.279720   -7.550550
  H      9.125600    2.220920   -5.438050
  H     10.273320    0.631310   -6.890160
  H      6.558930   -1.435360   -7.576430
  H      5.397130    0.176910   -6.152890
  H      6.545580   -1.798660    5.419760
  H      8.005950   -1.817190    4.428260
  H      5.874770   -4.052110    4.509200
  H      7.493990   -4.122070    5.250680
  H      7.322040   -4.071710    3.479140
  H      0.843820    4.842110    3.382760
  H     -0.284040    4.703810    2.031880
  H      2.242290    6.481550    2.034510
  H      0.570760    7.051540    2.264590
  H      1.070290    6.357630    0.700090
  H      8.584340   -2.371560   -8.448710
  H     10.143400   -1.839270   -7.818140
  H      8.642710   -0.494840  -10.163110
  H     10.051550   -1.579270  -10.315680
  H     10.225100    0.013090   -9.538610
  H      1.738170    6.079700   -7.031850
  H      1.770400    4.924880   -8.368860
  H      3.712820    7.304290   -8.040300
  H      2.349810    7.224630   -9.188820
  H      3.747120    6.137090   -9.381210

----------------------------
CARTESIAN COORDINATES (A.U.)
----------------------------
  NO LB      ZA    FRAG     MASS         X           Y           Z
   0 C     6.0000    0    12.011    0.884637   -6.127305   -2.453526
   1 C     6.0000    0    12.011   -0.498340   -7.444501   -0.663029
   2 C     6.0000    0    12.011   -2.415240   -9.374421   -1.230193
   3 C     6.0000    0    12.011   -3.402509  -10.337142    1.212826
   4 C     6.0000    0    12.011   -2.161714   -9.069816    3.191747
   5 C     6.0000    0    12.011   -0.325978   -7.221437    2.140909
   6 C     6.0000    0    12.011   -5.230327  -12.168891    1.790175
   7 C     6.0000    0    12.011   -5.740289  -12.659616    4.322201
   8 C     6.0000    0    12.011   -4.478821  -11.376076    6.277935
   9 C     6.0000    0    12.011   -2.664816   -9.555022    5.726154
  10 F     9.0000    0    18.998   -5.067263  -11.948587    8.653094
  11 F     9.0000    0    18.998   -7.463077  -14.385276    4.946339
  12 O     8.0000    0    15.999    1.012100   -5.843298    3.414112
  13 C     6.0000    0    12.011   -3.238329  -10.223948   -3.565630
  14 C     6.0000    0    12.011   -5.140603  -12.123368   -3.843533
  15 C     6.0000    0    12.011   -2.301724   -9.320375   -5.932644
  16 N     7.0000    0    14.007   -6.683886  -13.662833   -4.113367
  17 N     7.0000    0    14.007   -1.574066   -8.627998   -7.886545
  18 C     6.0000    0    12.011    2.771850   -4.229717   -2.289573
  19 S    16.0000    0    32.060    4.069582   -3.179313   -5.226189
  20 C     6.0000    0    12.011    6.031987   -1.116223   -3.683605
  21 C     6.0000    0    12.011    5.707105   -1.192568   -1.061705
  22 C     6.0000    0    12.011    3.902965   -2.938619   -0.258722
  23 C     6.0000    0    12.011   24.391130   14.647740  -10.265503
  24 C     6.0000    0    12.011   26.460607   15.829348   -9.200774
  25 C     6.0000    0    12.011   28.568143   16.957061  -10.585773
  26 C     6.0000    0    12.011   30.163525   18.307327   -8.714510
  27 C     6.0000    0    12.011   29.185611   17.868967   -6.277009
  28 C     6.0000    0    12.011   26.876120   16.274662   -6.467720
  29 C     6.0000    0    12.011   32.317681   19.818975   -8.998063
  30 C     6.0000    0    12.011   33.407070   20.842149   -6.832947
  31 C     6.0000    0    12.011   32.411921   20.388293   -4.410526
  32 C     6.0000    0    12.011   30.282521   18.873167   -4.109984
  33 F     9.0000    0    18.998   33.547118   21.447692   -2.429545
  34 F     9.0000    0    18.998   35.451206   22.293326   -7.026550
  35 O     8.0000    0    15.999   25.589122   15.533379   -4.707856
  36 C     6.0000    0    12.011   29.121360   16.745581  -13.138264
  37 C     6.0000    0    12.011   31.294451   17.882554  -14.270267
  38 C     6.0000    0    12.011   27.630574   15.302832  -14.870482
  39 N     7.0000    0    14.007   33.055638   18.782083  -15.226525
  40 N     7.0000    0    14.007   26.437042   14.127782  -16.293332
  41 C     6.0000    0    12.011    7.970222    0.686821   -4.367573
  42 C     6.0000    0    12.011    8.929183    1.715399   -2.074976
  43 C     6.0000    0    12.011    7.423543    0.735255    0.217753
  44 C     6.0000    0    12.011    8.885776    1.480941   -6.731885
  45 C     6.0000    0    12.011   10.826336    3.240389   -6.784948
  46 C     6.0000    0    12.011   11.833522    4.212351   -4.484207
  47 C     6.0000    0    12.011   10.869667    3.478381   -2.122314
  48 C     6.0000    0    12.011   12.110934    4.500969   -9.100997
  49 C     6.0000    0    12.011   13.923124    6.316107   -7.762749
  50 C     6.0000    0    12.011   13.766863    6.023634   -5.158102
  51 C     6.0000    0    12.011   15.751207    8.163541   -8.398699
  52 C     6.0000    0    12.011   17.039547    9.145613   -6.243013
  53 S    16.0000    0    32.060   15.879803    7.866949   -3.419063
  54 N     7.0000    0    14.007   16.785436    9.178324  -10.574000
  55 C     6.0000    0    12.011   18.726298   10.773159   -9.823382
  56 C     6.0000    0    12.011   18.955144   10.765675   -7.139896
  57 C     6.0000    0    12.011   20.549846   12.233199  -11.032410
  58 C     6.0000    0    12.011   22.267890   13.331508   -9.312929
  59 S    16.0000    0    32.060   21.498810   12.576713   -6.119727
  60 C     6.0000    0    12.011    5.877936    2.983537    1.265134
  61 C     6.0000    0    12.011   15.610102    9.227344  -13.067248
  62 C     6.0000    0    12.011   13.625039   11.304587  -13.282791
  63 C     6.0000    0    12.011    8.981434   -0.544166    2.290235
  64 C     6.0000    0    12.011   13.528776    2.545556  -10.725462
  65 C     6.0000    0    12.011   10.125342    6.013657  -10.618730
  66 C     6.0000    0    12.011   11.540142   -1.141432    2.014845
  67 C     6.0000    0    12.011   12.876292   -2.281863    3.989873
  68 C     6.0000    0    12.011   11.703112   -2.865656    6.288007
  69 C     6.0000    0    12.011    9.112278   -2.346567    6.519215
  70 C     6.0000    0    12.011    7.776544   -1.206477    4.561742
  71 C     6.0000    0    12.011    3.559904    3.666976    0.184815
  72 C     6.0000    0    12.011    2.171465    5.694085    1.143606
  73 C     6.0000    0    12.011    3.032444    7.094656    3.218525
  74 C     6.0000    0    12.011    5.394034    6.456212    4.238145
  75 C     6.0000    0    12.011    6.798328    4.442368    3.274253
  76 C     6.0000    0    12.011    8.674051    7.834540   -9.347266
  77 C     6.0000    0    12.011    6.873992    9.271639  -10.624059
  78 C     6.0000    0    12.011    6.436558    8.933227  -13.217614
  79 C     6.0000    0    12.011    7.888435    7.114989  -14.477853
  80 C     6.0000    0    12.011    9.712436    5.686677  -13.209280
  81 C     6.0000    0    12.011   16.137241    2.706390  -11.159324
  82 C     6.0000    0    12.011   17.379396    0.981051  -12.723243
  83 C     6.0000    0    12.011   16.078432   -0.995772  -13.908517
  84 C     6.0000    0    12.011   13.475958   -1.185690  -13.441074
  85 C     6.0000    0    12.011   12.231045    0.540726  -11.886170
  86 C     6.0000    0    12.011   13.147297   -4.073191    8.430408
  87 C     6.0000    0    12.011   13.058499   -6.965814    8.362700
  88 C     6.0000    0    12.011    1.466484    9.216818    4.312090
  89 C     6.0000    0    12.011    2.245278   11.852249    3.387032
  90 C     6.0000    0    12.011   17.414166   -2.799100  -15.675732
  91 C     6.0000    0    12.011   18.052988   -1.609480  -18.246251
  92 C     6.0000    0    12.011    4.552766   10.537793  -14.640237
  93 C     6.0000    0    12.011    5.839783   12.511744  -16.327706
  94 H     1.0000    0     1.008    0.467310   -6.632013   -4.406029
  95 H     1.0000    0     1.008   -6.275592  -13.232108    0.377492
  96 H     1.0000    0     1.008   -1.675393   -8.545946    7.227862
  97 H     1.0000    0     1.008    3.360368   -3.338806    1.681006
  98 H     1.0000    0     1.008   24.333814   14.673270  -12.323736
  99 H     1.0000    0     1.008   33.185726   20.248434  -10.811482
 100 H     1.0000    0     1.008   29.497151   18.497339   -2.240610
 101 H     1.0000    0     1.008    8.041824    0.741056   -8.458169
 102 H     1.0000    0     1.008   11.603089    4.302283   -0.379514
 103 H     1.0000    0     1.008   20.755807   12.481018  -13.067740
 104 H     1.0000    0     1.008   14.784121    7.357327  -13.426032
 105 H     1.0000    0     1.008   17.128364    9.499615  -14.462112
 106 H     1.0000    0     1.008   12.085517   10.994899  -11.922074
 107 H     1.0000    0     1.008   12.790933   11.325715  -15.187181
 108 H     1.0000    0     1.008   14.479195   13.167064  -12.913103
 109 H     1.0000    0     1.008   12.522308   -0.699822    0.257589
 110 H     1.0000    0     1.008   14.883785   -2.703688    3.737859
 111 H     1.0000    0     1.008    8.132947   -2.818564    8.277511
 112 H     1.0000    0     1.008    5.777441   -0.770630    4.823299
 113 H     1.0000    0     1.008    2.803711    2.585221   -1.399645
 114 H     1.0000    0     1.008    0.351791    6.174699    0.290734
 115 H     1.0000    0     1.008    6.133125    7.523208    5.846378
 116 H     1.0000    0     1.008    8.604698    3.956784    4.140258
 117 H     1.0000    0     1.008    8.969906    8.140430   -7.327697
 118 H     1.0000    0     1.008    5.772206   10.676329   -9.583803
 119 H     1.0000    0     1.008    7.586457    6.788633  -16.496534
 120 H     1.0000    0     1.008   10.815394    4.308046  -14.268472
 121 H     1.0000    0     1.008   17.244885    4.196931  -10.276425
 122 H     1.0000    0     1.008   19.413761    1.193003  -13.020515
 123 H     1.0000    0     1.008   12.394581   -2.712437  -14.317378
 124 H     1.0000    0     1.008   10.199098    0.334311  -11.627277
 125 H     1.0000    0     1.008   12.369354   -3.398975   10.241862
 126 H     1.0000    0     1.008   15.129053   -3.433991    8.368199
 127 H     1.0000    0     1.008   11.101706   -7.657378    8.521153
 128 H     1.0000    0     1.008   14.161589   -7.789583    9.922347
 129 H     1.0000    0     1.008   13.836650   -7.694417    6.574622
 130 H     1.0000    0     1.008    1.594589    9.150262    6.392490
 131 H     1.0000    0     1.008   -0.536758    8.888913    3.839697
 132 H     1.0000    0     1.008    4.237314   12.248354    3.844667
 133 H     1.0000    0     1.008    1.078580   13.325479    4.279455
 134 H     1.0000    0     1.008    2.022555   12.014180    1.322978
 135 H     1.0000    0     1.008   16.222052   -4.481599  -15.965748
 136 H     1.0000    0     1.008   19.168248   -3.475717  -14.774143
 137 H     1.0000    0     1.008   16.332355   -0.935112  -19.205495
 138 H     1.0000    0     1.008   18.994677   -2.984388  -19.493810
 139 H     1.0000    0     1.008   19.322639    0.024737  -18.025361
 140 H     1.0000    0     1.008    3.284665   11.488968  -13.288271
 141 H     1.0000    0     1.008    3.345571    9.306674  -15.814853
 142 H     1.0000    0     1.008    7.016213   13.803108  -15.193965
 143 H     1.0000    0     1.008    4.440497   13.652572  -17.364353
 144 H     1.0000    0     1.008    7.081031   11.597419  -17.727918

--------------------------------
INTERNAL COORDINATES (ANGSTROEM)
--------------------------------
 C      0   0   0     0.000000000000     0.00000000     0.00000000
 C      1   0   0     1.385343966891     0.00000000     0.00000000
 C      2   1   0     1.470386756673   125.05080896     0.00000000
 C      3   2   1     1.484516365757   107.66105119   179.05563921
 C      4   3   2     1.406239456707   108.69452399     0.00000000
 C      5   4   3     1.486479043142   109.89911103     0.28489061
 C      4   3   2     1.403024215899   132.01646016   180.08812841
 C      7   4   3     1.391245245850   118.19000079   179.83725284
 C      8   7   4     1.406424390040   121.76850213     0.00000000
 C      9   8   7     1.391173734873   120.50339379     0.06819112
 F      9   8   7     1.329848046996   118.31528550   180.02988597
 F      8   7   4     1.331955910081   119.96984867   179.99728331
 O      6   5   4     1.219494021019   124.49081117   179.63491457
 C      3   2   1     1.385336657892   128.63683776   358.99517946
 C     14   3   2     1.430117844830   122.75956456   180.23013682
 C     14   3   2     1.429408312659   124.34454026     0.23650035
 N     15  14   3     1.162322457625   178.84531604   178.11416213
 N     16  14   3     1.162577359706   178.39274505   174.60848674
 C      1   2   3     1.418875037521   133.32110929   179.77048310
 S     19   1   2     1.787582791230   115.93188951   178.17072865
 C     20  19   1     1.713663061748    90.96260676   180.30756352
 C     21  20  19     1.398644396871   112.31174580   359.38561065
 C     22  21  20     1.394900982651   113.91921448     0.91690864
 C     21  20  19    13.270452280258   135.97960335   175.63114647
 C     24  21  20     1.381201020018   139.28565624   202.70786692
 C     25  24  21     1.461877024000   125.81494662   162.03678711
 C     26  25  24     1.484536881118   107.21248911   172.36866121
 C     27  26  25     1.409031794496   108.81534503     4.16775356
 C     25  24  21     1.481747296201   126.00201363   339.14166100
 C     27  26  25     1.400658206808   131.77872533   184.01916958
 C     30  27  26     1.392186660222   118.09605322   179.94426718
 C     31  30  27     1.406499802026   121.91177183     0.25324939
 C     28  27  26     1.390802789471   122.58865936   179.58563197
 F     32  31  30     1.331938442496   118.46207809   180.48662495
 F     31  30  27     1.330529598130   119.85079460   180.17602563
 O     29  25  24     1.218600547267   127.71948884     5.73649881
 C     26  25  24     1.386604099590   128.06071063   349.24637770
 C     37  26  25     1.429411312044   122.96375706   181.93335664
 C     37  26  25     1.430203165812   123.43314036   359.66479334
 N     38  37  26     1.162427890839   178.85142929   165.45598506
 N     39  37  26     1.162958403297   179.38433129   203.23048056
 C     21  20  19     1.446846076609   136.93242027   178.70371142
 C     42  21  20     1.423238601816   106.96111939   182.28481794
 C     22  21  20     1.524514860275   110.36483558   181.96316604
 C     42  21  20     1.405942784255   131.60645010     3.29548461
 C     45  42  21     1.386428800913   118.29341152   181.15020823
 C     46  45  42     1.425103352743   120.13768467   359.58167949
 C     43  42  21     1.387597689174   120.37095862   178.61861076
 C     46  45  42     1.552152889795   128.97593443   182.43787091
 C     49  46  45     1.530929812467   100.29558288   176.56173291
 C     50  49  46     1.389445001215   110.59162647     2.60597779
 C     50  49  46     1.415915735381   138.69641009   180.74161275
 C     52  50  49     1.426941533946   112.82274650   184.85166804
 S     51  50  49     1.746010880722   114.99271794   176.48985652
 N     52  50  49     1.383102526388   137.41146168   358.96486540
 C     55  52  50     1.387400313608   106.90721174   186.26650063
 C     53  52  50     1.409888420479   107.20903595   174.44592359
 C     56  55  52     1.391926473956   135.99377871   176.14876701
 C     58  56  55     1.411482685193   112.25893569   186.03344355
 S     57  53  52     1.738315999639   141.94609613   185.54426987
 C     44  22  21     1.546491105729   111.03075556   108.20809419
 C     55  52  50     1.458850342599   126.22118818    23.91005518
 C     62  55  52     1.524716852075   111.97469823    78.31196319
 C     44  22  21     1.529964491647   110.07597786   232.32401986
 C     49  46  45     1.540333430982   111.42517163   295.25947580
 C     49  46  45     1.545914514389   109.57812713    60.92512099
 C     64  44  22     1.398025120161   123.17467560   104.10826220
 C     67  64  44     1.398732155668   120.61312743   179.15012275
 C     68  67  64     1.399929666698   121.34146620     0.19138449
 C     69  68  67     1.403599849922   117.75585296     2.11182997
 C     70  69  68     1.391614517099   121.07063476   357.73641962
 C     61  44  22     1.400816262220   121.02938135   333.40382047
 C     72  61  44     1.395685415772   120.73388708   179.83254982
 C     73  72  61     1.400888216311   121.35523753   359.50288601
 C     74  73  72     1.402504084165   117.63796800     2.59223476
 C     75  74  73     1.395733714467   121.18132842   357.88969209
 C     66  49  46     1.403914525140   118.56888532    54.26446580
 C     77  66  49     1.393622709129   121.06975515   179.36533864
 C     78  77  66     1.403307393018   121.14897124     0.53253062
 C     79  78  77     1.400285067763   117.57834328   359.48645039
 C     80  79  78     1.397702517455   121.44876877   359.89553458
 C     65  49  46     1.401889366462   122.02045897   240.14081746
 C     82  65  49     1.396625236275   121.38399415   182.74583485
 C     83  82  65     1.400592321163   121.48576033   359.46088827
 C     84  83  82     1.402813041178   117.19966899   359.43160423
 C     85  84  83     1.394866394032   121.38255103     0.77778573
 C     69  68  67     1.509194108457   121.42901775   180.59739253
 C     87  69  68     1.531850173189   112.95360000   269.23862092
 C     74  73  72     1.510862364678   121.00187162   182.56605370
 C     89  74  73     1.534408608194   113.95741661   262.00037422
 C     84  83  82     1.511560793650   121.24741829   177.69890951
 C     91  84  83     1.536515701352   113.07494810   286.31904091
 C     79  78  77     1.510443187280   121.63984397   182.05383848
 C     93  79  78     1.533742034829   112.33232201   105.46032734
 H      1   2   3     1.089791539883   114.71312898   359.52206660
 H      7   4   3     1.086899842396   123.96574529   359.85522036
 H     10   9   8     1.091224571617   121.14405152   179.94100471
 H     23  22  21     1.086696968524   126.70270962   179.06543881
 H     24  21  20     1.089675969222   104.46311322     8.95296214
 H     30  27  26     1.087897088194   123.87887131     0.23615241
 H     33  28  27     1.091261933406   121.25475997   180.38454545
 H     45  42  21     1.089609022081   119.82994715     2.39068993
 H     48  43  42     1.091449364240   121.09533937   179.09050294
 H     58  56  55     1.090464681776   126.15938548     3.23301934
 H     62  55  52     1.098336593490   108.05783651   315.44792266
 H     62  55  52     1.100497482142   107.31790130   200.36207666
 H     63  62  55     1.099566532957   110.73282585   298.32372612
 H     63  62  55     1.100241038182   110.62403011   178.99147530
 H     63  62  55     1.101790830103   110.42508551    58.80200977
 H     67  64  44     1.090621242091   120.13154034   359.87677835
 H     68  67  64     1.093679953368   119.20619414   180.93741977
 H     70  69  68     1.093935534207   119.48511580   178.70502186
 H     71  70  69     1.091541218690   119.30662309   182.01558771
 H     72  61  44     1.091251919036   119.94966570     1.09686686
 H     73  72  61     1.093438464752   119.49316043   181.00867144
 H     75  74  73     1.093637577354   119.58168437   179.36971650
 H     76  75  74     1.090763735462   119.53265034   181.72067836
 H     77  66  49     1.092178554358   119.48931839   359.83381820
 H     78  77  66     1.093390763131   119.43039171   180.01618903
 H     80  79  78     1.093845522732   119.56655362   179.45361124
 H     81  80  79     1.089517258789   119.00974823   180.73368864
 H     82  65  49     1.088111952558   120.27061009     2.63959494
 H     83  82  65     1.093738850595   118.77931398   179.40056915
 H     85  84  83     1.093265558956   119.47244376   180.52839294
 H     86  85  84     1.089442178594   118.33678522   178.40827841
 H     87  69  68     1.102560553303   109.08817225   147.34440673
 H     87  69  68     1.102392162028   109.23068101    31.45684743
 H     88  87  69     1.101452261426   111.04264032   299.11976266
 H     88  87  69     1.100879906348   111.21561620   178.75732898
 H     88  87  69     1.101604577923   110.99964522    58.62945655
 H     89  74  73     1.103547344929   108.94657455   139.64133659
 H     89  74  73     1.102881496671   108.87020132    24.15196363
 H     90  89  74     1.101723105231   111.08681643   301.48127732
 H     90  89  74     1.100893561885   110.86421275   181.49833163
 H     90  89  74     1.101927319836   110.98834656    61.38435234
 H     91  84  83     1.101915360679   109.18131477   164.16242315
 H     91  84  83     1.103366023086   109.31382786    48.33560681
 H     92  91  84     1.101845561819   111.02221533   301.32581010
 H     92  91  84     1.101598184321   111.06788627   180.94043663
 H     92  91  84     1.101332971040   111.22109378    60.83128454
 H     93  79  78     1.102496867569   109.56805227   343.26199106
 H     93  79  78     1.104028477531   109.31542355   227.00767186
 H     94  93  79     1.102033095556   110.86720973   299.90518018
 H     94  93  79     1.101670801919   111.38668501   179.46080135
 H     94  93  79     1.102071527987   110.92198470    59.32863184

---------------------------
INTERNAL COORDINATES (A.U.)
---------------------------
 C      0   0   0     0.000000000000     0.00000000     0.00000000
 C      1   0   0     2.617920698703     0.00000000     0.00000000
 C      2   1   0     2.778628281057   125.05080896     0.00000000
 C      3   2   1     2.805329372605   107.66105119   179.05563921
 C      4   3   2     2.657407451891   108.69452399     0.00000000
 C      5   4   3     2.809038295351   109.89911103     0.28489061
 C      4   3   2     2.651331527309   132.01646016   180.08812841
 C      7   4   3     2.629072499776   118.19000079   179.83725284
 C      8   7   4     2.657756925243   121.76850213     0.00000000
 C      9   8   7     2.628937363614   120.50339379     0.06819112
 F      9   8   7     2.513048608553   118.31528550   180.02988597
 F      8   7   4     2.517031892511   119.96984867   179.99728331
 O      6   5   4     2.304509721679   124.49081117   179.63491457
 C      3   2   1     2.617906886698   128.63683776   358.99517946
 C     14   3   2     2.702531065962   122.75956456   180.23013682
 C     14   3   2     2.701190244477   124.34454026     0.23650035
 N     15  14   3     2.196471124218   178.84531604   178.11416213
 N     16  14   3     2.196952819341   178.39274505   174.60848674
 C      1   2   3     2.681285239172   133.32110929   179.77048310
 S     19   1   2     3.378041917134   115.93188951   178.17072865
 C     20  19   1     3.238353872521    90.96260676   180.30756352
 C     21  20  19     2.643054868831   112.31174580   359.38561065
 C     22  21  20     2.635980841148   113.91921448     0.91690864
 C     21  20  19    25.077520482958   135.97960335   175.63114647
 C     24  21  20     2.610091663728   139.28565624   202.70786692
 C     25  24  21     2.762547216832   125.81494662   162.03678711
 C     26  25  24     2.805368141019   107.21248911   172.36866121
 C     27  26  25     2.662684205585   108.81534503     4.16775356
 C     25  24  21     2.800096589499   126.00201363   339.14166100
 C     27  26  25     2.646860418097   131.77872533   184.01916958
 C     30  27  26     2.630851515118   118.09605322   179.94426718
 C     31  30  27     2.657899433244   121.91177183     0.25324939
 C     28  27  26     2.628236378394   122.58865936   179.58563197
 F     32  31  30     2.516998883560   118.46207809   180.48662495
 F     31  30  27     2.514336553542   119.85079460   180.17602563
 O     29  25  24     2.302821300982   127.71948884     5.73649881
 C     26  25  24     2.620302004398   128.06071063   349.24637770
 C     37  26  25     2.701195912493   122.96375706   181.93335664
 C     37  26  25     2.702692299253   123.43314036   359.66479334
 N     38  37  26     2.196670364117   178.85142929   165.45598506
 N     39  37  26     2.197672887374   179.38433129   203.23048056
 C     21  20  19     2.734142842730   136.93242027   178.70371142
 C     42  21  20     2.689531180658   106.96111939   182.28481794
 C     22  21  20     2.880915573013   110.36483558   181.96316604
 C     42  21  20     2.656846822206   131.60645010     3.29548461
 C     45  42  21     2.619970737906   118.29341152   181.15020823
 C     46  45  42     2.693055049218   120.13768467   359.58167949
 C     43  42  21     2.622179616600   120.37095862   178.61861076
 C     46  45  42     2.933143879688   128.97593443   182.43787091
 C     49  46  45     2.893038075818   100.29558288   176.56173291
 C     50  49  46     2.625670530441   110.59162647     2.60597779
 C     50  49  46     2.675692968580   138.69641009   180.74161275
 C     52  50  49     2.696528708275   112.82274650   184.85166804
 S     51  50  49     3.299482391411   114.99271794   176.48985652
 N     52  50  49     2.613684990007   137.41146168   358.96486540
 C     55  52  50     2.621806630836   106.90721174   186.26650063
 C     53  52  50     2.664302994092   107.20903595   174.44592359
 C     56  55  52     2.630359834332   135.99377871   176.14876701
 C     58  56  55     2.667315717787   112.25893569   186.03344355
 S     57  53  52     3.284941173531   141.94609613   185.54426987
 C     44  22  21     2.922444658374   111.03075556   108.20809419
 C     55  52  50     2.756827617889   126.22118818    23.91005518
 C     62  55  52     2.881297282195   111.97469823    78.31196319
 C     44  22  21     2.891213883836   110.07597786   232.32401986
 C     49  46  45     2.910808339479   111.42517163   295.25947580
 C     49  46  45     2.921355058650   109.57812713    60.92512099
 C     64  44  22     2.641884605446   123.17467560   104.10826220
 C     67  64  44     2.643220708922   120.61312743   179.15012275
 C     68  67  64     2.645483676810   121.34146620     0.19138449
 C     69  68  67     2.652419317965   117.75585296     2.11182997
 C     70  69  68     2.629770321306   121.07063476   357.73641962
 C     61  44  22     2.647159099539   121.02938135   333.40382047
 C     72  61  44     2.637463204918   120.73388708   179.83254982
 C     73  72  61     2.647295073066   121.35523753   359.50288601
 C     74  73  72     2.650348620778   117.63796800     2.59223476
 C     75  74  73     2.637554476223   121.18132842   357.88969209
 C     66  49  46     2.653013967949   118.56888532    54.26446580
 C     77  66  49     2.633565254267   121.06975515   179.36533864
 C     78  77  66     2.651866654512   121.14897124     0.53253062
 C     79  78  77     2.646155287491   117.57834328   359.48645039
 C     80  79  78     2.641274974682   121.44876877   359.89553458
 C     65  49  46     2.649186972670   122.02045897   240.14081746
 C     82  65  49     2.639239208283   121.38399415   182.74583485
 C     83  82  65     2.646735912271   121.48576033   359.46088827
 C     84  83  82     2.650932464920   117.19966899   359.43160423
 C     85  84  83     2.635915478131   121.38255103     0.77778573
 C     69  68  67     2.851963547910   121.42901775   180.59739253
 C     87  69  68     2.894777305528   112.95360000   269.23862092
 C     74  73  72     2.855116095290   121.00187162   182.56605370
 C     89  74  73     2.899612047018   113.95741661   262.00037422
 C     84  83  82     2.856435934771   121.24741829   177.69890951
 C     91  84  83     2.903593876024   113.07494810   286.31904091
 C     79  78  77     2.854323964806   121.63984397   182.05383848
 C     93  79  78     2.898352405909   112.33232201   105.46032734
 H      1   2   3     2.059407553443   114.71312898   359.52206660
 H      7   4   3     2.053943037130   123.96574529   359.85522036
 H     10   9   8     2.062115590961   121.14405152   179.94100471
 H     23  22  21     2.053559661073   126.70270962   179.06543881
 H     24  21  20     2.059189156545   104.46311322     8.95296214
 H     30  27  26     2.055827558576   123.87887131     0.23615241
 H     33  28  27     2.062186194510   121.25475997   180.38454545
 H     45  42  21     2.059062644783   119.82994715     2.39068993
 H     48  43  42     2.062540387456   121.09533937   179.09050294
 H     58  56  55     2.060679607270   126.15938548     3.23301934
 H     62  55  52     2.075555364561   108.05783651   315.44792266
 H     62  55  52     2.079638852318   107.31790130   200.36207666
 H     63  62  55     2.077879613315   110.73282585   298.32372612
 H     63  62  55     2.079154243465   110.62403011   178.99147530
 H     63  62  55     2.082082925761   110.42508551    58.80200977
 H     67  64  44     2.060975463389   120.13154034   359.87677835
 H     68  67  64     2.066755590026   119.20619414   180.93741977
 H     70  69  68     2.067238567815   119.48511580   178.70502186
 H     71  70  69     2.062713967211   119.30662309   182.01558771
 H     72  61  44     2.062167270094   119.94966570     1.09686686
 H     73  72  61     2.066299242677   119.49316043   181.00867144
 H     75  74  73     2.066675510964   119.58168437   179.36971650
 H     76  75  74     2.061244736837   119.53265034   181.72067836
 H     77  66  49     2.063918357079   119.48931839   359.83381820
 H     78  77  66     2.066209099677   119.43039171   180.01618903
 H     80  79  78     2.067068470779   119.56655362   179.45361124
 H     81  80  79     2.058889237293   119.00974823   180.73368864
 H     82  65  49     2.056233593381   120.27061009     2.63959494
 H     83  82  65     2.066866889654   118.77931398   179.40056915
 H     85  84  83     2.065972498076   119.47244376   180.52839294
 H     86  85  84     2.058747356285   118.33678522   178.40827841
 H     87  69  68     2.083537491808   109.08817225   147.34440673
 H     87  69  68     2.083219278414   109.23068101    31.45684743
 H     88  87  69     2.081443123683   111.04264032   299.11976266
 H     88  87  69     2.080361529334   111.21561620   178.75732898
 H     88  87  69     2.081730960148   110.99964522    58.62945655
 H     89  74  73     2.085402257732   108.94657455   139.64133659
 H     89  74  73     2.084143986878   108.87020132    24.15196363
 H     90  89  74     2.081954944300   111.08681643   301.48127732
 H     90  89  74     2.080387334560   110.86421275   181.49833163
 H     90  89  74     2.082340853975   110.98834656    61.38435234
 H     91  84  83     2.082318254444   109.18131477   164.16242315
 H     91  84  83     2.085059609106   109.31382786    48.33560681
 H     92  91  84     2.082186353714   111.02221533   301.32581010
 H     92  91  84     2.081718877992   111.06788627   180.94043663
 H     92  91  84     2.081217697524   111.22109378    60.83128454
 H     93  79  78     2.083417143212   109.56805227   343.26199106
 H     93  79  78     2.086311466584   109.31542355   227.00767186
 H     94  93  79     2.082540741118   110.86720973   299.90518018
 H     94  93  79     2.081856105364   111.38668501   179.46080135
 H     94  93  79     2.082613367888   110.92198470    59.32863184

---------------------
BASIS SET INFORMATION
---------------------
There are 6 groups of distinct atoms

 Group   1 Type C   : 7s4p1d contracted to 3s2p1d pattern {511/31/1}
 Group   2 Type F   : 7s4p1d contracted to 3s2p1d pattern {511/31/1}
 Group   3 Type O   : 7s4p1d contracted to 3s2p1d pattern {511/31/1}
 Group   4 Type N   : 7s4p1d contracted to 3s2p1d pattern {511/31/1}
 Group   5 Type S   : 10s7p1d contracted to 4s3p1d pattern {5311/511/1}
 Group   6 Type H   : 4s1p contracted to 2s1p pattern {31/1}

Atom   0C    basis set group =>   1
Atom   1C    basis set group =>   1
Atom   2C    basis set group =>   1
Atom   3C    basis set group =>   1
Atom   4C    basis set group =>   1
Atom   5C    basis set group =>   1
Atom   6C    basis set group =>   1
Atom   7C    basis set group =>   1
Atom   8C    basis set group =>   1
Atom   9C    basis set group =>   1
Atom  10F    basis set group =>   2
Atom  11F    basis set group =>   2
Atom  12O    basis set group =>   3
Atom  13C    basis set group =>   1
Atom  14C    basis set group =>   1
Atom  15C    basis set group =>   1
Atom  16N    basis set group =>   4
Atom  17N    basis set group =>   4
Atom  18C    basis set group =>   1
Atom  19S    basis set group =>   5
Atom  20C    basis set group =>   1
Atom  21C    basis set group =>   1
Atom  22C    basis set group =>   1
Atom  23C    basis set group =>   1
Atom  24C    basis set group =>   1
Atom  25C    basis set group =>   1
Atom  26C    basis set group =>   1
Atom  27C    basis set group =>   1
Atom  28C    basis set group =>   1
Atom  29C    basis set group =>   1
Atom  30C    basis set group =>   1
Atom  31C    basis set group =>   1
Atom  32C    basis set group =>   1
Atom  33F    basis set group =>   2
Atom  34F    basis set group =>   2
Atom  35O    basis set group =>   3
Atom  36C    basis set group =>   1
Atom  37C    basis set group =>   1
Atom  38C    basis set group =>   1
Atom  39N    basis set group =>   4
Atom  40N    basis set group =>   4
Atom  41C    basis set group =>   1
Atom  42C    basis set group =>   1
Atom  43C    basis set group =>   1
Atom  44C    basis set group =>   1
Atom  45C    basis set group =>   1
Atom  46C    basis set group =>   1
Atom  47C    basis set group =>   1
Atom  48C    basis set group =>   1
Atom  49C    basis set group =>   1
Atom  50C    basis set group =>   1
Atom  51C    basis set group =>   1
Atom  52C    basis set group =>   1
Atom  53S    basis set group =>   5
Atom  54N    basis set group =>   4
Atom  55C    basis set group =>   1
Atom  56C    basis set group =>   1
Atom  57C    basis set group =>   1
Atom  58C    basis set group =>   1
Atom  59S    basis set group =>   5
Atom  60C    basis set group =>   1
Atom  61C    basis set group =>   1
Atom  62C    basis set group =>   1
Atom  63C    basis set group =>   1
Atom  64C    basis set group =>   1
Atom  65C    basis set group =>   1
Atom  66C    basis set group =>   1
Atom  67C    basis set group =>   1
Atom  68C    basis set group =>   1
Atom  69C    basis set group =>   1
Atom  70C    basis set group =>   1
Atom  71C    basis set group =>   1
Atom  72C    basis set group =>   1
Atom  73C    basis set group =>   1
Atom  74C    basis set group =>   1
Atom  75C    basis set group =>   1
Atom  76C    basis set group =>   1
Atom  77C    basis set group =>   1
Atom  78C    basis set group =>   1
Atom  79C    basis set group =>   1
Atom  80C    basis set group =>   1
Atom  81C    basis set group =>   1
Atom  82C    basis set group =>   1
Atom  83C    basis set group =>   1
Atom  84C    basis set group =>   1
Atom  85C    basis set group =>   1
Atom  86C    basis set group =>   1
Atom  87C    basis set group =>   1
Atom  88C    basis set group =>   1
Atom  89C    basis set group =>   1
Atom  90C    basis set group =>   1
Atom  91C    basis set group =>   1
Atom  92C    basis set group =>   1
Atom  93C    basis set group =>   1
Atom  94H    basis set group =>   6
Atom  95H    basis set group =>   6
Atom  96H    basis set group =>   6
Atom  97H    basis set group =>   6
Atom  98H    basis set group =>   6
Atom  99H    basis set group =>   6
Atom 100H    basis set group =>   6
Atom 101H    basis set group =>   6
Atom 102H    basis set group =>   6
Atom 103H    basis set group =>   6
Atom 104H    basis set group =>   6
Atom 105H    basis set group =>   6
Atom 106H    basis set group =>   6
Atom 107H    basis set group =>   6
Atom 108H    basis set group =>   6
Atom 109H    basis set group =>   6
Atom 110H    basis set group =>   6
Atom 111H    basis set group =>   6
Atom 112H    basis set group =>   6
Atom 113H    basis set group =>   6
Atom 114H    basis set group =>   6
Atom 115H    basis set group =>   6
Atom 116H    basis set group =>   6
Atom 117H    basis set group =>   6
Atom 118H    basis set group =>   6
Atom 119H    basis set group =>   6
Atom 120H    basis set group =>   6
Atom 121H    basis set group =>   6
Atom 122H    basis set group =>   6
Atom 123H    basis set group =>   6
Atom 124H    basis set group =>   6
Atom 125H    basis set group =>   6
Atom 126H    basis set group =>   6
Atom 127H    basis set group =>   6
Atom 128H    basis set group =>   6
Atom 129H    basis set group =>   6
Atom 130H    basis set group =>   6
Atom 131H    basis set group =>   6
Atom 132H    basis set group =>   6
Atom 133H    basis set group =>   6
Atom 134H    basis set group =>   6
Atom 135H    basis set group =>   6
Atom 136H    basis set group =>   6
Atom 137H    basis set group =>   6
Atom 138H    basis set group =>   6
Atom 139H    basis set group =>   6
Atom 140H    basis set group =>   6
Atom 141H    basis set group =>   6
Atom 142H    basis set group =>   6
Atom 143H    basis set group =>   6
Atom 144H    basis set group =>   6
---------------------------------
AUXILIARY/J BASIS SET INFORMATION
---------------------------------
There are 6 groups of distinct atoms

 Group   1 Type C   : 12s5p4d2f1g contracted to 6s4p3d1f1g pattern {711111/2111/211/2/1}
 Group   2 Type F   : 12s5p4d2f1g contracted to 6s4p3d1f1g pattern {711111/2111/211/2/1}
 Group   3 Type O   : 12s5p4d2f1g contracted to 6s4p3d1f1g pattern {711111/2111/211/2/1}
 Group   4 Type N   : 12s5p4d2f1g contracted to 6s4p3d1f1g pattern {711111/2111/211/2/1}
 Group   5 Type S   : 14s5p5d2f1g contracted to 8s4p3d1f1g pattern {71111111/2111/311/2/1}
 Group   6 Type H   : 5s2p1d contracted to 3s1p1d pattern {311/2/1}

Atom   0C    basis set group =>   1
Atom   1C    basis set group =>   1
Atom   2C    basis set group =>   1
Atom   3C    basis set group =>   1
Atom   4C    basis set group =>   1
Atom   5C    basis set group =>   1
Atom   6C    basis set group =>   1
Atom   7C    basis set group =>   1
Atom   8C    basis set group =>   1
Atom   9C    basis set group =>   1
Atom  10F    basis set group =>   2
Atom  11F    basis set group =>   2
Atom  12O    basis set group =>   3
Atom  13C    basis set group =>   1
Atom  14C    basis set group =>   1
Atom  15C    basis set group =>   1
Atom  16N    basis set group =>   4
Atom  17N    basis set group =>   4
Atom  18C    basis set group =>   1
Atom  19S    basis set group =>   5
Atom  20C    basis set group =>   1
Atom  21C    basis set group =>   1
Atom  22C    basis set group =>   1
Atom  23C    basis set group =>   1
Atom  24C    basis set group =>   1
Atom  25C    basis set group =>   1
Atom  26C    basis set group =>   1
Atom  27C    basis set group =>   1
Atom  28C    basis set group =>   1
Atom  29C    basis set group =>   1
Atom  30C    basis set group =>   1
Atom  31C    basis set group =>   1
Atom  32C    basis set group =>   1
Atom  33F    basis set group =>   2
Atom  34F    basis set group =>   2
Atom  35O    basis set group =>   3
Atom  36C    basis set group =>   1
Atom  37C    basis set group =>   1
Atom  38C    basis set group =>   1
Atom  39N    basis set group =>   4
Atom  40N    basis set group =>   4
Atom  41C    basis set group =>   1
Atom  42C    basis set group =>   1
Atom  43C    basis set group =>   1
Atom  44C    basis set group =>   1
Atom  45C    basis set group =>   1
Atom  46C    basis set group =>   1
Atom  47C    basis set group =>   1
Atom  48C    basis set group =>   1
Atom  49C    basis set group =>   1
Atom  50C    basis set group =>   1
Atom  51C    basis set group =>   1
Atom  52C    basis set group =>   1
Atom  53S    basis set group =>   5
Atom  54N    basis set group =>   4
Atom  55C    basis set group =>   1
Atom  56C    basis set group =>   1
Atom  57C    basis set group =>   1
Atom  58C    basis set group =>   1
Atom  59S    basis set group =>   5
Atom  60C    basis set group =>   1
Atom  61C    basis set group =>   1
Atom  62C    basis set group =>   1
Atom  63C    basis set group =>   1
Atom  64C    basis set group =>   1
Atom  65C    basis set group =>   1
Atom  66C    basis set group =>   1
Atom  67C    basis set group =>   1
Atom  68C    basis set group =>   1
Atom  69C    basis set group =>   1
Atom  70C    basis set group =>   1
Atom  71C    basis set group =>   1
Atom  72C    basis set group =>   1
Atom  73C    basis set group =>   1
Atom  74C    basis set group =>   1
Atom  75C    basis set group =>   1
Atom  76C    basis set group =>   1
Atom  77C    basis set group =>   1
Atom  78C    basis set group =>   1
Atom  79C    basis set group =>   1
Atom  80C    basis set group =>   1
Atom  81C    basis set group =>   1
Atom  82C    basis set group =>   1
Atom  83C    basis set group =>   1
Atom  84C    basis set group =>   1
Atom  85C    basis set group =>   1
Atom  86C    basis set group =>   1
Atom  87C    basis set group =>   1
Atom  88C    basis set group =>   1
Atom  89C    basis set group =>   1
Atom  90C    basis set group =>   1
Atom  91C    basis set group =>   1
Atom  92C    basis set group =>   1
Atom  93C    basis set group =>   1
Atom  94H    basis set group =>   6
Atom  95H    basis set group =>   6
Atom  96H    basis set group =>   6
Atom  97H    basis set group =>   6
Atom  98H    basis set group =>   6
Atom  99H    basis set group =>   6
Atom 100H    basis set group =>   6
Atom 101H    basis set group =>   6
Atom 102H    basis set group =>   6
Atom 103H    basis set group =>   6
Atom 104H    basis set group =>   6
Atom 105H    basis set group =>   6
Atom 106H    basis set group =>   6
Atom 107H    basis set group =>   6
Atom 108H    basis set group =>   6
Atom 109H    basis set group =>   6
Atom 110H    basis set group =>   6
Atom 111H    basis set group =>   6
Atom 112H    basis set group =>   6
Atom 113H    basis set group =>   6
Atom 114H    basis set group =>   6
Atom 115H    basis set group =>   6
Atom 116H    basis set group =>   6
Atom 117H    basis set group =>   6
Atom 118H    basis set group =>   6
Atom 119H    basis set group =>   6
Atom 120H    basis set group =>   6
Atom 121H    basis set group =>   6
Atom 122H    basis set group =>   6
Atom 123H    basis set group =>   6
Atom 124H    basis set group =>   6
Atom 125H    basis set group =>   6
Atom 126H    basis set group =>   6
Atom 127H    basis set group =>   6
Atom 128H    basis set group =>   6
Atom 129H    basis set group =>   6
Atom 130H    basis set group =>   6
Atom 131H    basis set group =>   6
Atom 132H    basis set group =>   6
Atom 133H    basis set group =>   6
Atom 134H    basis set group =>   6
Atom 135H    basis set group =>   6
Atom 136H    basis set group =>   6
Atom 137H    basis set group =>   6
Atom 138H    basis set group =>   6
Atom 139H    basis set group =>   6
Atom 140H    basis set group =>   6
Atom 141H    basis set group =>   6
Atom 142H    basis set group =>   6
Atom 143H    basis set group =>   6
Atom 144H    basis set group =>   6
------------------------------------------------------------------------------
                           ORCA GTO INTEGRAL CALCULATION
                           -- RI-GTO INTEGRALS CHOSEN --
------------------------------------------------------------------------------

                         BASIS SET STATISTICS AND STARTUP INFO

Gaussian basis set:
 # of primitive gaussian shells          ... 1401
 # of primitive gaussian functions       ... 2649
 # of contracted shells                  ...  723
 # of contracted basis functions         ... 1583
 Highest angular momentum                ...    2
 Maximum contraction depth               ...    5
Auxiliary gaussian basis set:
 # of primitive gaussian shells          ... 2673
 # of primitive gaussian functions       ... 7417
 # of contracted shells                  ... 1671
 # of contracted aux-basis functions     ... 5173
 Highest angular momentum                ...    4
 Maximum contraction depth               ...    7
Ratio of auxiliary to basis functions    ...  3.27
Integral package used                  ... LIBINT
 One Electron integrals                  ... done
 Ordering auxiliary basis shells         ... done
 Integral threshhold             Thresh  ...  2.500e-11
 Primitive cut-off               TCut    ...  2.500e-12
 Pre-screening matrix                    ... done
 Shell pair data                         ... 
 Ordering of the shell pairs             ... done (   0.016 sec) 76715 of 261726 pairs
 Determination of significant pairs      ... done (   0.000 sec)
 Creation of shell pair data             ... done (   0.010 sec)
 Storage of shell pair data              ... done (   0.014 sec)
 Shell pair data done in (   0.041 sec)
 Computing two index integrals           ... done
 Cholesky decomposition of the V-matrix  ... done


Timings:
 Total evaluation time                   ...   3.985 sec (  0.066 min)
 One electron matrix time                ...   1.132 sec (  0.019 min) = 28.4%
 Schwartz matrix evaluation time         ...   1.101 sec (  0.018 min) = 27.6%
 Two index repulsion integral time       ...   0.641 sec (  0.011 min) = 16.1%
 Cholesky decomposition of V             ...   1.052 sec (  0.018 min) = 26.4%
 Three index repulsion integral time     ...   0.000 sec (  0.000 min) =  0.0%

-------------------------------------------------------------------------------
                                 ORCA SCF
-------------------------------------------------------------------------------

------------
SCF SETTINGS
------------
Hamiltonian:
 Density Functional     Method          .... DFT(GTOs)
 Exchange Functional    Exchange        .... WB88
 Correlation Functional Correlation     .... LYP
 LDA part of GGA corr.  LDAOpt          .... VWN-5
 Gradients option       PostSCFGGA      .... off
 Hybrid DFT is turned on
   Fraction HF Exchange ScalHFX         ....  0.190000
   Scaling of DF-GGA-X  ScalDFX         ....  0.350000
   Scaling of DF-GGA-C  ScalDFC         ....  0.810000
   Scaling of DF-LDA-C  ScalLDAC        ....  1.000000
   Perturbative correction              ....  0.000000
   Density functional embedding theory  .... OFF
 Long-range corrected/Screened/Range-Separated Hybrid DFT is turned on
   Amount of maximum screened exact exchange              ....  0.460000
   Range separation parameter mu (erf(mu*r12)/r12)        ....  0.330000
 RI-approximation to the Coulomb term is turned on
   Number of auxiliary basis functions  .... 5173
   RIJ-COSX (HFX calculated with COS-X)).... on


General Settings:
 Integral files         IntName         .... TPIC-4F
 Hartree-Fock type      HFTyp           .... RHF
 Total Charge           Charge          ....    0
 Multiplicity           Mult            ....    1
 Number of Electrons    NEL             ....  666
 Basis Dimension        Dim             .... 1583
 Nuclear Repulsion      ENuc            ....  15930.9329663637 Eh

Convergence Acceleration:
 DIIS                   CNVDIIS         .... on
   Start iteration      DIISMaxIt       ....    12
   Startup error        DIISStart       ....  0.200000
   # of expansion vecs  DIISMaxEq       ....     5
   Bias factor          DIISBfac        ....   1.050
   Max. coefficient     DIISMaxC        ....  10.000
 Newton-Raphson         CNVNR           .... off
 SOSCF                  CNVSOSCF        .... on
   Start iteration      SOSCFMaxIt      ....   150
   Startup grad/error   SOSCFStart      ....  0.003300
 Level Shifting         CNVShift        .... on
   Level shift para.    LevelShift      ....    0.2500
   Turn off err/grad.   ShiftErr        ....    0.0010
 Zerner damping         CNVZerner       .... off
 Static damping         CNVDamp         .... on
   Fraction old density DampFac         ....    0.7000
   Max. Damping (<1)    DampMax         ....    0.9800
   Min. Damping (>=0)   DampMin         ....    0.0000
   Turn off err/grad.   DampErr         ....    0.1000
 Fernandez-Rico         CNVRico         .... off

SCF Procedure:
 Maximum # iterations   MaxIter         ....   125
 SCF integral mode      SCFMode         .... Direct
   Integral package                     .... LIBINT
 Reset frequency        DirectResetFreq ....    20
 Integral Threshold     Thresh          ....  2.500e-11 Eh
 Primitive CutOff       TCut            ....  2.500e-12 Eh

Convergence Tolerance:
 Convergence Check Mode ConvCheckMode   .... Total+1el-Energy
 Convergence forced     ConvForced      .... 1
 Energy Change          TolE            ....  1.000e-08 Eh
 1-El. energy change                    ....  1.000e-05 Eh
 Orbital Gradient       TolG            ....  1.000e-05
 Orbital Rotation angle TolX            ....  1.000e-05
 DIIS Error             TolErr          ....  5.000e-07


Diagonalization of the overlap matrix:
Smallest eigenvalue                        ... 1.552e-04
Time for diagonalization                   ...    0.702 sec
Threshold for overlap eigenvalues          ... 1.000e-08
Number of eigenvalues below threshold      ... 0
Time for construction of square roots      ...    0.309 sec
Total time needed                          ...    1.019 sec

-------------------
DFT GRID GENERATION
-------------------

General Integration Accuracy     IntAcc      ...  4.670
Radial Grid Type                 RadialGrid  ... Gauss-Chebyshev
Angular Grid (max. acc.)         AngularGrid ... Lebedev-302
Angular grid pruning method      GridPruning ... 3 (G Style)
Weight generation scheme         WeightScheme... Becke
Basis function cutoff            BFCut       ...    1.0000e-11
Integration weight cutoff        WCut        ...    1.0000e-14
Grids for H and He will be reduced by one unit

# of grid points (after initial pruning)     ... 759164 (   2.0 sec)
# of grid points (after weights+screening)   ... 638294 (  52.1 sec)
nearest neighbour list constructed           ...    0.0 sec
Grid point re-assignment to atoms done       ...    0.1 sec
Grid point division into batches done        ...    2.1 sec
Reduced shell lists constructed in   12.7 sec

Total number of grid points                  ...   638294
Total number of batches                      ...    10052
Average number of points per batch           ...       63
Average number of grid points per atom       ...     4402
Average number of shells per batch           ...   108.75 (15.04%)
Average number of basis functions per batch  ...   218.92 (13.83%)
Average number of large shells per batch     ...    62.23 (57.22%)
Average number of large basis fcns per batch ...   127.77 (58.36%)
Maximum spatial batch extension              ...  21.25, 21.76, 21.19 au
Average spatial batch extension              ...   2.08,  2.13,  2.03 au

Time for grid setup =   66.959 sec

------------------------------
INITIAL GUESS: MODEL POTENTIAL
------------------------------
Loading Hartree-Fock densities                     ... done
Calculating cut-offs                               ... done
Setting up the integral package                    ... done
Initializing the effective Hamiltonian             ... done
Starting the Coulomb interaction                   ... done (  17.2 sec)
Reading the grid                                   ... done
Mapping shells                                     ... done
Starting the XC term evaluation                    ... done (  11.8 sec)
  promolecular density results
     # of electrons  =    665.975786294
     EX              =   -587.820157438
     EC              =    -22.760955523
     EX+EC           =   -610.581112961
Transforming the Hamiltonian                       ... done (   0.3 sec)
Diagonalizing the Hamiltonian                      ... done (   0.7 sec)
Back transforming the eigenvectors                 ... done (   0.1 sec)
Now organizing SCF variables                       ... done
                      ------------------
                      INITIAL GUESS DONE (  97.5 sec)
                      ------------------
--------------------
COSX GRID GENERATION
--------------------

General Integration Accuracy     IntAcc      ...  3.340
Radial Grid Type                 RadialGrid  ... Gauss-Chebyshev
Angular Grid (max. acc.)         AngularGrid ... Lebedev-50
Angular grid pruning method      GridPruning ... 3 (G Style)
Weight generation scheme         WeightScheme... Becke
Basis function cutoff            BFCut       ...    1.0000e-11
Integration weight cutoff        WCut        ...    1.0000e-14
Grids for H and He will be reduced by one unit

# of grid points (after initial pruning)     ...  71148 (   0.1 sec)
# of grid points (after weights+screening)   ...  62709 (   4.8 sec)
nearest neighbour list constructed           ...    0.0 sec
Grid point re-assignment to atoms done       ...    0.0 sec
Grid point division into batches done        ...    0.0 sec
Reduced shell lists constructed in    1.4 sec

Total number of grid points                  ...    62709
Total number of batches                      ...     1062
Average number of points per batch           ...       59
Average number of grid points per atom       ...      432
Average number of shells per batch           ...   133.81 (18.51%)
Average number of basis functions per batch  ...   271.70 (17.16%)
Average number of large shells per batch     ...    76.02 (56.82%)
Average number of large basis fcns per batch ...   158.25 (58.25%)
Maximum spatial batch extension              ...  21.47, 26.92, 17.38 au
Average spatial batch extension              ...   4.46,  4.77,  4.03 au

Overlap Fitting                  UseSFitting ... on
Constructing numerical overlap ... done (      0.9 sec)
Inverting numerical overlap    ... done (      0.1 sec)
Obtaining analytic overlap     ... done (      0.0 sec)
Final contraction and storage  ... done (      0.1 sec)


General Integration Accuracy     IntAcc      ...  3.670
Radial Grid Type                 RadialGrid  ... Gauss-Chebyshev
Angular Grid (max. acc.)         AngularGrid ... Lebedev-50
Angular grid pruning method      GridPruning ... 3 (G Style)
Weight generation scheme         WeightScheme... Becke
Basis function cutoff            BFCut       ...    1.0000e-11
Integration weight cutoff        WCut        ...    1.0000e-14
Grids for H and He will be reduced by one unit

# of grid points (after initial pruning)     ...  89140 (   0.1 sec)
# of grid points (after weights+screening)   ...  78149 (   6.1 sec)
nearest neighbour list constructed           ...    0.0 sec
Grid point re-assignment to atoms done       ...    0.0 sec
Grid point division into batches done        ...    0.0 sec
Reduced shell lists constructed in    1.7 sec

Total number of grid points                  ...    78149
Total number of batches                      ...     1287
Average number of points per batch           ...       60
Average number of grid points per atom       ...      539
Average number of shells per batch           ...   130.62 (18.07%)
Average number of basis functions per batch  ...   265.04 (16.74%)
Average number of large shells per batch     ...    74.18 (56.79%)
Average number of large basis fcns per batch ...   154.22 (58.19%)
Maximum spatial batch extension              ...  27.71, 27.71, 18.86 au
Average spatial batch extension              ...   4.18,  4.44,  3.84 au

Overlap Fitting                  UseSFitting ... on
Constructing numerical overlap ... done (      1.0 sec)
Inverting numerical overlap    ... done (      0.1 sec)
Obtaining analytic overlap     ... done (      0.0 sec)
Final contraction and storage  ... done (      0.1 sec)


General Integration Accuracy     IntAcc      ...  4.010
Radial Grid Type                 RadialGrid  ... Gauss-Chebyshev
Angular Grid (max. acc.)         AngularGrid ... Lebedev-110
Angular grid pruning method      GridPruning ... 3 (G Style)
Weight generation scheme         WeightScheme... Becke
Basis function cutoff            BFCut       ...    1.0000e-11
Integration weight cutoff        WCut        ...    1.0000e-14
Grids for H and He will be reduced by one unit

# of grid points (after initial pruning)     ... 172372 (   0.3 sec)
# of grid points (after weights+screening)   ... 149750 (  11.7 sec)
nearest neighbour list constructed           ...    0.0 sec
Grid point re-assignment to atoms done       ...    0.0 sec
Grid point division into batches done        ...    0.1 sec
Reduced shell lists constructed in    2.9 sec

Total number of grid points                  ...   149750
Total number of batches                      ...     2411
Average number of points per batch           ...       62
Average number of grid points per atom       ...     1033
Average number of shells per batch           ...   123.45 (17.07%)
Average number of basis functions per batch  ...   250.12 (15.80%)
Average number of large shells per batch     ...    70.77 (57.33%)
Average number of large basis fcns per batch ...   146.78 (58.68%)
Maximum spatial batch extension              ...  25.81, 25.81, 20.30 au
Average spatial batch extension              ...   3.40,  3.54,  3.20 au

Overlap Fitting                  UseSFitting ... on
Constructing numerical overlap ... done (      1.8 sec)
Inverting numerical overlap    ... done (      0.1 sec)
Obtaining analytic overlap     ... done (      0.0 sec)
Final contraction and storage  ... done (      0.1 sec)

Time for X-Grid setup             =   33.752 sec
--------------
SCF ITERATIONS
--------------
ITER       Energy         Delta-E        Max-DP      RMS-DP      [F,P]     Damp
               ***  Starting incremental Fock matrix formation  ***
  0  -5090.4663582099   0.000000000000 0.15102528  0.00077987  0.2389459 0.7000
  1  -5091.1615763950  -0.695218185099 0.09110735  0.00055683  0.0961713 0.7000
                               ***Turning on DIIS***
  2  -5091.4723305300  -0.310754134978 0.16380711  0.00104104  0.0414746 0.0000
  3  -5091.9807307649  -0.508400234890 0.05283046  0.00039053  0.0508456 0.0000
  4  -5092.0700796088  -0.089348843932 0.01679254  0.00011728  0.0254473 0.0000
  5  -5092.0764264816  -0.006346872791 0.00678202  0.00004512  0.0100909 0.0000
                      *** Initiating the SOSCF procedure ***
                           *** Shutting down DIIS ***
                      *** Re-Reading the Fockian *** 
                      *** Removing any level shift *** 
ITER      Energy       Delta-E        Grad      Rot      Max-DP    RMS-DP
  6  -5092.07759021  -0.0011637268  0.002800  0.002800  0.002598  0.000024
               *** Restarting incremental Fock matrix formation ***
  7  -5092.07788614  -0.0002959267  0.001889  0.012022  0.002221  0.000025
  8  -5092.07809796  -0.0002118207  0.000651  0.011547  0.002552  0.000029
  9  -5092.07810690  -0.0000089428  0.000812  0.004110  0.001289  0.000011
 10  -5092.07815877  -0.0000518696  0.000197  0.001363  0.000635  0.000006
 11  -5092.07815648   0.0000022925  0.000165  0.000981  0.000356  0.000003
 12  -5092.07816213  -0.0000056529  0.000016  0.000107  0.000113  0.000001
 13  -5092.07816206   0.0000000723  0.000021  0.000054  0.000068  0.000001
 14  -5092.07816217  -0.0000001144  0.000004  0.000020  0.000024  0.000000
 15  -5092.07816218  -0.0000000076  0.000005  0.000017  0.000010  0.000000
                  ***Gradient check signals convergence***
              ***Rediagonalizing the Fockian in SOSCF/NRSCF***

               *****************************************************
               *                     SUCCESS                       *
[...]
   5   3.243     382.3   0.069494   0.074478  -17.625414  -7.904257     0.64 ( 126-> 128)    0.15 ( 127-> 129)    0.05 ( 127-> 128)
   6   3.455     358.9   0.014864   0.013271   5.315125   5.673603     0.81 ( 124-> 128)    0.10 ( 124-> 129)    0.05 ( 124-> 130)
   7   3.616     342.9   0.114651   0.123602  -75.459469  -76.702800     0.47 ( 123-> 128)    0.28 ( 126-> 129)    0.03 ( 122-> 129)
   8   3.680     336.9   0.011295   0.008171  25.812164  23.347455     0.32 ( 122-> 128)    0.23 ( 126-> 129)    0.20 ( 123-> 128)
   9   3.790     327.1   0.001725   0.001426   7.317053   6.202104     0.40 ( 108-> 128)    0.24 ( 108-> 130)    0.09 ( 108-> 129)
  10   3.799     326.3   0.008922   0.006499  -18.602082  -17.708562     0.36 ( 125-> 129)    0.29 ( 125-> 128)    0.05 ( 125-> 130)
  11   3.824     324.2   0.010287   0.010792   5.767073   4.929078     0.38 ( 111-> 131)    0.19 ( 111-> 128)    0.18 ( 111-> 129)
  12   3.865     320.8   0.244953   0.220822  -3.687947  -3.387412     0.41 ( 118-> 128)    0.11 ( 118-> 129)    0.07 ( 127-> 130)
  13   3.930     315.5   0.231430   0.206538  39.377426  34.654567     0.18 ( 120-> 129)    0.18 ( 120-> 128)    0.07 ( 118-> 128)
  14   3.986     311.0   0.007637   0.005497  -27.699807  -23.730451     0.24 ( 111-> 131)    0.23 ( 111-> 129)    0.09 ( 111-> 128)
  15   3.989     310.8   0.026040   0.019286  -11.209890  -11.089032     0.63 ( 119-> 128)    0.14 ( 118-> 128)    0.06 ( 119-> 129)
  16   3.996     310.3   0.018810   0.014374  15.085856   9.258760     0.15 ( 120-> 128)    0.15 ( 122-> 128)    0.13 ( 111-> 129)
  17   4.025     308.0   0.005692   0.004935  -2.396368  -2.163873     0.68 ( 121-> 128)    0.07 ( 122-> 128)    0.04 ( 120-> 128)
  18   4.033     307.4   0.017293   0.015790  51.988906  50.752993     0.50 ( 127-> 132)    0.11 ( 126-> 130)    0.10 ( 127-> 130)
  19   4.042     306.8   0.001357   0.001131  -6.898666  -6.443802     0.43 ( 108-> 130)    0.18 ( 108-> 128)    0.14 ( 108-> 129)
  20   4.111     301.6   0.005804   0.004221  -1.077126  -0.318028     0.75 ( 125-> 131)    0.10 ( 125-> 130)    0.04 ( 125-> 128)
  21   4.198     295.4   0.136810   0.126672  28.827173  27.182859     0.23 ( 126-> 130)    0.16 ( 127-> 132)    0.13 ( 116-> 128)
  22   4.214     294.2   0.030606   0.027487   4.754127   6.348081     0.66 ( 116-> 128)    0.08 ( 116-> 129)    0.05 ( 126-> 130)
  23   4.255     291.4   0.039050   0.029285  -4.067617  -3.412534     0.27 ( 113-> 128)    0.19 ( 127-> 134)    0.05 ( 115-> 128)
  24   4.329     286.4   0.013492   0.010136   6.177621   5.447151     0.41 ( 124-> 129)    0.06 ( 113-> 128)    0.05 ( 123-> 129)
  25   4.378     283.2   0.014141   0.013063  -24.513042  -20.521361     0.61 ( 117-> 128)    0.04 ( 120-> 128)    0.04 ( 122-> 129)
  26   4.418     280.6   0.044316   0.037375  -5.411433  -10.232525     0.24 ( 124-> 129)    0.12 ( 126-> 131)    0.07 ( 115-> 128)
  27   4.421     280.4   0.049166   0.039518   1.856660   2.026404     0.26 ( 112-> 128)    0.12 ( 113-> 128)    0.09 ( 127-> 134)
  28   4.443     279.1   0.100111   0.092819  -32.073083  -29.216932     0.18 ( 122-> 129)    0.15 ( 126-> 131)    0.14 ( 123-> 129)
  29   4.456     278.2   0.188056   0.158354  -10.467204  -4.677399     0.20 ( 115-> 128)    0.15 ( 127-> 134)    0.08 ( 126-> 131)
  30   4.502     275.4   0.013933   0.013330  -33.159125  -28.103893     0.21 ( 123-> 129)    0.20 ( 121-> 129)    0.16 ( 122-> 129)
  31   4.520     274.3   0.228628   0.198996  149.981760  141.420515     0.13 ( 121-> 129)    0.12 ( 118-> 130)    0.08 ( 115-> 128)
  32   4.568     271.4   0.042722   0.037027  -77.157219  -67.947035     0.29 ( 114-> 128)    0.06 ( 115-> 128)    0.05 ( 120-> 131)
  33   4.579     270.7   0.024780   0.020966   5.039831   5.602031     0.42 ( 124-> 130)    0.13 ( 121-> 129)    0.08 ( 123-> 130)
  34   4.584     270.5   0.034372   0.029512  -20.535874  -18.220523     0.59 ( 114-> 128)    0.03 ( 120-> 131)    0.03 ( 115-> 128)
  35   4.618     268.5   0.093672   0.074051  17.347356  16.262446     0.20 ( 124-> 130)    0.18 ( 121-> 129)    0.14 ( 123-> 129)
  36   4.669     265.6   0.005536   0.003755   9.390447   8.604627     0.14 ( 112-> 128)    0.11 ( 123-> 130)    0.10 ( 113-> 128)
  37   4.700     263.8   0.536593   0.410094  31.981474  22.107972     0.18 ( 118-> 130)    0.14 ( 110-> 128)    0.06 ( 112-> 128)
  38   4.717     262.8   0.041918   0.031910  22.961605  22.094862     0.11 ( 121-> 129)    0.11 ( 122-> 129)    0.11 ( 123-> 130)
  39   4.743     261.4   0.087846   0.064614  -39.439093  -42.440981     0.21 ( 109-> 128)    0.09 ( 120-> 131)    0.08 ( 110-> 129)
  40   4.807     257.9   0.056232   0.044373  -58.874567  -55.795541     0.18 ( 127-> 133)    0.11 ( 107-> 128)    0.10 ( 126-> 132)
  41   4.818     257.4   0.120512   0.092691  41.321217  33.875451     0.26 ( 125-> 130)    0.10 ( 127-> 133)    0.07 ( 125-> 132)
  42   4.839     256.2   0.172038   0.128365  15.470411  10.957796     0.34 ( 125-> 130)    0.09 ( 127-> 133)    0.08 ( 117-> 129)
  43   4.852     255.5   0.045610   0.035379  22.328578  17.725065     0.17 ( 117-> 129)    0.12 ( 120-> 129)    0.11 ( 127-> 133)
  44   4.901     253.0   0.003092   0.002250   2.149362   1.958318     0.36 ( 119-> 129)    0.31 ( 117-> 129)    0.11 ( 118-> 129)
  45   4.948     250.6   0.007164   0.004830   6.715746   7.266929     0.32 ( 115-> 129)    0.12 ( 117-> 129)    0.09 ( 119-> 129)
  46   4.988     248.6   0.010329   0.008319  19.236226  15.801831     0.71 ( 127-> 136)    0.08 ( 127-> 135)    0.03 ( 109-> 128)

-----------------------------------------------------------------------------
         ABSORPTION SPECTRUM VIA TRANSITION ELECTRIC DIPOLE MOMENTS
-----------------------------------------------------------------------------
State   Energy  Wavelength   fosc         T2         TX        TY        TZ  
        (cm-1)    (nm)                  (au**2)     (au)      (au)      (au) 
-----------------------------------------------------------------------------
   0   17473.4    572.3   3.014683103  56.79881  -5.64415  -4.68969   1.71732
   1   20909.1    478.3   0.028810776   0.45362  -0.16098   0.56537   0.32872
   2   24743.5    404.1   0.056596883   0.75302   0.62492   0.57082  -0.19147
   3   25291.6    395.4   0.049577178   0.64533  -0.40899  -0.30171  -0.62212
   4   25787.6    387.8   0.087563477   1.11786   0.24751   0.05705   1.02633
   5   26159.3    382.3   0.069494169   0.87458  -0.56222  -0.73845   0.11478
   6   27865.3    358.9   0.014863968   0.17561   0.26797   0.15505  -0.28242
   7   29167.1    342.9   0.114651455   1.29408  -0.98145  -0.57508  -0.01106
   8   29679.5    336.9   0.011295483   0.12529  -0.09563  -0.30030  -0.16114
   9   30567.5    327.1   0.001724794   0.01858   0.07274   0.11418   0.01571
  10   30643.0    326.3   0.008921520   0.09585  -0.17081  -0.22600  -0.12489
  11   30846.4    324.2   0.010286678   0.10979  -0.24055  -0.19727  -0.11404
  12   31169.7    320.8   0.244952982   2.58718   0.64071   0.60754  -1.34445
  13   31695.1    315.5   0.231430212   2.40383   0.64256   0.64052   1.25725
  14   32151.4    311.0   0.007636647   0.07819  -0.02446  -0.07019   0.26957
  15   32173.4    310.8   0.026040317   0.26646   0.13944   0.25890   0.42425
  16   32226.6    310.3   0.018809652   0.19215   0.05680   0.05282  -0.43143
  17   32467.5    308.0   0.005691701   0.05771  -0.09916  -0.18962  -0.10920
  18   32528.2    307.4   0.017292629   0.17502   0.22073   0.31421   0.16602
  19   32598.7    306.8   0.001357066   0.01370  -0.06032  -0.10033   0.00016
  20   33160.2    301.6   0.005803681   0.05762  -0.16693  -0.13851   0.10281
  21   33857.4    295.4   0.136809617   1.33027  -0.52682  -0.50764   0.89164
  22   33985.1    294.2   0.030606335   0.29648   0.26578   0.04673  -0.47293
  23   34321.2    291.4   0.039049916   0.37457   0.00758  -0.10311   0.60323
  24   34919.7    286.4   0.013492125   0.12720  -0.02034   0.09247   0.34385
  25   35307.0    283.2   0.014140650   0.13185  -0.14118  -0.24012   0.23294
  26   35634.7    280.6   0.044315667   0.40941   0.35119   0.37914   0.37726
  27   35661.2    280.4   0.049166132   0.45389  -0.34333  -0.23464   0.53005
  28   35832.7    279.1   0.100111305   0.91977  -0.44071  -0.53991  -0.65882
  29   35942.6    278.2   0.188056408   1.72248  -0.04206   0.00422   1.31175
  30   36314.2    275.4   0.013933276   0.12631   0.02517   0.10568  -0.33840
  31   36453.7    274.3   0.228628071   2.06473  -0.04548  -0.18169  -1.42466
  32   36847.1    271.4   0.042722265   0.38170   0.02816   0.13503   0.60223
  33   36935.9    270.7   0.024780174   0.22087  -0.07118  -0.04417  -0.46244
  34   36969.1    270.5   0.034372379   0.30609   0.00352  -0.06624  -0.54926
  35   37248.6    268.5   0.093672271   0.82790   0.03973   0.11890   0.90121
  36   37654.2    265.6   0.005535784   0.04840   0.00980   0.04813   0.21445
  37   37906.7    263.8   0.536592621   4.66020  -0.51707  -0.57663  -2.01503
  38   38048.5    262.8   0.041917687   0.36269  -0.33379  -0.34073  -0.36767
  39   38257.9    261.4   0.087845640   0.75592   0.59702   0.32452  -0.54238
  40   38768.9    257.9   0.056232270   0.47750   0.42421   0.35292   0.41593
  41   38857.1    257.4   0.120511713   1.02102   0.52492   0.29320  -0.81210
  42   39031.7    256.2   0.172038275   1.45105  -0.06341   0.02367   1.20269
  43   39135.9    255.5   0.045610453   0.38368   0.01984   0.22180   0.57800
  44   39528.0    253.0   0.003091654   0.02575  -0.07710   0.01859   0.13949
  45   39904.4    250.6   0.007163798   0.05910   0.06453  -0.10219   0.21094
  46   40229.3    248.6   0.010329317   0.08453   0.11841   0.20383  -0.17018

-----------------------------------------------------------------------------
         ABSORPTION SPECTRUM VIA TRANSITION VELOCITY DIPOLE MOMENTS
-----------------------------------------------------------------------------
State   Energy  Wavelength   fosc         P2         PX        PY        PZ  
        (cm-1)    (nm)                  (au**2)     (au)      (au)      (au) 
-----------------------------------------------------------------------------
   0   17473.4    572.3   3.442003525   0.41105  -0.48160  -0.39819   0.14337
   1   20909.1    478.3   0.033647946   0.00481  -0.01919   0.05521   0.03731
   2   24743.5    404.1   0.050428972   0.00853   0.06640   0.06090  -0.02025
   3   25291.6    395.4   0.037442525   0.00647  -0.04201  -0.03118  -0.06112
   4   25787.6    387.8   0.084006462   0.01481   0.03234   0.00992   0.11688
   5   26159.3    382.3   0.074478082   0.01332  -0.07044  -0.09097   0.00889
   6   27865.3    358.9   0.013271453   0.00253   0.03271   0.01992  -0.03257
   7   29167.1    342.9   0.123601525   0.02464  -0.13438  -0.08112   0.00132
   8   29679.5    336.9   0.008171076   0.00166  -0.00277  -0.03341  -0.02310
   9   30567.5    327.1   0.001425899   0.00030   0.00810   0.01507   0.00223
  10   30643.0    326.3   0.006498782   0.00136  -0.01825  -0.02653  -0.01800
  11   30846.4    324.2   0.010792294   0.00228  -0.03406  -0.02872  -0.01703
  12   31169.7    320.8   0.220821665   0.04704   0.08647   0.08331  -0.18062
  13   31695.1    315.5   0.206537665   0.04474   0.08843   0.08801   0.17081
  14   32151.4    311.0   0.005496508   0.00121  -0.00220  -0.00888   0.03353
  15   32173.4    310.8   0.019286065   0.00424   0.01802   0.03369   0.05274
  16   32226.6    310.3   0.014373939   0.00317   0.00258   0.00269  -0.05614
  17   32467.5    308.0   0.004935029   0.00110  -0.01480  -0.02622  -0.01374
  18   32528.2    307.4   0.015790189   0.00351   0.03081   0.04270   0.02717
  19   32598.7    306.8   0.001130502   0.00025  -0.00832  -0.01349  -0.00079
  20   33160.2    301.6   0.004220789   0.00096  -0.02227  -0.01872   0.01050
  21   33857.4    295.4   0.126671981   0.02931  -0.07849  -0.07404   0.13292
  22   33985.1    294.2   0.027486755   0.00638   0.03983   0.00964  -0.06859
  23   34321.2    291.4   0.029284739   0.00687   0.00123  -0.01403   0.08168
  24   34919.7    286.4   0.010136495   0.00242  -0.00343   0.01232   0.04749
  25   35307.0    283.2   0.013063280   0.00315  -0.02359  -0.03811   0.03381
  26   35634.7    280.6   0.037375092   0.00910   0.05362   0.05802   0.05349
  27   35661.2    280.4   0.039518361   0.00963  -0.05103  -0.03628   0.07557
  28   35832.7    279.1   0.092818915   0.02273  -0.06846  -0.08430  -0.10459
  29   35942.6    278.2   0.158353844   0.03890  -0.00671  -0.00134   0.19711
  30   36314.2    275.4   0.013329790   0.00331   0.00710   0.01810  -0.05413
  31   36453.7    274.3   0.198996378   0.04958  -0.00666  -0.02661  -0.22097
  32   36847.1    271.4   0.037026935   0.00932   0.00570   0.02166   0.09393
  33   36935.9    270.7   0.020966250   0.00529  -0.00987  -0.00581  -0.07184
  34   36969.1    270.5   0.029512454   0.00746  -0.00151  -0.01182  -0.08553
  35   37248.6    268.5   0.074051444   0.01885   0.00671   0.01696   0.13608
  36   37654.2    265.6   0.003754680   0.00097  -0.00194   0.00481   0.03065
  37   37906.7    263.8   0.410094461   0.10624  -0.07954  -0.08842  -0.30348
  38   38048.5    262.8   0.031910031   0.00830  -0.04802  -0.04887  -0.06003
  39   38257.9    261.4   0.064613782   0.01689   0.09020   0.04743  -0.08068
  40   38768.9    257.9   0.044373081   0.01176   0.06936   0.05714   0.06068
  41   38857.1    257.4   0.092690537   0.02462   0.07989   0.04378  -0.12774
  42   39031.7    256.2   0.128365489   0.03424  -0.01160   0.00308   0.18466
  43   39135.9    255.5   0.035378901   0.00946   0.00228   0.03543   0.09057
  44   39528.0    253.0   0.002250466   0.00061  -0.01177   0.00205   0.02157
  45   39904.4    250.6   0.004829624   0.00132   0.00896  -0.01753   0.03049
  46   40229.3    248.6   0.008318520   0.00229   0.02093   0.03162  -0.02915

-------------------------------------------------------------------
                             CD SPECTRUM
-------------------------------------------------------------------
State   Energy Wavelength       R         MX        MY        MZ   
        (cm-1)   (nm)       (1e40*cgs)   (au)      (au)      (au)  
-------------------------------------------------------------------
   0   17473.4    572.3    -115.25784   1.39175  -1.00854   2.10472
   1   20909.1    478.3    124.39534  -0.08054  -0.21821  -1.26951
   2   24743.5    404.1    -16.72253  -1.36000   1.42360  -0.56518
   3   25291.6    395.4     11.33298   1.00098  -1.55515   0.17342
   4   25787.6    387.8    -43.01025  -0.32351   1.40455   0.17773
   5   26159.3    382.3    -17.62541   0.41850  -0.28014   0.89901
   6   27865.3    358.9      5.31513   0.02876  -0.24929  -0.02973
   7   29167.1    342.9    -75.45947  -0.37617   0.08789  -0.13340
   8   29679.5    336.9     25.81216   0.32400  -0.12859   0.72690
   9   30567.5    327.1      7.31705  -0.32600  -0.01667  -0.34540
  10   30643.0    326.3    -18.60208   1.14912  -1.35718   0.25243
  11   30846.4    324.2      5.76707   0.59391  -0.53151  -0.11879
  12   31169.7    320.8     -3.68795  -1.59368   0.32933  -0.62230
  13   31695.1    315.5     39.37743  -3.21813   5.18938  -1.13191
  14   32151.4    311.0    -27.69981   0.11855  -0.21243   0.39136
  15   32173.4    310.8    -11.20989  -0.46824   0.86798  -0.26369
  16   32226.6    310.3     15.08586  -0.41164  -0.13864   0.07717
  17   32467.5    308.0     -2.39637   0.25960  -0.28949   0.17387
  18   32528.2    307.4     51.98891   0.97076  -1.06988  -0.59428
  19   32598.7    306.8     -6.89867  -0.50425   0.01142  -0.02301
  20   33160.2    301.6     -1.07713   0.24610  -0.22377   0.14256
  21   33857.4    295.4     28.82717   0.60974   0.25313   0.36722
  22   33985.1    294.2      4.75413  -0.07384  -0.40125  -0.03850
  23   34321.2    291.4     -4.06762  -0.06119   0.85758   0.17597
  24   34919.7    286.4      6.17762  -0.36663   0.62382  -0.26565
  25   35307.0    283.2    -24.51304   0.56249  -0.20080   0.58034
  26   35634.7    280.6     -5.41143  -2.33365   2.98476  -0.76638
  27   35661.2    280.4      1.85666   1.13861  -0.74097   0.39465
  28   35832.7    279.1    -32.07308   2.57362  -3.70511   1.10827
  29   35942.6    278.2    -10.46720  -0.23398   1.77913   0.02062
  30   36314.2    275.4    -33.15913  -1.29222   1.00048  -0.19936
  31   36453.7    274.3    149.98176  -1.29485  -0.28654   0.52449
  32   36847.1    271.4    -77.15722  -4.91612   6.27698  -0.63401
  33   36935.9    270.7      5.03983   0.23294  -0.91127   0.09742
  34   36969.1    270.5    -20.53587   4.20680  -5.40859   0.52061
  35   37248.6    268.5     17.34736   0.30011   0.81364  -0.20223
  36   37654.2    265.6      9.39045   0.40081  -0.37132  -0.12073
  37   37906.7    263.8     31.98147   1.00146  -3.73488   0.87914
  38   38048.5    262.8     22.96161  -1.70529   1.58093   0.34798
  39   38257.9    261.4    -39.43909   2.54229  -3.52072   0.38340
  40   38768.9    257.9    -58.87457   0.91890  -0.26411  -0.11260
  41   38857.1    257.4     41.32122   1.25454  -2.33987   0.18196
  42   39031.7    256.2     15.47041  -2.07281   3.72791  -0.23723
  43   39135.9    255.5     22.32858  -0.61322   1.37435  -0.67023
  44   39528.0    253.0      2.14936   0.03230   0.11019  -0.06220
  45   39904.4    250.6      6.71575  -0.33182   0.58451   0.24961
  46   40229.3    248.6     19.23623  -0.12060  -0.53624  -0.24667

sTD-DFT done

Total run time:        9.199 sec

           *** ORCA-CIS/TD-DFT FINISHED WITHOUT ERROR ***

-------------------------   --------------------
FINAL SINGLE POINT ENERGY     -5092.073947606435
-------------------------   --------------------


                            ***************************************
                            *     ORCA property calculations      *
                            ***************************************

                                    ---------------------
                                    Active property flags
                                    ---------------------
   (+) Dipole Moment


------------------------------------------------------------------------------
                       ORCA ELECTRIC PROPERTIES CALCULATION
------------------------------------------------------------------------------

Dipole Moment Calculation                       ... on
Quadrupole Moment Calculation                   ... off
Polarizability Calculation                      ... off
GBWName                                         ... TPIC-4F.gbw
Electron density file                           ... TPIC-4F.scfp
The origin for moment calculation is the CENTER OF MASS  = (11.910604,  4.070715 -4.793648)

-------------
DIPOLE MOMENT
-------------
                                X             Y             Z
Electronic contribution:     38.53156      -0.59589      32.53948
Nuclear contribution   :    -39.65180       1.24589     -31.47007
                        -----------------------------------------
Total Dipole Moment    :     -1.12024       0.65000       1.06941
                        -----------------------------------------
Magnitude (a.u.)       :      1.67961
Magnitude (Debye)      :      4.26922



--------------------
Rotational spectrum 
--------------------
 
Rotational constants in cm-1:     0.000986     0.000196     0.000183 
Rotational constants in MHz :    29.565469     5.876913     5.485076 

 Dipole components along the rotational axes: 
x,y,z [a.u.] :     0.718048     0.856027    -1.254073 
x,y,z [Debye]:     1.825133     2.175848    -3.187601 

 

Timings for individual modules:

Sum of individual times         ...     6344.390 sec (= 105.740 min)
GTO integral calculation        ...        4.280 sec (=   0.071 min)   0.1 %
SCF iterations                  ...     6330.833 sec (= 105.514 min)  99.8 %
CIS module                      ...        9.277 sec (=   0.155 min)   0.1 %
                             ****ORCA TERMINATED NORMALLY****
TOTAL RUN TIME: 0 days 1 hours 45 minutes 45 seconds 155 msec
