
                                 *****************
                                 * O   R   C   A *
                                 *****************

           --- An Ab Initio, DFT and Semiempirical electronic structure package ---

                  #######################################################
                  #                        -***-                        #
                  #          Department of theory and spectroscopy      #
                  #               Directorship: Frank Neese             #
                  #        Max Planck Institute fuer Kohlenforschung    #
                  #                Kaiser Wilhelm Platz 1               #
                  #                 D-45470 Muelheim/Ruhr               #
                  #                      Germany                        #
                  #                                                     #
                  #                  All rights reserved                #
                  #                        -***-                        #
                  #######################################################


                         Program Version 4.2.0 -  RELEASE  -


 With contributions from (in alphabetic order):
   Daniel Aravena         : Magnetic Suceptibility
   Michael Atanasov       : Ab Initio Ligand Field Theory (pilot matlab implementation)
   Alexander A. Auer      : GIAO ZORA, VPT2
   Ute Becker             : Parallelization
   Giovanni Bistoni       : ED, misc. LED, open-shell LED, HFLED
   Martin Brehm           : Molecular dynamics
   Dmytro Bykov           : SCF Hessian
   Vijay G. Chilkuri      : MRCI spin determinant printing, contributions to CSF-ICE
   Dipayan Datta          : RHF DLPNO-CCSD density
   Achintya Kumar Dutta   : EOM-CC, STEOM-CC
   Dmitry Ganyushin       : Spin-Orbit,Spin-Spin,Magnetic field MRCI
   Miquel Garcia          : C-PCM Hessian, Gaussian charge scheme
   Yang Guo               : DLPNO-NEVPT2, CIM, IAO-localization
   Andreas Hansen         : Spin unrestricted coupled pair/coupled cluster methods
   Benjamin Helmich-Paris : CASSCF linear response (MC-RPA)
   Lee Huntington         : MR-EOM, pCC
   Robert Izsak           : Overlap fitted RIJCOSX, COSX-SCS-MP3, EOM
   Christian Kollmar      : KDIIS, OOCD, Brueckner-CCSD(T), CCSD density
   Simone Kossmann        : Meta GGA functionals, TD-DFT gradient, OOMP2, MP2 Hessian
   Martin Krupicka        : AUTO-CI
   Lucas Lang             : DCDCAS
   Dagmar Lenk            : GEPOL surface, SMD
   Dimitrios Liakos       : Extrapolation schemes; Compound Job, initial MDCI parallelization
   Dimitrios Manganas     : Further ROCIS development; embedding schemes
   Dimitrios Pantazis     : SARC Basis sets
   Taras Petrenko         : DFT Hessian,TD-DFT gradient, ASA, ECA, R-Raman, ABS, FL, XAS/XES, NRVS
   Peter Pinski           : DLPNO-MP2, DLPNO-MP2 Gradient
   Christoph Reimann      : Effective Core Potentials
   Marius Retegan         : Local ZFS, SOC
   Christoph Riplinger    : Optimizer, TS searches, QM/MM, DLPNO-CCSD(T), (RO)-DLPNO pert. Triples
   Tobias Risthaus        : Range-separated hybrids, TD-DFT gradient, RPA, STAB
   Michael Roemelt        : Original ROCIS implementation
   Masaaki Saitow         : Open-shell DLPNO-CCSD energy and density
   Barbara Sandhoefer     : DKH picture change effects
   Avijit Sen             : IP-ROCIS
   Kantharuban Sivalingam : CASSCF convergence, NEVPT2, FIC-MRCI
   Bernardo de Souza      : ESD, SOC TD-DFT
   Georgi Stoychev        : AutoAux, RI-MP2 NMR
   Willem Van den Heuvel  : Paramagnetic NMR
   Boris Wezisla          : Elementary symmetry handling
   Frank Wennmohs         : Technical directorship


 We gratefully acknowledge several colleagues who have allowed us to
 interface, adapt or use parts of their codes:
   Stefan Grimme, W. Hujo, H. Kruse,             : VdW corrections, initial TS optimization,
                  C. Bannwarth                     DFT functionals, gCP, sTDA/sTD-DF
   Ed Valeev, F. Pavosevic, A. Kumar             : LibInt (2-el integral package), F12 methods
   Garnet Chan, S. Sharma, J. Yang, R. Olivares  : DMRG
   Ulf Ekstrom                                   : XCFun DFT Library
   Mihaly Kallay                                 : mrcc  (arbitrary order and MRCC methods)
   Andreas Klamt, Michael Diedenhofen            : otool_cosmo (COSMO solvation model)
   Jiri Pittner, Ondrej Demel                    : Mk-CCSD
   Frank Weinhold                                : gennbo (NPA and NBO analysis)
   Christopher J. Cramer and Donald G. Truhlar   : smd solvation model
   Lars Goerigk                                  : TD-DFT with DH, B97 family of functionals
   V. Asgeirsson, H. Jonsson                     : NEB implementation
   FAccTs GmbH                                   : IRC, NEB, NEB-TS, Multilevel, MM, QM/MM, CI optimization
   S Lehtola, MJT Oliveira, MAL Marques          : LibXC Library


 Your calculation uses the libint2 library for the computation of 2-el integrals
 For citations please refer to: http://libint.valeyev.net

 Your ORCA version has been built with support for libXC version: 4.2.3
 For citations please refer to: https://tddft.org/programs/libxc/

 This ORCA versions uses:
   CBLAS   interface :  Fast vector & matrix operations
   LAPACKE interface :  Fast linear algebra routines
   SCALAPACK package :  Parallel linear algebra routines


XCFun DFT library Copyright 2009-2010 Ulf Ekstrom and contributors.
See http://admol.org/xcfun for more information. This is free soft-
ware; see the source code for copying conditions. There is ABSOLUTELY
NO WARRANTY; not even for MERCHANTABILITY or FITNESS FOR A PARTICULAR
PURPOSE. For details see the documentation. Scientific users of this 
library should cite U. Ekstrom, L. Visscher, R. Bast, A. J. Thorvald-
sen and K. Ruud; J.Chem.Theor.Comp. 2010, DOI: 10.1021/ct100117s
XCFun Version 0.99 
----- Orbital basis set information -----
Your calculation utilizes the basis: def2-SVP
   F. Weigend and R. Ahlrichs, Phys. Chem. Chem. Phys. 7, 3297 (2005).

----- AuxJ basis set information -----
Your calculation utilizes the auxiliary basis: def2/J
   F. Weigend, Phys. Chem. Chem. Phys. 8, 1057 (2006).

================================================================================
                                        WARNINGS
                       Please study these warnings very carefully!
================================================================================

INFO   : Checking CIS options ...

WARNING: CIS/ROCIS methods need fully converged wavefunctions
  ===> : Setting SCFConvForced true
         You can overwrite this default with %scf ConvForced false 


INFO   : the flag for use of LIBINT has been found!

================================================================================
                                       INPUT FILE
================================================================================
NAME = TPIC-4Cl.inp
|  1> # ORCA input file
|  2> # TPIC-4Cl.out: Geometry 73
|  3> ! CAM-B3LYP def2-SVP def2/J RIJCOSX Grid4 TightSCF
|  4> %maxcore 5000
|  5> %tddft
|  6>     Mode sTDDFT
|  7>     Ethresh 5.0
|  8>     maxcore 5000
|  9> end
| 10> * xyz 0 1
| 11>    C        0.30221        -3.08066        -1.47869
| 12>    C       -0.38364        -3.73397        -0.46566
| 13>    C       -1.44103        -4.73401        -0.66978
| 14>    C       -1.91739        -5.16414         0.66948
| 15>    C       -1.19563        -4.46242         1.64871
| 16>    C       -0.21714        -3.55596         1.00585
| 17>    C       -2.89018        -6.08126         1.07702
| 18>    C       -3.11232        -6.26764         2.44730
| 19>    C       -2.37751        -5.55107         3.41678
| 20>    C       -1.40506        -4.63420         3.00785
| 21>   Cl       -2.66396        -5.79406         5.10719
| 22>   Cl       -4.31996        -7.40870         2.93346
| 23>    O        0.54348        -2.83374         1.62939
| 24>    C       -1.95015        -5.22486        -1.86094
| 25>    C       -2.99562        -6.19949        -1.90803
| 26>    C       -1.50461        -4.81949        -3.15744
| 27>    N       -3.84579        -6.99014        -1.96494
| 28>    N       -1.16360        -4.51367        -4.22614
| 29>    C        1.32052        -2.09854        -1.44969
| 30>    S        1.88573        -1.46352        -3.02054
| 31>    C        2.96212        -0.39219        -2.22436
| 32>    C        2.91047        -0.51860        -0.83239
| 33>    C        1.99791        -1.46965        -0.39063
| 34>    C       12.82537         7.70480        -5.55367
| 35>    C       13.87929         8.29580        -4.87883
| 36>    C       15.09387         8.85535        -5.47192
| 37>    C       15.89498         9.43862        -4.36322
| 38>    C       15.21334         9.22233        -3.15094
| 39>    C       13.94818         8.49591        -3.41397
| 40>    C       17.12611        10.09857        -4.33845
| 41>    C       17.63771        10.53354        -3.10772
| 42>    C       16.93006        10.32158        -1.90410
| 43>    C       15.70371         9.65081        -1.92901
| 44>   Cl       17.55976        10.87815        -0.39046
| 45>   Cl       19.16950        11.34146        -3.08842
| 46>    O       13.13981         8.15013        -2.56868
| 47>    C       15.48367         8.84563        -6.80236
| 48>    C       16.68831         9.45837        -7.26938
| 49>    C       14.73490         8.21134        -7.84232
| 50>    N       17.65563         9.94983        -7.68685
| 51>    N       14.14720         7.69549        -8.70325
| 52>    C        3.90950         0.62891        -2.60478
| 53>    C        4.44705         1.16259        -1.39774
| 54>    C        3.87956         0.44576        -0.16321
| 55>    C        4.32885         1.08609        -3.86608
| 56>    C        5.30949         2.06311        -3.90721
| 57>    C        5.81967         2.61577        -2.69940
| 58>    C        5.37909         2.18565        -1.43891
| 59>    C        6.05404         2.64782        -5.13737
| 60>    C        6.97152         3.65956        -4.44623
| 61>    C        6.82474         3.58017        -3.06631
| 62>    C        7.99945         4.57264        -4.78339
| 63>    C        8.62851         5.12999        -3.63069
| 64>    S        7.92127         4.56301        -2.13737
| 65>    N        8.65508         5.00922        -5.91951
| 66>    C        9.69850         5.82440        -5.50170
| 67>    C        9.70850         5.90485        -4.07899
| 68>    C       10.76571         6.49604        -6.09439
| 69>    C       11.62769         7.07956        -5.13699
| 70>    S       11.05110         6.80442        -3.46990
| 71>    C        3.16310         1.42502         0.78824
| 72>    C        8.19013         4.88230        -7.29386
| 73>    C        7.17151         5.95401        -7.66497
| 74>    C        4.94060        -0.34685         0.62470
| 75>    C        6.86141         1.49725        -5.76931
| 76>    C        5.10289         3.37038        -6.10803
| 77>    C        6.30207        -0.34103         0.31200
| 78>    C        7.23213        -0.95787         1.15798
| 79>    C        6.83387        -1.59952         2.33478
| 80>    C        5.45640        -1.66468         2.60589
| 81>    C        4.52970        -1.05297         1.76957
| 82>    C        1.81314         1.75129         0.61074
| 83>    C        1.14196         2.54841         1.54043
| 84>    C        1.79289         3.04141         2.67993
| 85>    C        3.16191         2.77133         2.81501
| 86>    C        3.83697         1.97942         1.88689
| 87>    C        4.23525         4.34656        -5.59366
| 88>    C        3.41875         5.10117        -6.43450
| 89>    C        3.42817         4.90330        -7.82425
| 90>    C        4.28080         3.91493        -8.33159
| 91>    C        5.11063         3.16602        -7.49338
| 92>    C        8.24814         1.39145        -5.59955
| 93>    C        8.95327         0.29099        -6.09314
| 94>    C        8.30564        -0.74459        -6.77631
| 95>    C        6.91706        -0.63559        -6.95258
| 96>    C        6.21010         0.45885        -6.45764
| 97>    C        7.83569        -2.19744         3.29328
| 98>    C        7.93748        -3.72345         3.20891
| 99>    C        1.05377         3.83440         3.73158
|100>    C        1.20210         5.35076         3.57400
|101>    C        9.07967        -1.90990        -7.34464
|102>    C        9.63179        -1.62001        -8.74973
|103>    C        2.59430         5.75755        -8.75121
|104>    C        3.44065         6.74495        -9.56618
|105>    H        0.00959        -3.35439        -2.49213
|106>    H       -3.48828        -6.66178         0.38077
|107>    H       -0.82188        -4.06725         3.73453
|108>    H        1.77422        -1.72560         0.63972
|109>    H       12.91280         7.68023        -6.64009
|110>    H       17.70870        10.29533        -5.23500
|111>    H       15.14608         9.46389        -1.01052
|112>    H        3.90400         0.65797        -4.77407
|113>    H        5.78181         2.62322        -0.52405
|114>    H       10.97518         6.55811        -7.16264
|115>    H        7.76651         3.87539        -7.41377
|116>    H        9.07534         4.94186        -7.94464
|117>    H        6.27790         5.88407        -7.02799
|118>    H        6.84549         5.82819        -8.70786
|119>    H        7.61222         6.95769        -7.55295
|120>    H        6.65967         0.16828        -0.58221
|121>    H        8.29475        -0.90907         0.90188
|122>    H        5.10561        -2.17584         3.50705
|123>    H        3.47378        -1.08020         2.04368
|124>    H        1.26486         1.34648        -0.24173
|125>    H        0.07974         2.76309         1.39188
|126>    H        3.70397         3.15668         3.68346
|127>    H        4.88895         1.74391         2.05342
|128>    H        4.21151         4.53098        -4.51675
|129>    H        2.76053         5.86038        -6.00380
|130>    H        4.30546         3.72470        -9.40879
|131>    H        5.77513         2.42408        -7.93520
|132>    H        8.79232         2.16442        -5.05773
|133>    H       10.03289         0.23582        -5.92779
|134>    H        6.37926        -1.42848        -7.48030
|135>    H        5.13187         0.50334        -6.61683
|136>    H        7.55462        -1.90943         4.32109
|137>    H        8.82509        -1.75005         3.10668
|138>    H        6.96758        -4.19966         3.42382
|139>    H        8.66953        -4.11004         3.93434
|140>    H        8.25213        -4.04457         2.20343
|141>    H        1.42237         3.53517         4.72720
|142>    H       -0.01419         3.56271         3.70354
|143>    H        2.25743         5.65648         3.65299
|144>    H        0.63540         5.88810         4.34964
|145>    H        0.83091         5.68503         2.59200
|146>    H        8.42974        -2.80012        -7.37434
|147>    H        9.91475        -2.15808        -6.66905
|148>    H        8.81853        -1.37214        -9.44971
|149>    H       10.17847        -2.48734        -9.15315
|150>    H       10.32264        -0.76199        -8.73137
|151>    H        1.84536         6.31090        -8.16177
|152>    H        2.02988         5.10633        -9.44155
|153>    H        4.00459         7.42298        -8.90555
|154>    H        2.80842         7.35981       -10.22682
|155>    H        4.17096         6.21370       -10.19723
|156> *
|157> 
|158>                          ****END OF INPUT****
================================================================================

                       ****************************
                       * Single Point Calculation *
                       ****************************

---------------------------------
CARTESIAN COORDINATES (ANGSTROEM)
---------------------------------
  C      0.302210   -3.080660   -1.478690
  C     -0.383640   -3.733970   -0.465660
  C     -1.441030   -4.734010   -0.669780
  C     -1.917390   -5.164140    0.669480
  C     -1.195630   -4.462420    1.648710
  C     -0.217140   -3.555960    1.005850
  C     -2.890180   -6.081260    1.077020
  C     -3.112320   -6.267640    2.447300
  C     -2.377510   -5.551070    3.416780
  C     -1.405060   -4.634200    3.007850
  Cl    -2.663960   -5.794060    5.107190
  Cl    -4.319960   -7.408700    2.933460
  O      0.543480   -2.833740    1.629390
  C     -1.950150   -5.224860   -1.860940
  C     -2.995620   -6.199490   -1.908030
  C     -1.504610   -4.819490   -3.157440
  N     -3.845790   -6.990140   -1.964940
  N     -1.163600   -4.513670   -4.226140
  C      1.320520   -2.098540   -1.449690
  S      1.885730   -1.463520   -3.020540
  C      2.962120   -0.392190   -2.224360
  C      2.910470   -0.518600   -0.832390
  C      1.997910   -1.469650   -0.390630
  C     12.825370    7.704800   -5.553670
  C     13.879290    8.295800   -4.878830
  C     15.093870    8.855350   -5.471920
  C     15.894980    9.438620   -4.363220
  C     15.213340    9.222330   -3.150940
  C     13.948180    8.495910   -3.413970
  C     17.126110   10.098570   -4.338450
  C     17.637710   10.533540   -3.107720
  C     16.930060   10.321580   -1.904100
  C     15.703710    9.650810   -1.929010
  Cl    17.559760   10.878150   -0.390460
  Cl    19.169500   11.341460   -3.088420
  O     13.139810    8.150130   -2.568680
  C     15.483670    8.845630   -6.802360
  C     16.688310    9.458370   -7.269380
  C     14.734900    8.211340   -7.842320
  N     17.655630    9.949830   -7.686850
  N     14.147200    7.695490   -8.703250
  C      3.909500    0.628910   -2.604780
  C      4.447050    1.162590   -1.397740
  C      3.879560    0.445760   -0.163210
  C      4.328850    1.086090   -3.866080
  C      5.309490    2.063110   -3.907210
  C      5.819670    2.615770   -2.699400
  C      5.379090    2.185650   -1.438910
  C      6.054040    2.647820   -5.137370
  C      6.971520    3.659560   -4.446230
  C      6.824740    3.580170   -3.066310
  C      7.999450    4.572640   -4.783390
  C      8.628510    5.129990   -3.630690
  S      7.921270    4.563010   -2.137370
  N      8.655080    5.009220   -5.919510
  C      9.698500    5.824400   -5.501700
  C      9.708500    5.904850   -4.078990
  C     10.765710    6.496040   -6.094390
  C     11.627690    7.079560   -5.136990
  S     11.051100    6.804420   -3.469900
  C      3.163100    1.425020    0.788240
  C      8.190130    4.882300   -7.293860
  C      7.171510    5.954010   -7.664970
  C      4.940600   -0.346850    0.624700
  C      6.861410    1.497250   -5.769310
  C      5.102890    3.370380   -6.108030
  C      6.302070   -0.341030    0.312000
  C      7.232130   -0.957870    1.157980
  C      6.833870   -1.599520    2.334780
  C      5.456400   -1.664680    2.605890
  C      4.529700   -1.052970    1.769570
  C      1.813140    1.751290    0.610740
  C      1.141960    2.548410    1.540430
  C      1.792890    3.041410    2.679930
  C      3.161910    2.771330    2.815010
  C      3.836970    1.979420    1.886890
  C      4.235250    4.346560   -5.593660
  C      3.418750    5.101170   -6.434500
  C      3.428170    4.903300   -7.824250
  C      4.280800    3.914930   -8.331590
  C      5.110630    3.166020   -7.493380
  C      8.248140    1.391450   -5.599550
  C      8.953270    0.290990   -6.093140
  C      8.305640   -0.744590   -6.776310
  C      6.917060   -0.635590   -6.952580
  C      6.210100    0.458850   -6.457640
  C      7.835690   -2.197440    3.293280
  C      7.937480   -3.723450    3.208910
  C      1.053770    3.834400    3.731580
  C      1.202100    5.350760    3.574000
  C      9.079670   -1.909900   -7.344640
  C      9.631790   -1.620010   -8.749730
  C      2.594300    5.757550   -8.751210
  C      3.440650    6.744950   -9.566180
  H      0.009590   -3.354390   -2.492130
  H     -3.488280   -6.661780    0.380770
  H     -0.821880   -4.067250    3.734530
  H      1.774220   -1.725600    0.639720
  H     12.912800    7.680230   -6.640090
  H     17.708700   10.295330   -5.235000
  H     15.146080    9.463890   -1.010520
  H      3.904000    0.657970   -4.774070
  H      5.781810    2.623220   -0.524050
  H     10.975180    6.558110   -7.162640
  H      7.766510    3.875390   -7.413770
  H      9.075340    4.941860   -7.944640
  H      6.277900    5.884070   -7.027990
  H      6.845490    5.828190   -8.707860
  H      7.612220    6.957690   -7.552950
  H      6.659670    0.168280   -0.582210
  H      8.294750   -0.909070    0.901880
  H      5.105610   -2.175840    3.507050
  H      3.473780   -1.080200    2.043680
  H      1.264860    1.346480   -0.241730
  H      0.079740    2.763090    1.391880
  H      3.703970    3.156680    3.683460
  H      4.888950    1.743910    2.053420
  H      4.211510    4.530980   -4.516750
  H      2.760530    5.860380   -6.003800
  H      4.305460    3.724700   -9.408790
  H      5.775130    2.424080   -7.935200
  H      8.792320    2.164420   -5.057730
  H     10.032890    0.235820   -5.927790
  H      6.379260   -1.428480   -7.480300
  H      5.131870    0.503340   -6.616830
  H      7.554620   -1.909430    4.321090
  H      8.825090   -1.750050    3.106680
  H      6.967580   -4.199660    3.423820
  H      8.669530   -4.110040    3.934340
  H      8.252130   -4.044570    2.203430
  H      1.422370    3.535170    4.727200
  H     -0.014190    3.562710    3.703540
  H      2.257430    5.656480    3.652990
  H      0.635400    5.888100    4.349640
  H      0.830910    5.685030    2.592000
  H      8.429740   -2.800120   -7.374340
  H      9.914750   -2.158080   -6.669050
  H      8.818530   -1.372140   -9.449710
  H     10.178470   -2.487340   -9.153150
  H     10.322640   -0.761990   -8.731370
  H      1.845360    6.310900   -8.161770
  H      2.029880    5.106330   -9.441550
  H      4.004590    7.422980   -8.905550
  H      2.808420    7.359810  -10.226820
  H      4.170960    6.213700  -10.197230

----------------------------
CARTESIAN COORDINATES (A.U.)
----------------------------
  NO LB      ZA    FRAG     MASS         X           Y           Z
   0 C     6.0000    0    12.011    0.571094   -5.821604   -2.794319
   1 C     6.0000    0    12.011   -0.724975   -7.056181   -0.879970
   2 C     6.0000    0    12.011   -2.723152   -8.945982   -1.265701
   3 C     6.0000    0    12.011   -3.623342   -9.758810    1.265134
   4 C     6.0000    0    12.011   -2.259413   -8.432752    3.115610
   5 C     6.0000    0    12.011   -0.410335   -6.719791    1.900781
   6 C     6.0000    0    12.011   -5.461649  -11.491916    2.035273
   7 C     6.0000    0    12.011   -5.881432  -11.844123    4.624727
   8 C     6.0000    0    12.011   -4.492843  -10.490002    6.456778
   9 C     6.0000    0    12.011   -2.655179   -8.757369    5.684013
  10 Cl   17.0000    0    35.453   -5.034155  -10.949187    9.651190
  11 Cl   17.0000    0    35.453   -8.163541  -14.000414    5.543436
  12 O     8.0000    0    15.999    1.027028   -5.354993    3.079101
  13 C     6.0000    0    12.011   -3.685249   -9.873554   -3.516667
  14 C     6.0000    0    12.011   -5.660901  -11.715338   -3.605654
  15 C     6.0000    0    12.011   -2.843301   -9.107516   -5.966697
  16 N     7.0000    0    14.007   -7.267490  -13.209450   -3.713198
  17 N     7.0000    0    14.007   -2.198885   -8.529600   -7.986247
  18 C     6.0000    0    12.011    2.495421   -3.965666   -2.739517
  19 S    16.0000    0    32.060    3.563513   -2.765652   -5.707993
  20 C     6.0000    0    12.011    5.597596   -0.741132   -4.203431
  21 C     6.0000    0    12.011    5.499991   -0.980012   -1.572989
  22 C     6.0000    0    12.011    3.775503   -2.777236   -0.738184
  23 C     6.0000    0    12.011   24.236437   14.559962  -10.494915
  24 C     6.0000    0    12.011   26.228057   15.676790   -9.219653
  25 C     6.0000    0    12.011   28.523281   16.734186  -10.340430
  26 C     6.0000    0    12.011   30.037159   17.836407   -8.245291
  27 C     6.0000    0    12.011   28.749046   17.427678   -5.954414
  28 C     6.0000    0    12.011   26.358240   16.054943   -6.451468
  29 C     6.0000    0    12.011   32.363658   19.083532   -8.198482
  30 C     6.0000    0    12.011   33.330442   19.905506   -5.872740
  31 C     6.0000    0    12.011   31.993177   19.504959   -3.598228
  32 C     6.0000    0    12.011   29.675711   18.237388   -3.645301
  33 Cl   17.0000    0    35.453   33.183137   20.556724   -0.737862
  34 Cl   17.0000    0    35.453   36.225105   21.432253   -5.836268
  35 O     8.0000    0    15.999   24.830642   15.401514   -4.854102
  36 C     6.0000    0    12.011   29.259896   16.715818  -12.854597
  37 C     6.0000    0    12.011   31.536336   17.873729  -13.737137
  38 C     6.0000    0    12.011   27.844926   15.517184  -14.819837
  39 N     7.0000    0    14.007   33.364305   18.802454  -14.526041
  40 N     7.0000    0    14.007   26.734334   14.542369  -16.446759
  41 C     6.0000    0    12.011    7.387884    1.188468   -4.922321
  42 C     6.0000    0    12.011    8.403707    2.196977   -2.641346
  43 C     6.0000    0    12.011    7.331306    0.842364   -0.308422
  44 C     6.0000    0    12.011    8.180341    2.052413   -7.305832
  45 C     6.0000    0    12.011   10.033482    3.898713   -7.383557
  46 C     6.0000    0    12.011   10.997582    4.943089   -5.101127
  47 C     6.0000    0    12.011   10.165007    4.130280   -2.719146
  48 C     6.0000    0    12.011   11.440478    5.003655   -9.708222
  49 C     6.0000    0    12.011   13.174264    6.915566   -8.402157
  50 C     6.0000    0    12.011   12.896890    6.765541   -5.794486
  51 C     6.0000    0    12.011   15.116770    8.641037   -9.039297
  52 C     6.0000    0    12.011   16.305521    9.694276   -6.861010
  53 S    16.0000    0    32.060   14.969031    8.622839   -4.039044
  54 N     7.0000    0    14.007   16.355731    9.466054  -11.186253
  55 C     6.0000    0    12.011   18.327509   11.006521  -10.396706
  56 C     6.0000    0    12.011   18.346406   11.158549   -7.708174
  57 C     6.0000    0    12.011   20.344244   12.275737  -11.516728
  58 C     6.0000    0    12.011   21.973150   13.378430   -9.707504
  59 S    16.0000    0    32.060   20.883552   12.858490   -6.557161
  60 C     6.0000    0    12.011    5.977393    2.692898    1.489558
  61 C     6.0000    0    12.011   15.477103    9.226210  -13.783398
  62 C     6.0000    0    12.011   13.552190   11.251448  -14.484694
  63 C     6.0000    0    12.011    9.336381   -0.655452    1.180512
  64 C     6.0000    0    12.011   12.966186    2.829392  -10.902416
  65 C     6.0000    0    12.011    9.643065    6.369095  -11.542504
  66 C     6.0000    0    12.011   11.909186   -0.644453    0.589595
  67 C     6.0000    0    12.011   13.666745   -1.810112    2.188265
  68 C     6.0000    0    12.011   12.914143   -3.022655    4.412095
  69 C     6.0000    0    12.011   10.311102   -3.145789    4.924418
  70 C     6.0000    0    12.011    8.559892   -1.989825    3.344003
  71 C     6.0000    0    12.011    3.426338    3.309458    1.154131
  72 C     6.0000    0    12.011    2.157992    4.815797    2.910991
  73 C     6.0000    0    12.011    3.388071    5.747432    5.064334
  74 C     6.0000    0    12.011    5.975144    5.237055    5.319598
  75 C     6.0000    0    12.011    7.250822    3.740562    3.565705
  76 C     6.0000    0    12.011    8.003463    8.213808  -10.570485
  77 C     6.0000    0    12.011    6.460501    9.639814  -12.159443
  78 C     6.0000    0    12.011    6.478302    9.265894  -14.785690
  79 C     6.0000    0    12.011    8.089540    7.398146  -15.744423
  80 C     6.0000    0    12.011    9.657691    5.982911  -14.160436
  81 C     6.0000    0    12.011   15.586726    2.629459  -10.581616
  82 C     6.0000    0    12.011   16.919228    0.549891  -11.514366
  83 C     6.0000    0    12.011   15.695385   -1.407071  -12.805370
  84 C     6.0000    0    12.011   13.071349   -1.201091  -13.138472
  85 C     6.0000    0    12.011   11.735388    0.867101  -12.203171
  86 C     6.0000    0    12.011   14.807308   -4.152560    6.223397
  87 C     6.0000    0    12.011   14.999663   -7.036301    6.063961
  88 C     6.0000    0    12.011    1.991337    7.245966    7.051664
  89 C     6.0000    0    12.011    2.271640   10.111471    6.753881
  90 C     6.0000    0    12.011   17.158090   -3.609188  -13.879358
  91 C     6.0000    0    12.011   18.201445   -3.061375  -16.534593
  92 C     6.0000    0    12.011    4.902517   10.880193  -16.537390
  93 C     6.0000    0    12.011    6.501886   12.746108  -18.077460
  94 H     1.0000    0     1.008    0.018122   -6.338878   -4.709443
  95 H     1.0000    0     1.008   -6.591894  -12.588940    0.719551
  96 H     1.0000    0     1.008   -1.553128   -7.685989    7.057239
  97 H     1.0000    0     1.008    3.352790   -3.260911    1.208896
  98 H     1.0000    0     1.008   24.401656   14.513531  -12.547952
  99 H     1.0000    0     1.008   33.464593   19.455354   -9.892716
 100 H     1.0000    0     1.008   28.621943   17.884160   -1.909606
 101 H     1.0000    0     1.008    7.377491    1.243383   -9.021685
 102 H     1.0000    0     1.008   10.926037    4.957167   -0.990311
 103 H     1.0000    0     1.008   20.740084   12.393032  -13.535428
 104 H     1.0000    0     1.008   14.676577    7.323426  -14.009995
 105 H     1.0000    0     1.008   17.149907    9.338762  -15.013194
 106 H     1.0000    0     1.008   11.863512   11.119281  -13.280976
 107 H     1.0000    0     1.008   12.936101   11.013683  -16.455471
 108 H     1.0000    0     1.008   14.385011   13.148129  -14.273007
 109 H     1.0000    0     1.008   12.584952    0.318003   -1.100217
 110 H     1.0000    0     1.008   15.674806   -1.717893    1.704306
 111 H     1.0000    0     1.008    9.648205   -4.111742    6.627364
 112 H     1.0000    0     1.008    6.564493   -2.041282    3.861996
 113 H     1.0000    0     1.008    2.390239    2.544478   -0.456803
 114 H     1.0000    0     1.008    0.150687    5.221483    2.630272
 115 H     1.0000    0     1.008    6.999489    5.965261    6.960731
 116 H     1.0000    0     1.008    9.238777    3.295512    3.880401
 117 H     1.0000    0     1.008    7.958601    8.562311   -8.535421
 118 H     1.0000    0     1.008    5.216646   11.074513  -11.345538
 119 H     1.0000    0     1.008    8.136140    7.038663  -17.780036
 120 H     1.0000    0     1.008   10.913414    4.580847  -14.995355
 121 H     1.0000    0     1.008   16.615077    4.090161   -9.557725
 122 H     1.0000    0     1.008   18.959414    0.445635  -11.201900
 123 H     1.0000    0     1.008   12.055054   -2.699436  -14.135718
 124 H     1.0000    0     1.008    9.697829    0.951175  -12.503997
 125 H     1.0000    0     1.008   14.276163   -3.608300    8.165677
 126 H     1.0000    0     1.008   16.677003   -3.307115    5.870774
 127 H     1.0000    0     1.008   13.166818   -7.936207    6.470082
 128 H     1.0000    0     1.008   16.383037   -7.766850    7.434825
 129 H     1.0000    0     1.008   15.594266   -7.643130    4.163879
 130 H     1.0000    0     1.008    2.687890    6.680503    8.933113
 131 H     1.0000    0     1.008   -0.026815    6.732546    6.998676
 132 H     1.0000    0     1.008    4.265924   10.689198    6.903151
 133 H     1.0000    0     1.008    1.200732   11.126896    8.219628
 134 H     1.0000    0     1.008    1.570192   10.743150    4.898170
 135 H     1.0000    0     1.008   15.929900   -5.291460  -13.935483
 136 H     1.0000    0     1.008   18.736162   -4.078180  -12.602678
 137 H     1.0000    0     1.008   16.664607   -2.592969  -17.857364
 138 H     1.0000    0     1.008   19.234521   -4.700391  -17.296947
 139 H     1.0000    0     1.008   19.506963   -1.439952  -16.499898
 140 H     1.0000    0     1.008    3.487225   11.925873  -15.423510
 141 H     1.0000    0     1.008    3.835917    9.649565  -17.841944
 142 H     1.0000    0     1.008    7.567578   14.027399  -16.829051
 143 H     1.0000    0     1.008    5.307145   13.908025  -19.325889
 144 H     1.0000    0     1.008    7.881972   11.742191  -19.269972

--------------------------------
INTERNAL COORDINATES (ANGSTROEM)
--------------------------------
 C      0   0   0     0.000000000000     0.00000000     0.00000000
 C      1   0   0     1.386879215902     0.00000000     0.00000000
 C      2   1   0     1.469632126792   125.09279798     0.00000000
 C      3   2   1     1.485108754974   107.61471441   180.77065431
 C      4   3   2     1.404364571221   108.61631197     0.22357411
 C      5   4   3     1.480669237642   110.04726795   359.63831711
 C      4   3   2     1.397683200908   132.55058893   180.22566464
 C      7   4   3     1.400625204114   118.87941041   180.06060778
 C      8   7   4     1.411846227958   121.44734834     0.02626070
 C      5   4   3     1.385868259576   122.97190556   179.83847289
 Cl     9   8   7     1.731641911799   120.86453210   180.03519652
 Cl     8   7   4     1.731116356228   118.23602410   180.05917277
 O      6   5   4     1.220224014024   123.53280831   180.32736334
 C      3   2   1     1.385279409542   128.68004803     0.53055391
 C     14   3   2     1.430079936892   122.58012962   180.44300141
 C     14   3   2     1.429595389787   124.38861485     0.14781207
 N     15  14   3     1.162392016275   179.07811513   175.12578684
 N     16  14   3     1.162726701551   178.27265930   175.64240292
 C      1   2   3     1.415046271505   131.90151528   179.27464802
 S     19   1   2     1.786136183778   117.15848853   182.65972748
 C     20  19   1     1.714720383444    90.71133220   178.16123146
 C     21  20  19     1.398652098093   112.48571848     0.70957439
 C     22  21  20     1.390112856462   113.72484399   359.50625174
 C     21  20  19    13.188224016095   137.37880552   170.50658451
 C     24  21  20     1.383993277440   135.12105839   199.71099038
 C     25  24  21     1.462893204236   126.71944837   160.89620369
 C     26  25  24     1.487009352694   107.16023732   177.08320680
 C     27  26  25     1.407493251174   108.72317991     1.04946860
 C     25  24  21     1.480069141561   125.15374833   339.39939484
 C     27  26  25     1.397078606343   132.31862780   180.16446201
 C     30  27  26     1.402009198900   118.92594136   180.45421982
 C     31  30  27     1.412231095997   121.24832276   359.70921775
 C     28  27  26     1.384619360041   122.75403985   180.03797610
 Cl    32  31  30     1.731299599867   120.97277471   180.72378627
 Cl    31  30  27     1.731902947772   118.50611398   179.61453914
 O     29  25  24     1.219647920262   128.07977058     2.52885927
 C     26  25  24     1.386401497403   128.30236624   355.86095924
 C     37  26  25     1.429935494209   123.18032034   178.43188711
 C     37  26  25     1.429859125439   123.63049017   357.65643038
 N     38  37  26     1.162549833297   178.01766278   188.47312410
 N     39  37  26     1.163053299467   178.71382603   198.76571177
 C     21  20  19     1.443916012377   137.00118965   181.57757389
 C     42  21  20     1.425033300137   106.80880124   178.34446934
 C     22  21  20     1.522145692797   110.90121185   179.92519551
 C     42  21  20     1.405612202885   131.46569712   357.23119686
 C     45  42  21     1.384887925754   117.86348054   182.49382102
 C     46  45  42     1.422856881102   120.17934902   357.24955690
 C     43  42  21     1.384574047893   120.36209264   180.95817002
 C     46  45  42     1.552267410017   128.97068315   173.42276563
 C     49  46  45     1.530706332906   100.29082562   179.94520840
 C     50  49  46     1.389973505827   110.31646909     3.53068671
 C     50  49  46     1.415638384935   138.93876595   176.80255126
 C     52  50  49     1.426559776560   112.31783205   188.45956155
 S     51  50  49     1.741057733132   115.52726510   174.19036291
 N     52  50  49     1.382469329750   138.05415244     1.63898390
 C     55  52  50     1.388455589819   107.12801040   187.26910867
 C     53  52  50     1.402768444791   107.28214687   174.08602301
 C     56  55  52     1.393312208301   136.93845989   174.86787842
 C     24  21  20     1.413854540750    11.63889795   111.24751687
 S     57  53  52     1.727076018304   140.67040521   186.33613056
 C     44  22  21     1.541921587403   112.19822988   120.50617245
 C     55  52  50     1.456408291449   126.62544486    19.07462850
 C     62  55  52     1.524425026231   112.44394565    80.48816017
 C     44  22  21     1.541051154829   109.71062883   242.24379243
 C     49  46  45     1.541105384262   107.15913157   296.29745178
 C     49  46  45     1.539142654759   112.34652348    62.97067418
 C     64  44  22     1.396930822661   123.67264729   115.53589181
 C     67  64  44     1.400423275156   120.67781358   172.59695683
 C     68  67  64     1.398278938588   121.42424174     0.16692256
 C     69  68  67     1.405407435088   117.56698713     3.22340058
 C     70  69  68     1.390105447979   121.12654304   356.73929664
 C     61  44  22     1.400125124587   121.18304028   334.94427481
 C     72  61  44     1.396497899354   120.79793773   174.52206770
 C     73  72  61     1.401862730406   121.24552101   359.72553104
 C     74  73  72     1.401929232593   117.64570336     3.62016857
 C     75  74  73     1.394357983482   121.20152816   356.59122163
 C     66  49  46     1.403674840873   118.51344785    51.45518002
 C     77  66  49     1.393958538731   121.16424284   175.41141931
 C     78  77  66     1.403797113475   121.12670289     0.52052162
 C     79  78  77     1.400445303966   117.52976381     0.41245654
 C     80  79  78     1.397168572900   121.50445046   358.92137153
 C     65  49  46     1.401082506671   121.68283807   256.10043287
 C     82  65  49     1.397086832162   121.07887289   175.17444451
 C     83  82  65     1.399489836405   121.45062864     0.11394851
 C     84  83  82     1.403961014167   117.48596569     0.20773423
 C     85  84  83     1.393756420183   121.20194024   359.58467790
 C     69  68  67     1.509925126885   121.80234394   183.60993352
 C     87  69  68     1.531726483776   113.80601251   256.67764551
 C     74  73  72     1.510330836936   121.56063684   183.72304754
 C     89  74  73     1.531724810434   113.62523775   262.66010614
 C     84  83  82     1.509989677415   121.16989620   178.07329803
 C     91  84  83     1.537254245270   112.49468839   274.17712838
 C     79  78  77     1.511402355761   121.58779644   182.81855057
 C     93  79  78     1.534745315484   112.64728268   107.54735195
 H      1   2   3     1.089777596989   115.35103238   359.96311313
 H      7   4   3     1.086043803398   123.16894888     0.04060352
 H     10   5   4     1.090685581320   120.54250389   180.05372105
 H     23  22  21     1.084974073930   126.76442690   181.20739731
 H     24  21  20     1.090209202951   107.32002188     3.07447400
 H     30  27  26     1.087164894669   122.89483856     0.67845699
 H     33  28  27     1.090648515059   120.60324939   180.02312686
 H     45  42  21     1.090059675889   120.22731731     1.02131207
 H     48  43  42     1.091155224017   121.32063821   178.41627063
 H     58  56  55     1.090361604377   126.25244543     4.28536047
 H     62  55  52     1.098954075747   107.81068617   317.68024366
 H     62  55  52     1.100299389303   107.25218180   202.56629755
 H     63  62  55     1.099624461396   110.93314557   298.96549300
 H     63  62  55     1.099881477660   110.39375403   179.87789001
 H     63  62  55     1.101883535996   110.38748606    59.78442719
 H     67  64  44     1.089442958672   120.37051740   354.26893497
 H     68  67  64     1.094134321918   118.94413515   181.90921347
 H     70  69  68     1.093813290877   119.66473064   178.80887399
 H     71  70  69     1.091258361434   118.87836417   183.29088845
 H     72  61  44     1.091415225934   119.79815676   357.02689304
 H     73  72  61     1.093830852234   119.23178547   181.79315162
 H     75  74  73     1.093859711572   119.50804936   178.91555926
 H     76  75  74     1.090806637952   119.20302955   183.40908335
 H     77  66  49     1.092844669704   119.46473282   356.49146844
 H     78  77  66     1.093231852125   119.40415653   180.56323009
 H     80  79  78     1.094145972208   119.54355779   179.26109731
 H     81  80  79     1.089605490992   118.94297199   181.46355602
 H     82  65  49     1.089579462775   120.06652482   356.43341266
 H     83  82  65     1.093601250822   118.98501484   180.93942677
 H     85  84  83     1.093796960363   119.37940322   180.12973139
 H     86  85  84     1.090825718940   118.78863254   180.01433362
 H     87  69  68     1.103785985189   108.59198055   134.88551474
 H     87  69  68     1.101766641399   109.11772712    19.43490071
 H     88  87  69     1.101666139173   111.18613710   300.65829774
 H     88  87  69     1.100725994742   110.96501150   180.72672998
 H     88  87  69     1.101413958192   111.08379861    60.55031214
 H     89  74  73     1.103024812640   108.81616381   140.75692296
 H     89  74  73     1.102334005327   109.08664865    25.24162695
 H     90  89  74     1.101555966531   111.10931093   299.24191438
 H     90  89  74     1.100681868298   111.15768492   179.07280860
 H     90  89  74     1.101745183334   111.06501856    58.98790415
 H     91  84  83     1.102625386657   109.33301738   151.86640134
 H     91  84  83     1.102439915324   109.35205534    35.81865236
 H     92  91  84     1.101273519567   110.98833893   301.44825320
 H     92  91  84     1.101756800614   111.37309509   180.93827508
 H     92  91  84     1.101730063355   110.90654020    60.69948113
 H     93  79  78     1.102064816470   109.31110994   345.42838209
 H     93  79  78     1.104186008062   109.39753437   229.23137843
 H     94  93  79     1.101900631364   111.08474668   300.79086751
 H     94  93  79     1.101913246177   111.15869034   180.44678999
 H     94  93  79     1.101727444108   111.06805088    60.39971888

---------------------------
INTERNAL COORDINATES (A.U.)
---------------------------
 C      0   0   0     0.000000000000     0.00000000     0.00000000
 C      1   0   0     2.620821898882     0.00000000     0.00000000
 C      2   1   0     2.777202237250   125.09279798     0.00000000
 C      3   2   1     2.806448825989   107.61471441   180.77065431
 C      4   3   2     2.653864431789   108.61631197     0.22357411
 C      5   4   3     2.798059354066   110.04726795   359.63831711
 C      4   3   2     2.641238471698   132.55058893   180.22566464
 C      7   4   3     2.646798052043   118.87941041   180.06060778
 C      8   7   4     2.668002714051   121.44734834     0.02626070
 C      5   4   3     2.618911468293   122.97190556   179.83847289
 Cl     9   8   7     3.272328975321   120.86453210   180.03519652
 Cl     8   7   4     3.271335819223   118.23602410   180.05917277
 O      6   5   4     2.305889208539   123.53280831   180.32736334
 C      3   2   1     2.617798702994   128.68004803     0.53055391
 C     14   3   2     2.702459430341   122.58012962   180.44300141
 C     14   3   2     2.701543769014   124.38861485     0.14781207
 N     15  14   3     2.196602571016   179.07811513   175.12578684
 N     16  14   3     2.197235034529   178.27265930   175.64240292
 C      1   2   3     2.674049919971   131.90151528   179.27464802
 S     19   1   2     3.375308225227   117.15848853   182.65972748
 C     20  19   1     3.240351920963    90.71133220   178.16123146
 C     21  20  19     2.643069422030   112.48571848     0.70957439
 C     22  21  20     2.626932593956   113.72484399   359.50625174
 C     21  20  19    24.922131583222   137.37880552   170.50658451
 C     24  21  20     2.615368265550   135.12105839   199.71099038
 C     25  24  21     2.764467519181   126.71944837   160.89620369
 C     26  25  24     2.810040435172   107.16023732   177.08320680
 C     27  26  25     2.659776780061   108.72317991     1.04946860
 C     25  24  21     2.796925336818   125.15374833   339.39939484
 C     27  26  25     2.640095953548   132.31862780   180.16446201
 C     30  27  26     2.649413423159   118.92594136   180.45421982
 C     31  30  27     2.668730009241   121.24832276   359.70921775
 C     28  27  26     2.616551390203   122.75403985   180.03797610
 Cl    32  31  30     3.271682099516   120.97277471   180.72378627
 Cl    31  30  27     3.272822261819   118.50611398   179.61453914
 O     29  25  24     2.304800549102   128.07977058     2.52885927
 C     26  25  24     2.619919141749   128.30236624   355.86095924
 C     37  26  25     2.702186473229   123.18032034   178.43188711
 C     37  26  25     2.702042157167   123.63049017   357.65643038
 N     38  37  26     2.196900801968   178.01766278   188.47312410
 N     39  37  26     2.197852215145   178.71382603   198.76571177
 C     21  20  19     2.728605823777   137.00118965   181.57757389
 C     42  21  20     2.692922668977   106.80880124   178.34446934
 C     22  21  20     2.876438495314   110.90121185   179.92519551
 C     42  21  20     2.656222113951   131.46569712   357.23119686
 C     45  42  21     2.617058905850   117.86348054   182.49382102
 C     46  45  42     2.688809833049   120.17934902   357.24955690
 C     43  42  21     2.616465762653   120.36209264   180.95817002
 C     46  45  42     2.933360291543   128.97068315   173.42276563
 C     49  46  45     2.892615760652   100.29082562   179.94520840
 C     50  49  46     2.626669259419   110.31646909     3.53068671
 C     50  49  46     2.675168852193   138.93876595   176.80255126
 C     52  50  49     2.695807291367   112.31783205   188.45956155
 S     51  50  49     3.290122298966   115.52726510   174.19036291
 N     52  50  49     2.612488421774   138.05415244     1.63898390
 C     55  52  50     2.623800813870   107.12801040   187.26910867
 C     53  52  50     2.650848189961   107.28214687   174.08602301
 C     56  55  52     2.632978492738   136.93845989   174.86787842
 C     24  21  20     2.671797875219    11.63889795   111.24751687
 S     57  53  52     3.263700687057   140.67040521   186.33613056
 C     44  22  21     2.913809520173   112.19822988   120.50617245
 C     55  52  50     2.752212810010   126.62544486    19.07462850
 C     62  55  52     2.880745811273   112.44394565    80.48816017
 C     44  22  21     2.912164640990   109.71062883   242.24379243
 C     49  46  45     2.912267119766   107.15913157   296.29745178
 C     49  46  45     2.908558098532   112.34652348    62.97067418
 C     64  44  22     2.639816682862   123.67264729   115.53589181
 C     67  64  44     2.646416461615   120.67781358   172.59695683
 C     68  67  64     2.642364252762   121.42424174     0.16692256
 C     69  68  67     2.655835158893   117.56698713     3.22340058
 C     70  69  68     2.626918593952   121.12654304   356.73929664
 C     61  44  22     2.645853038692   121.18304028   334.94427481
 C     72  61  44     2.638998576375   120.79793773   174.52206770
 C     73  72  61     2.649136637817   121.24552101   359.72553104
 C     74  73  72     2.649262308740   117.64570336     3.62016857
 C     75  74  73     2.634954721428   121.20152816   356.59122163
 C     66  49  46     2.652561030326   118.51344785    51.45518002
 C     77  66  49     2.634199880242   121.16424284   175.41141931
 C     78  77  66     2.652792092056   121.12670289     0.52052162
 C     79  78  77     2.646458090032   117.52976381     0.41245654
 C     80  79  78     2.640265965703   121.50445046   358.92137153
 C     65  49  46     2.647662228636   121.68283807   256.10043287
 C     82  65  49     2.640111498093   121.07887289   175.17444451
 C     83  82  65     2.644652518011   121.45062864     0.11394851
 C     84  83  82     2.653101819477   117.48596569     0.20773423
 C     85  84  83     2.633817931539   121.20194024   359.58467790
 C     69  68  67     2.853344972540   121.80234394   183.60993352
 C     87  69  68     2.894543566410   113.80601251   256.67764551
 C     74  73  72     2.854111653425   121.56063684   183.72304754
 C     89  74  73     2.894540404253   113.62523775   262.66010614
 C     84  83  82     2.853466955363   121.16989620   178.07329803
 C     91  84  83     2.904989521768   112.49468839   274.17712838
 C     79  78  77     2.856136530552   121.58779644   182.81855057
 C     93  79  78     2.900248331583   112.64728268   107.54735195
 H      1   2   3     2.059381205193   115.35103238   359.96311313
 H      7   4   3     2.052325357865   123.16894888     0.04060352
 H     10   5   4     2.061097046912   120.54250389   180.05372105
 H     23  22  21     2.050303862132   126.76442690   181.20739731
 H     24  21  20     2.060196822259   107.32002188     3.07447400
 H     30  27  26     2.054443913337   122.89483856     0.67845699
 H     33  28  27     2.061027001829   120.60324939   180.02312686
 H     45  42  21     2.059914257062   120.22731731     1.02131207
 H     48  43  42     2.061984542990   121.32063821   178.41627063
 H     58  56  55     2.060484819216   126.25244543     4.28536047
 H     62  55  52     2.076722236918   107.81068617   317.68024366
 H     62  55  52     2.079264511103   107.25218180   202.56629755
 H     63  62  55     2.077989082199   110.93314557   298.96549300
 H     63  62  55     2.078474772550   110.39375403   179.87789001
 H     63  62  55     2.082258114510   110.38748606    59.78442719
 H     67  64  44     2.058748830419   120.37051740   354.26893497
 H     68  67  64     2.067614222150   118.94413515   181.90921347
 H     70  69  68     2.067007561401   119.66473064   178.80887399
 H     71  70  69     2.062179444462   118.87836417   183.29088845
 H     72  61  44     2.062475875407   119.79815676   357.02689304
 H     73  72  61     2.067040747557   119.23178547   181.79315162
 H     75  74  73     2.067095283801   119.50804936   178.91555926
 H     76  75  74     2.061325810793   119.20302955   183.40908335
 H     77  66  49     2.065177132656   119.46473282   356.49146844
 H     78  77  66     2.065908801395   119.40415653   180.56323009
 H     80  79  78     2.067636238007   119.54355779   179.26109731
 H     81  80  79     2.059055971992   118.94297199   181.46355602
 H     82  65  49     2.059006785789   120.06652482   356.43341266
 H     83  82  65     2.066606863768   118.98501484   180.93942677
 H     85  84  83     2.066976701202   119.37940322   180.12973139
 H     86  85  84     2.061361868634   118.78863254   180.01433362
 H     87  69  68     2.085853222468   108.59198055   134.88551474
 H     87  69  68     2.082037215735   109.11772712    19.43490071
 H     88  87  69     2.081847294051   111.18613710   300.65829774
 H     88  87  69     2.080070678550   110.96501150   180.72672998
 H     88  87  69     2.081370741061   111.08379861    60.55031214
 H     89  74  73     2.084414814810   108.81616381   140.75692296
 H     89  74  73     2.083109378176   109.08664865    25.24162695
 H     90  89  74     2.081639097930   111.10931093   299.24191438
 H     90  89  74     2.079987291656   111.15768492   179.07280860
 H     90  89  74     2.081996665868   111.06501856    58.98790415
 H     91  84  83     2.083660009090   109.33301738   151.86640134
 H     91  84  83     2.083309519066   109.35205534    35.81865236
 H     92  91  84     2.081105350522   110.98833893   301.44825320
 H     92  91  84     2.082018619346   111.37309509   180.93827508
 H     92  91  84     2.081968093248   110.90654020    60.69948113
 H     93  79  78     2.082600684958   109.31110994   345.42838209
 H     93  79  78     2.086609156145   109.39753437   229.23137843
 H     94  93  79     2.082290420073   111.08474668   300.79086751
 H     94  93  79     2.082314258614   111.15869034   180.44678999
 H     94  93  79     2.081963143589   111.06805088    60.39971888

---------------------
BASIS SET INFORMATION
---------------------
There are 6 groups of distinct atoms

 Group   1 Type C   : 7s4p1d contracted to 3s2p1d pattern {511/31/1}
 Group   2 Type Cl  : 10s7p1d contracted to 4s3p1d pattern {5311/511/1}
 Group   3 Type O   : 7s4p1d contracted to 3s2p1d pattern {511/31/1}
 Group   4 Type N   : 7s4p1d contracted to 3s2p1d pattern {511/31/1}
 Group   5 Type S   : 10s7p1d contracted to 4s3p1d pattern {5311/511/1}
 Group   6 Type H   : 4s1p contracted to 2s1p pattern {31/1}

Atom   0C    basis set group =>   1
Atom   1C    basis set group =>   1
Atom   2C    basis set group =>   1
Atom   3C    basis set group =>   1
Atom   4C    basis set group =>   1
Atom   5C    basis set group =>   1
Atom   6C    basis set group =>   1
Atom   7C    basis set group =>   1
Atom   8C    basis set group =>   1
Atom   9C    basis set group =>   1
Atom  10Cl   basis set group =>   2
Atom  11Cl   basis set group =>   2
Atom  12O    basis set group =>   3
Atom  13C    basis set group =>   1
Atom  14C    basis set group =>   1
Atom  15C    basis set group =>   1
Atom  16N    basis set group =>   4
Atom  17N    basis set group =>   4
Atom  18C    basis set group =>   1
Atom  19S    basis set group =>   5
Atom  20C    basis set group =>   1
Atom  21C    basis set group =>   1
Atom  22C    basis set group =>   1
Atom  23C    basis set group =>   1
Atom  24C    basis set group =>   1
Atom  25C    basis set group =>   1
Atom  26C    basis set group =>   1
Atom  27C    basis set group =>   1
Atom  28C    basis set group =>   1
Atom  29C    basis set group =>   1
Atom  30C    basis set group =>   1
Atom  31C    basis set group =>   1
Atom  32C    basis set group =>   1
Atom  33Cl   basis set group =>   2
Atom  34Cl   basis set group =>   2
Atom  35O    basis set group =>   3
Atom  36C    basis set group =>   1
Atom  37C    basis set group =>   1
Atom  38C    basis set group =>   1
Atom  39N    basis set group =>   4
Atom  40N    basis set group =>   4
Atom  41C    basis set group =>   1
Atom  42C    basis set group =>   1
Atom  43C    basis set group =>   1
Atom  44C    basis set group =>   1
Atom  45C    basis set group =>   1
Atom  46C    basis set group =>   1
Atom  47C    basis set group =>   1
Atom  48C    basis set group =>   1
Atom  49C    basis set group =>   1
Atom  50C    basis set group =>   1
Atom  51C    basis set group =>   1
Atom  52C    basis set group =>   1
Atom  53S    basis set group =>   5
Atom  54N    basis set group =>   4
Atom  55C    basis set group =>   1
Atom  56C    basis set group =>   1
Atom  57C    basis set group =>   1
Atom  58C    basis set group =>   1
Atom  59S    basis set group =>   5
Atom  60C    basis set group =>   1
Atom  61C    basis set group =>   1
Atom  62C    basis set group =>   1
Atom  63C    basis set group =>   1
Atom  64C    basis set group =>   1
Atom  65C    basis set group =>   1
Atom  66C    basis set group =>   1
Atom  67C    basis set group =>   1
Atom  68C    basis set group =>   1
Atom  69C    basis set group =>   1
Atom  70C    basis set group =>   1
Atom  71C    basis set group =>   1
Atom  72C    basis set group =>   1
Atom  73C    basis set group =>   1
Atom  74C    basis set group =>   1
Atom  75C    basis set group =>   1
Atom  76C    basis set group =>   1
Atom  77C    basis set group =>   1
Atom  78C    basis set group =>   1
Atom  79C    basis set group =>   1
Atom  80C    basis set group =>   1
Atom  81C    basis set group =>   1
Atom  82C    basis set group =>   1
Atom  83C    basis set group =>   1
Atom  84C    basis set group =>   1
Atom  85C    basis set group =>   1
Atom  86C    basis set group =>   1
Atom  87C    basis set group =>   1
Atom  88C    basis set group =>   1
Atom  89C    basis set group =>   1
Atom  90C    basis set group =>   1
Atom  91C    basis set group =>   1
Atom  92C    basis set group =>   1
Atom  93C    basis set group =>   1
Atom  94H    basis set group =>   6
Atom  95H    basis set group =>   6
Atom  96H    basis set group =>   6
Atom  97H    basis set group =>   6
Atom  98H    basis set group =>   6
Atom  99H    basis set group =>   6
Atom 100H    basis set group =>   6
Atom 101H    basis set group =>   6
Atom 102H    basis set group =>   6
Atom 103H    basis set group =>   6
Atom 104H    basis set group =>   6
Atom 105H    basis set group =>   6
Atom 106H    basis set group =>   6
Atom 107H    basis set group =>   6
Atom 108H    basis set group =>   6
Atom 109H    basis set group =>   6
Atom 110H    basis set group =>   6
Atom 111H    basis set group =>   6
Atom 112H    basis set group =>   6
Atom 113H    basis set group =>   6
Atom 114H    basis set group =>   6
Atom 115H    basis set group =>   6
Atom 116H    basis set group =>   6
Atom 117H    basis set group =>   6
Atom 118H    basis set group =>   6
Atom 119H    basis set group =>   6
Atom 120H    basis set group =>   6
Atom 121H    basis set group =>   6
Atom 122H    basis set group =>   6
Atom 123H    basis set group =>   6
Atom 124H    basis set group =>   6
Atom 125H    basis set group =>   6
Atom 126H    basis set group =>   6
Atom 127H    basis set group =>   6
Atom 128H    basis set group =>   6
Atom 129H    basis set group =>   6
Atom 130H    basis set group =>   6
Atom 131H    basis set group =>   6
Atom 132H    basis set group =>   6
Atom 133H    basis set group =>   6
Atom 134H    basis set group =>   6
Atom 135H    basis set group =>   6
Atom 136H    basis set group =>   6
Atom 137H    basis set group =>   6
Atom 138H    basis set group =>   6
Atom 139H    basis set group =>   6
Atom 140H    basis set group =>   6
Atom 141H    basis set group =>   6
Atom 142H    basis set group =>   6
Atom 143H    basis set group =>   6
Atom 144H    basis set group =>   6
---------------------------------
AUXILIARY/J BASIS SET INFORMATION
---------------------------------
There are 6 groups of distinct atoms

 Group   1 Type C   : 12s5p4d2f1g contracted to 6s4p3d1f1g pattern {711111/2111/211/2/1}
 Group   2 Type Cl  : 14s5p5d2f1g contracted to 8s4p3d1f1g pattern {71111111/2111/311/2/1}
 Group   3 Type O   : 12s5p4d2f1g contracted to 6s4p3d1f1g pattern {711111/2111/211/2/1}
 Group   4 Type N   : 12s5p4d2f1g contracted to 6s4p3d1f1g pattern {711111/2111/211/2/1}
 Group   5 Type S   : 14s5p5d2f1g contracted to 8s4p3d1f1g pattern {71111111/2111/311/2/1}
 Group   6 Type H   : 5s2p1d contracted to 3s1p1d pattern {311/2/1}

Atom   0C    basis set group =>   1
Atom   1C    basis set group =>   1
Atom   2C    basis set group =>   1
Atom   3C    basis set group =>   1
Atom   4C    basis set group =>   1
Atom   5C    basis set group =>   1
Atom   6C    basis set group =>   1
Atom   7C    basis set group =>   1
Atom   8C    basis set group =>   1
Atom   9C    basis set group =>   1
Atom  10Cl   basis set group =>   2
Atom  11Cl   basis set group =>   2
Atom  12O    basis set group =>   3
Atom  13C    basis set group =>   1
Atom  14C    basis set group =>   1
Atom  15C    basis set group =>   1
Atom  16N    basis set group =>   4
Atom  17N    basis set group =>   4
Atom  18C    basis set group =>   1
Atom  19S    basis set group =>   5
Atom  20C    basis set group =>   1
Atom  21C    basis set group =>   1
Atom  22C    basis set group =>   1
Atom  23C    basis set group =>   1
Atom  24C    basis set group =>   1
Atom  25C    basis set group =>   1
Atom  26C    basis set group =>   1
Atom  27C    basis set group =>   1
Atom  28C    basis set group =>   1
Atom  29C    basis set group =>   1
Atom  30C    basis set group =>   1
Atom  31C    basis set group =>   1
Atom  32C    basis set group =>   1
Atom  33Cl   basis set group =>   2
Atom  34Cl   basis set group =>   2
Atom  35O    basis set group =>   3
Atom  36C    basis set group =>   1
Atom  37C    basis set group =>   1
Atom  38C    basis set group =>   1
Atom  39N    basis set group =>   4
Atom  40N    basis set group =>   4
Atom  41C    basis set group =>   1
Atom  42C    basis set group =>   1
Atom  43C    basis set group =>   1
Atom  44C    basis set group =>   1
Atom  45C    basis set group =>   1
Atom  46C    basis set group =>   1
Atom  47C    basis set group =>   1
Atom  48C    basis set group =>   1
Atom  49C    basis set group =>   1
Atom  50C    basis set group =>   1
Atom  51C    basis set group =>   1
Atom  52C    basis set group =>   1
Atom  53S    basis set group =>   5
Atom  54N    basis set group =>   4
Atom  55C    basis set group =>   1
Atom  56C    basis set group =>   1
Atom  57C    basis set group =>   1
Atom  58C    basis set group =>   1
Atom  59S    basis set group =>   5
Atom  60C    basis set group =>   1
Atom  61C    basis set group =>   1
Atom  62C    basis set group =>   1
Atom  63C    basis set group =>   1
Atom  64C    basis set group =>   1
Atom  65C    basis set group =>   1
Atom  66C    basis set group =>   1
Atom  67C    basis set group =>   1
Atom  68C    basis set group =>   1
Atom  69C    basis set group =>   1
Atom  70C    basis set group =>   1
Atom  71C    basis set group =>   1
Atom  72C    basis set group =>   1
Atom  73C    basis set group =>   1
Atom  74C    basis set group =>   1
Atom  75C    basis set group =>   1
Atom  76C    basis set group =>   1
Atom  77C    basis set group =>   1
Atom  78C    basis set group =>   1
Atom  79C    basis set group =>   1
Atom  80C    basis set group =>   1
Atom  81C    basis set group =>   1
Atom  82C    basis set group =>   1
Atom  83C    basis set group =>   1
Atom  84C    basis set group =>   1
Atom  85C    basis set group =>   1
Atom  86C    basis set group =>   1
Atom  87C    basis set group =>   1
Atom  88C    basis set group =>   1
Atom  89C    basis set group =>   1
Atom  90C    basis set group =>   1
Atom  91C    basis set group =>   1
Atom  92C    basis set group =>   1
Atom  93C    basis set group =>   1
Atom  94H    basis set group =>   6
Atom  95H    basis set group =>   6
Atom  96H    basis set group =>   6
Atom  97H    basis set group =>   6
Atom  98H    basis set group =>   6
Atom  99H    basis set group =>   6
Atom 100H    basis set group =>   6
Atom 101H    basis set group =>   6
Atom 102H    basis set group =>   6
Atom 103H    basis set group =>   6
Atom 104H    basis set group =>   6
Atom 105H    basis set group =>   6
Atom 106H    basis set group =>   6
Atom 107H    basis set group =>   6
Atom 108H    basis set group =>   6
Atom 109H    basis set group =>   6
Atom 110H    basis set group =>   6
Atom 111H    basis set group =>   6
Atom 112H    basis set group =>   6
Atom 113H    basis set group =>   6
Atom 114H    basis set group =>   6
Atom 115H    basis set group =>   6
Atom 116H    basis set group =>   6
Atom 117H    basis set group =>   6
Atom 118H    basis set group =>   6
Atom 119H    basis set group =>   6
Atom 120H    basis set group =>   6
Atom 121H    basis set group =>   6
Atom 122H    basis set group =>   6
Atom 123H    basis set group =>   6
Atom 124H    basis set group =>   6
Atom 125H    basis set group =>   6
Atom 126H    basis set group =>   6
Atom 127H    basis set group =>   6
Atom 128H    basis set group =>   6
Atom 129H    basis set group =>   6
Atom 130H    basis set group =>   6
Atom 131H    basis set group =>   6
Atom 132H    basis set group =>   6
Atom 133H    basis set group =>   6
Atom 134H    basis set group =>   6
Atom 135H    basis set group =>   6
Atom 136H    basis set group =>   6
Atom 137H    basis set group =>   6
Atom 138H    basis set group =>   6
Atom 139H    basis set group =>   6
Atom 140H    basis set group =>   6
Atom 141H    basis set group =>   6
Atom 142H    basis set group =>   6
Atom 143H    basis set group =>   6
Atom 144H    basis set group =>   6
------------------------------------------------------------------------------
                           ORCA GTO INTEGRAL CALCULATION
                           -- RI-GTO INTEGRALS CHOSEN --
------------------------------------------------------------------------------

                         BASIS SET STATISTICS AND STARTUP INFO

Gaussian basis set:
 # of primitive gaussian shells          ... 1425
 # of primitive gaussian functions       ... 2697
 # of contracted shells                  ...  731
 # of contracted basis functions         ... 1599
 Highest angular momentum                ...    2
 Maximum contraction depth               ...    5
Auxiliary gaussian basis set:
 # of primitive gaussian shells          ... 2685
 # of primitive gaussian functions       ... 7445
 # of contracted shells                  ... 1679
 # of contracted aux-basis functions     ... 5181
 Highest angular momentum                ...    4
 Maximum contraction depth               ...    7
Ratio of auxiliary to basis functions    ...  3.24
Integral package used                  ... LIBINT
 One Electron integrals                  ... done
 Ordering auxiliary basis shells         ... done
 Integral threshhold             Thresh  ...  2.500e-11
 Primitive cut-off               TCut    ...  2.500e-12
 Pre-screening matrix                    ... done
 Shell pair data                         ... 
 Ordering of the shell pairs             ... done (   0.017 sec) 77138 of 267546 pairs
 Determination of significant pairs      ... done (   0.000 sec)
 Creation of shell pair data             ... done (   0.011 sec)
 Storage of shell pair data              ... done (   0.016 sec)
 Shell pair data done in (   0.044 sec)
 Computing two index integrals           ... done
 Cholesky decomposition of the V-matrix  ... done


Timings:
 Total evaluation time                   ...   4.182 sec (  0.070 min)
 One electron matrix time                ...   1.192 sec (  0.020 min) = 28.5%
 Schwartz matrix evaluation time         ...   1.203 sec (  0.020 min) = 28.8%
 Two index repulsion integral time       ...   0.661 sec (  0.011 min) = 15.8%
 Cholesky decomposition of V             ...   1.064 sec (  0.018 min) = 25.4%
 Three index repulsion integral time     ...   0.000 sec (  0.000 min) =  0.0%

-------------------------------------------------------------------------------
                                 ORCA SCF
-------------------------------------------------------------------------------

------------
SCF SETTINGS
------------
Hamiltonian:
 Density Functional     Method          .... DFT(GTOs)
 Exchange Functional    Exchange        .... WB88
 Correlation Functional Correlation     .... LYP
 LDA part of GGA corr.  LDAOpt          .... VWN-5
 Gradients option       PostSCFGGA      .... off
 Hybrid DFT is turned on
   Fraction HF Exchange ScalHFX         ....  0.190000
   Scaling of DF-GGA-X  ScalDFX         ....  0.350000
   Scaling of DF-GGA-C  ScalDFC         ....  0.810000
   Scaling of DF-LDA-C  ScalLDAC        ....  1.000000
   Perturbative correction              ....  0.000000
   Density functional embedding theory  .... OFF
 Long-range corrected/Screened/Range-Separated Hybrid DFT is turned on
   Amount of maximum screened exact exchange              ....  0.460000
   Range separation parameter mu (erf(mu*r12)/r12)        ....  0.330000
 RI-approximation to the Coulomb term is turned on
   Number of auxiliary basis functions  .... 5181
   RIJ-COSX (HFX calculated with COS-X)).... on


General Settings:
 Integral files         IntName         .... TPIC-4Cl
 Hartree-Fock type      HFTyp           .... RHF
 Total Charge           Charge          ....    0
 Multiplicity           Mult            ....    1
 Number of Electrons    NEL             ....  698
 Basis Dimension        Dim             .... 1599
 Nuclear Repulsion      ENuc            ....  16913.9040221907 Eh

Convergence Acceleration:
 DIIS                   CNVDIIS         .... on
   Start iteration      DIISMaxIt       ....    12
   Startup error        DIISStart       ....  0.200000
   # of expansion vecs  DIISMaxEq       ....     5
   Bias factor          DIISBfac        ....   1.050
   Max. coefficient     DIISMaxC        ....  10.000
 Newton-Raphson         CNVNR           .... off
 SOSCF                  CNVSOSCF        .... on
   Start iteration      SOSCFMaxIt      ....   150
   Startup grad/error   SOSCFStart      ....  0.003300
 Level Shifting         CNVShift        .... on
   Level shift para.    LevelShift      ....    0.2500
   Turn off err/grad.   ShiftErr        ....    0.0010
 Zerner damping         CNVZerner       .... off
 Static damping         CNVDamp         .... on
   Fraction old density DampFac         ....    0.7000
   Max. Damping (<1)    DampMax         ....    0.9800
   Min. Damping (>=0)   DampMin         ....    0.0000
   Turn off err/grad.   DampErr         ....    0.1000
 Fernandez-Rico         CNVRico         .... off

SCF Procedure:
 Maximum # iterations   MaxIter         ....   125
 SCF integral mode      SCFMode         .... Direct
   Integral package                     .... LIBINT
 Reset frequency        DirectResetFreq ....    20
 Integral Threshold     Thresh          ....  2.500e-11 Eh
 Primitive CutOff       TCut            ....  2.500e-12 Eh

Convergence Tolerance:
 Convergence Check Mode ConvCheckMode   .... Total+1el-Energy
 Convergence forced     ConvForced      .... 1
 Energy Change          TolE            ....  1.000e-08 Eh
 1-El. energy change                    ....  1.000e-05 Eh
 Orbital Gradient       TolG            ....  1.000e-05
 Orbital Rotation angle TolX            ....  1.000e-05
 DIIS Error             TolErr          ....  5.000e-07


Diagonalization of the overlap matrix:
Smallest eigenvalue                        ... 1.506e-04
Time for diagonalization                   ...    0.789 sec
Threshold for overlap eigenvalues          ... 1.000e-08
Number of eigenvalues below threshold      ... 0
Time for construction of square roots      ...    0.332 sec
Total time needed                          ...    1.128 sec

-------------------
DFT GRID GENERATION
-------------------

General Integration Accuracy     IntAcc      ...  4.670
Radial Grid Type                 RadialGrid  ... Gauss-Chebyshev
Angular Grid (max. acc.)         AngularGrid ... Lebedev-302
Angular grid pruning method      GridPruning ... 3 (G Style)
Weight generation scheme         WeightScheme... Becke
Basis function cutoff            BFCut       ...    1.0000e-11
Integration weight cutoff        WCut        ...    1.0000e-14
Grids for H and He will be reduced by one unit

# of grid points (after initial pruning)     ... 761028 (   2.1 sec)
# of grid points (after weights+screening)   ... 639862 (  53.8 sec)
nearest neighbour list constructed           ...    0.0 sec
Grid point re-assignment to atoms done       ...    0.1 sec
Grid point division into batches done        ...    2.2 sec
Reduced shell lists constructed in   13.3 sec

Total number of grid points                  ...   639862
Total number of batches                      ...    10075
Average number of points per batch           ...       63
Average number of grid points per atom       ...     4413
Average number of shells per batch           ...   108.87 (14.89%)
Average number of basis functions per batch  ...   219.33 (13.72%)
Average number of large shells per batch     ...    62.33 (57.25%)
Average number of large basis fcns per batch ...   128.00 (58.36%)
Maximum spatial batch extension              ...  21.09, 31.43, 24.17 au
Average spatial batch extension              ...   2.10,  2.16,  2.05 au

Time for grid setup =   69.205 sec

------------------------------
INITIAL GUESS: MODEL POTENTIAL
------------------------------
Loading Hartree-Fock densities                     ... done
Calculating cut-offs                               ... done
Setting up the integral package                    ... done
Initializing the effective Hamiltonian             ... done
Starting the Coulomb interaction                   ... done (  18.3 sec)
Reading the grid                                   ... done
Mapping shells                                     ... done
Starting the XC term evaluation                    ... done (  13.3 sec)
  promolecular density results
     # of electrons  =    697.976211291
     EX              =   -657.398447887
     EC              =    -24.189015419
     EX+EC           =   -681.587463306
Transforming the Hamiltonian                       ... done (   0.3 sec)
Diagonalizing the Hamiltonian                      ... done (   0.8 sec)
Back transforming the eigenvectors                 ... done (   0.1 sec)
Now organizing SCF variables                       ... done
                      ------------------
                      INITIAL GUESS DONE ( 102.5 sec)
                      ------------------
--------------------
COSX GRID GENERATION
--------------------

General Integration Accuracy     IntAcc      ...  3.340
Radial Grid Type                 RadialGrid  ... Gauss-Chebyshev
Angular Grid (max. acc.)         AngularGrid ... Lebedev-50
Angular grid pruning method      GridPruning ... 3 (G Style)
Weight generation scheme         WeightScheme... Becke
Basis function cutoff            BFCut       ...    1.0000e-11
Integration weight cutoff        WCut        ...    1.0000e-14
Grids for H and He will be reduced by one unit

# of grid points (after initial pruning)     ...  71652 (   0.1 sec)
# of grid points (after weights+screening)   ...  63161 (   5.0 sec)
nearest neighbour list constructed           ...    0.0 sec
Grid point re-assignment to atoms done       ...    0.0 sec
Grid point division into batches done        ...    0.0 sec
Reduced shell lists constructed in    1.5 sec

Total number of grid points                  ...    63161
Total number of batches                      ...     1065
Average number of points per batch           ...       59
Average number of grid points per atom       ...      436
Average number of shells per batch           ...   133.47 (18.26%)
Average number of basis functions per batch  ...   271.36 (16.97%)
Average number of large shells per batch     ...    75.75 (56.75%)
Average number of large basis fcns per batch ...   157.79 (58.15%)
Maximum spatial batch extension              ...  21.47, 21.47, 17.70 au
Average spatial batch extension              ...   4.44,  4.77,  4.09 au

Overlap Fitting                  UseSFitting ... on
Constructing numerical overlap ... done (      1.0 sec)
Inverting numerical overlap    ... done (      0.1 sec)
Obtaining analytic overlap     ... done (      0.0 sec)
Final contraction and storage  ... done (      0.2 sec)


General Integration Accuracy     IntAcc      ...  3.670
Radial Grid Type                 RadialGrid  ... Gauss-Chebyshev
Angular Grid (max. acc.)         AngularGrid ... Lebedev-50
Angular grid pruning method      GridPruning ... 3 (G Style)
Weight generation scheme         WeightScheme... Becke
Basis function cutoff            BFCut       ...    1.0000e-11
Integration weight cutoff        WCut        ...    1.0000e-14
Grids for H and He will be reduced by one unit

# of grid points (after initial pruning)     ...  89700 (   0.1 sec)
# of grid points (after weights+screening)   ...  78676 (   6.3 sec)
nearest neighbour list constructed           ...    0.0 sec
Grid point re-assignment to atoms done       ...    0.0 sec
Grid point division into batches done        ...    0.0 sec
Reduced shell lists constructed in    1.9 sec

Total number of grid points                  ...    78676
Total number of batches                      ...     1300
Average number of points per batch           ...       60
Average number of grid points per atom       ...      543
Average number of shells per batch           ...   130.36 (17.83%)
Average number of basis functions per batch  ...   264.90 (16.57%)
Average number of large shells per batch     ...    74.12 (56.86%)
Average number of large basis fcns per batch ...   154.19 (58.21%)
Maximum spatial batch extension              ...  23.85, 23.85, 19.16 au
Average spatial batch extension              ...   4.16,  4.47,  3.82 au

Overlap Fitting                  UseSFitting ... on
Constructing numerical overlap ... done (      1.2 sec)
Inverting numerical overlap    ... done (      0.1 sec)
Obtaining analytic overlap     ... done (      0.0 sec)
Final contraction and storage  ... done (      0.2 sec)


General Integration Accuracy     IntAcc      ...  4.010
Radial Grid Type                 RadialGrid  ... Gauss-Chebyshev
Angular Grid (max. acc.)         AngularGrid ... Lebedev-110
Angular grid pruning method      GridPruning ... 3 (G Style)
Weight generation scheme         WeightScheme... Becke
Basis function cutoff            BFCut       ...    1.0000e-11
Integration weight cutoff        WCut        ...    1.0000e-14
Grids for H and He will be reduced by one unit

# of grid points (after initial pruning)     ... 173212 (   0.4 sec)
# of grid points (after weights+screening)   ... 150564 (  12.1 sec)
nearest neighbour list constructed           ...    0.0 sec
Grid point re-assignment to atoms done       ...    0.0 sec
Grid point division into batches done        ...    0.1 sec
Reduced shell lists constructed in    3.7 sec

Total number of grid points                  ...   150564
Total number of batches                      ...     2426
Average number of points per batch           ...       62
Average number of grid points per atom       ...     1038
Average number of shells per batch           ...   123.61 (16.91%)
Average number of basis functions per batch  ...   250.80 (15.68%)
Average number of large shells per batch     ...    70.87 (57.34%)
Average number of large basis fcns per batch ...   146.97 (58.60%)
Maximum spatial batch extension              ...  21.93, 24.05, 19.71 au
Average spatial batch extension              ...   3.41,  3.57,  3.24 au

Overlap Fitting                  UseSFitting ... on
Constructing numerical overlap ... done (      2.0 sec)
Inverting numerical overlap    ... done (      0.1 sec)
Obtaining analytic overlap     ... done (      0.0 sec)
Final contraction and storage  ... done (      0.2 sec)

Time for X-Grid setup             =   36.226 sec
--------------
SCF ITERATIONS
--------------
ITER       Energy         Delta-E        Max-DP      RMS-DP      [F,P]     Damp
               ***  Starting incremental Fock matrix formation  ***
  0  -6531.7945532232   0.000000000000 0.15411770  0.00077134  0.2427422 0.7000
  1  -6532.4802423508  -0.685689127567 0.09427322  0.00055134  0.0970275 0.7000
                               ***Turning on DIIS***
  2  -6532.7884446712  -0.308202320426 0.16469243  0.00103597  0.0414668 0.0000
  3  -6533.2933055231  -0.504860851881 0.05369917  0.00038626  0.0513431 0.0000
  4  -6533.3810595285  -0.087754005417 0.01663161  0.00011802  0.0261534 0.0000
  5  -6533.3876040968  -0.006544568314 0.00724460  0.00004644  0.0100055 0.0000
                      *** Initiating the SOSCF procedure ***
                           *** Shutting down DIIS ***
                      *** Re-Reading the Fockian *** 
                      *** Removing any level shift *** 
ITER      Energy       Delta-E        Grad      Rot      Max-DP    RMS-DP
  6  -6533.38878652  -0.0011824236  0.002858  0.002858  0.002778  0.000025
               *** Restarting incremental Fock matrix formation ***
  7  -6533.38908737  -0.0003008516  0.001878  0.012067  0.002498  0.000025
  8  -6533.38931224  -0.0002248708  0.000679  0.012005  0.002669  0.000029
  9  -6533.38932342  -0.0000111787  0.000722  0.004332  0.001266  0.000011
 10  -6533.38937742  -0.0000539937  0.000174  0.001364  0.000668  0.000006
 11  -6533.38937471   0.0000027066  0.000168  0.001031  0.000368  0.000003
 12  -6533.38938072  -0.0000060101  0.000016  0.000095  0.000103  0.000001
 13  -6533.38938068   0.0000000351  0.000023  0.000056  0.000062  0.000001
 14  -6533.38938082  -0.0000001321  0.000004  0.000023  0.000025  0.000000
 15  -6533.38938080   0.0000000148  0.000004  0.000016  0.000013  0.000000
                  ***Gradient check signals convergence***
              ***Rediagonalizing the Fockian in SOSCF/NRSCF***

               *****************************************************
               *                     SUCCESS                       *
[...]
   8   3.660     338.8   0.013941   0.009502  30.280228  25.434020     0.34 ( 128-> 134)    0.26 ( 129-> 134)    0.13 ( 132-> 135)
   9   3.740     331.5   0.003834   0.003133  -15.692839  -13.863942     0.41 ( 114-> 134)    0.29 ( 114-> 136)    0.09 ( 114-> 135)
  10   3.754     330.2   0.026444   0.021538  -23.925212  -25.850503     0.26 ( 131-> 135)    0.20 ( 131-> 134)    0.09 ( 117-> 137)
  11   3.764     329.4   0.153520   0.137909  -39.663952  -35.171905     0.36 ( 125-> 134)    0.12 ( 117-> 137)    0.10 ( 125-> 135)
  12   3.768     329.0   0.056775   0.052656  54.008283  54.239700     0.18 ( 117-> 137)    0.17 ( 131-> 135)    0.11 ( 131-> 134)
  13   3.828     323.9   0.217877   0.194433  30.884335  28.697817     0.23 ( 126-> 135)    0.21 ( 126-> 134)    0.06 ( 128-> 135)
  14   3.917     316.5   0.020550   0.015821  -3.049138  -3.931410     0.43 ( 127-> 134)    0.22 ( 126-> 134)    0.06 ( 129-> 134)
  15   3.942     314.5   0.006267   0.004337  -4.120852  -4.147171     0.69 ( 124-> 134)    0.10 ( 124-> 135)    0.04 ( 128-> 134)
  16   3.945     314.3   0.000278   0.000165   2.131868   2.114632     0.36 ( 117-> 137)    0.32 ( 117-> 135)    0.14 ( 117-> 134)
  17   3.982     311.4   0.038494   0.033737  29.397589  31.407131     0.39 ( 133-> 138)    0.10 ( 132-> 136)    0.08 ( 133-> 136)
  18   3.995     310.3   0.012176   0.008694  34.856272  30.819101     0.22 ( 127-> 134)    0.12 ( 128-> 134)    0.08 ( 125-> 134)
  19   4.012     309.0   0.000648   0.000590   7.847681   7.574249     0.48 ( 114-> 136)    0.23 ( 114-> 134)    0.19 ( 114-> 135)
  20   4.033     307.4   0.007608   0.006818   7.752132   6.292299     0.64 ( 131-> 137)    0.07 ( 131-> 136)    0.05 ( 131-> 134)
  21   4.141     299.4   0.204788   0.188663  53.252052  52.368587     0.27 ( 132-> 136)    0.25 ( 133-> 138)    0.07 ( 133-> 137)
  22   4.202     295.0   0.010738   0.008456  -12.781405  -10.742229     0.74 ( 122-> 134)    0.09 ( 122-> 135)    0.03 ( 122-> 136)
  23   4.225     293.5   0.040466   0.033231  -23.728643  -19.608478     0.15 ( 133-> 140)    0.10 ( 119-> 134)    0.08 ( 122-> 134)
  24   4.266     290.6   0.129446   0.118882  18.066734  12.702860     0.11 ( 130-> 135)    0.11 ( 119-> 134)    0.09 ( 125-> 136)
  25   4.286     289.3   0.143846   0.122200  14.136257  13.403974     0.48 ( 130-> 135)    0.09 ( 118-> 134)    0.07 ( 130-> 136)
  26   4.308     287.8   0.200106   0.177818  10.134714  -9.264783     0.10 ( 118-> 134)    0.09 ( 133-> 140)    0.06 ( 130-> 135)
  27   4.373     283.6   0.013468   0.012204  17.229919  19.099274     0.20 ( 132-> 137)    0.14 ( 125-> 136)    0.13 ( 133-> 140)
  28   4.384     282.8   0.148227   0.122058  -36.359200  -28.217937     0.20 ( 125-> 136)    0.15 ( 129-> 135)    0.08 ( 125-> 135)
  29   4.395     282.1   0.162634   0.148773  -12.423694  -15.374231     0.28 ( 121-> 134)    0.09 ( 116-> 134)    0.09 ( 123-> 134)
  30   4.402     281.7   0.042332   0.034391  11.423809  12.133375     0.31 ( 121-> 134)    0.11 ( 118-> 134)    0.11 ( 132-> 137)
  31   4.437     279.5   0.032848   0.026666  21.740308  17.805110     0.22 ( 127-> 135)    0.18 ( 129-> 135)    0.14 ( 128-> 135)
  32   4.462     277.9   0.173180   0.148416   0.856794  26.753981     0.14 ( 121-> 134)    0.09 ( 128-> 135)    0.08 ( 133-> 140)
  33   4.477     276.9   0.087281   0.074035  37.126357  36.762477     0.46 ( 130-> 136)    0.09 ( 130-> 137)    0.07 ( 127-> 135)
  34   4.489     276.2   0.276058   0.226328  82.297391  74.480497     0.14 ( 130-> 136)    0.11 ( 115-> 134)    0.10 ( 129-> 135)
  35   4.551     272.4   0.066900   0.053559  -42.882287  -44.640834     0.28 ( 120-> 134)    0.10 ( 116-> 134)    0.09 ( 126-> 137)
  36   4.582     270.6   0.001139   0.000922   0.811657  -0.264220     0.45 ( 120-> 134)    0.06 ( 128-> 135)    0.06 ( 129-> 136)
  37   4.606     269.2   0.082373   0.064774  -54.846528  -49.076224     0.10 ( 115-> 134)    0.10 ( 120-> 134)    0.09 ( 127-> 135)
  38   4.655     266.4   0.003590   0.003279  -5.776243  -7.190802     0.14 ( 115-> 134)    0.11 ( 119-> 134)    0.11 ( 116-> 134)
  39   4.671     265.4   0.003703   0.003785   5.677156   7.151003     0.13 ( 128-> 135)    0.12 ( 129-> 136)    0.10 ( 127-> 135)
  40   4.745     261.3   0.047680   0.038058  21.766440  17.800241     0.43 ( 133-> 139)    0.19 ( 132-> 138)    0.06 ( 113-> 134)
  41   4.750     261.0   0.030192   0.025450  12.199233  11.503054     0.29 ( 113-> 134)    0.15 ( 131-> 136)    0.11 ( 133-> 140)
  42   4.774     259.7   0.073089   0.055263   4.133976   2.971696     0.48 ( 131-> 136)    0.08 ( 131-> 138)    0.07 ( 133-> 139)
  43   4.817     257.4   0.009185   0.006313  -13.924375  -9.011570     0.18 ( 124-> 135)    0.17 ( 123-> 135)    0.10 ( 126-> 135)
  44   4.849     255.7   0.001068   0.001030   1.961944   1.774504     0.50 ( 124-> 135)    0.17 ( 123-> 135)    0.11 ( 124-> 136)
  45   4.923     251.8   0.000214   0.000211   0.197506  -0.021650     0.79 ( 121-> 135)    0.03 ( 121-> 137)    0.02 ( 112-> 134)
  46   4.962     249.8   0.039383   0.031891  -4.153753  -7.063789     0.12 ( 115-> 136)    0.10 ( 118-> 136)    0.07 ( 126-> 134)
  47   4.979     249.0   0.171245   0.132892  -23.403285  -19.251359     0.11 ( 118-> 137)    0.08 ( 133-> 141)    0.08 ( 115-> 136)

-----------------------------------------------------------------------------
         ABSORPTION SPECTRUM VIA TRANSITION ELECTRIC DIPOLE MOMENTS
-----------------------------------------------------------------------------
State   Energy  Wavelength   fosc         T2         TX        TY        TZ  
        (cm-1)    (nm)                  (au**2)     (au)      (au)      (au) 
-----------------------------------------------------------------------------
   0   17151.6    583.0   3.016952744  57.90804   5.80615   4.63338  -1.65177
   1   20653.6    484.2   0.037502874   0.59778  -0.23211   0.73743   0.01045
   2   24226.1    412.8   0.054659358   0.74277   0.68835   0.51730  -0.03676
   3   24811.1    403.0   0.040169826   0.53300  -0.25145  -0.30897  -0.61181
   4   25255.7    395.9   0.100153170   1.30551   0.17383  -0.13759   1.12088
   5   25867.3    386.6   0.072306219   0.92024   0.58398   0.73998  -0.17786
   6   27351.6    365.6   0.008891053   0.10702   0.16525   0.12081  -0.25518
   7   28993.9    344.9   0.105444349   1.19727   0.99722   0.44154   0.08866
   8   29518.1    338.8   0.013941390   0.15549   0.18557   0.30943   0.15908
   9   30167.1    331.5   0.003834086   0.04184   0.13389   0.08892   0.12652
  10   30281.3    330.2   0.026444179   0.28750   0.35821   0.39466  -0.05849
  11   30359.8    329.4   0.153520437   1.66473   0.35676   0.31031  -1.20048
  12   30390.9    329.0   0.056775195   0.61502  -0.24222  -0.17318   0.72551
  13   30876.1    323.9   0.217877458   2.32309  -0.55852  -0.45770  -1.34225
  14   31591.2    316.5   0.020549793   0.21415   0.02116   0.07782   0.45568
  15   31797.9    314.5   0.006266711   0.06488  -0.15028  -0.16151  -0.12732
  16   31815.8    314.3   0.000278305   0.00288   0.05305   0.00462   0.00664
  17   32117.4    311.4   0.038493985   0.39457   0.36274   0.51036   0.05029
  18   32221.9    310.3   0.012176279   0.12441   0.11437   0.00065  -0.33365
  19   32358.7    309.0   0.000647903   0.00659   0.06412   0.04817   0.01265
  20   32532.4    307.4   0.007608316   0.07699   0.25011   0.07216   0.09607
  21   33397.7    299.4   0.204787886   2.01866   0.46717   0.48349  -1.25166
  22   33894.4    295.0   0.010738480   0.10430   0.01408  -0.21150   0.24366
  23   34075.9    293.5   0.040465704   0.39094  -0.25621  -0.30322   0.48307
  24   34407.1    290.6   0.129445800   1.23856  -0.18116  -0.13925   1.08920
  25   34565.4    289.3   0.143846101   1.37004  -0.00050   0.10409   1.16585
  26   34745.5    287.8   0.200105914   1.89599  -0.71392  -0.62644  -0.99694
  27   35266.9    283.6   0.013468130   0.12572   0.24200   0.23390  -0.11158
  28   35359.3    282.8   0.148227035   1.38006  -0.37216  -0.32958  -1.06440
  29   35444.5    282.1   0.162633629   1.51056   0.54944   0.47596   0.99103
  30   35501.8    281.7   0.042332235   0.39255   0.11115   0.19507  -0.58493
  31   35784.1    279.5   0.032847515   0.30220  -0.09267  -0.21131  -0.49895
  32   35987.1    277.9   0.173180100   1.58426  -0.28891  -0.09575   1.22132
  33   36108.3    276.9   0.087280805   0.79577   0.05947   0.09924   0.88452
  34   36207.1    276.2   0.276058320   2.51005  -0.11833  -0.32493  -1.54611
  35   36706.0    272.4   0.066899943   0.60002  -0.58422  -0.27354   0.42882
  36   36956.3    270.6   0.001138651   0.01014  -0.03471   0.08356   0.04424
  37   37151.6    269.2   0.082373383   0.72994   0.74250   0.41983   0.04873
  38   37543.9    266.4   0.003589512   0.03148   0.09234   0.09215   0.12023
  39   37672.9    265.4   0.003702537   0.03236   0.16757   0.06092  -0.02374
  40   38268.6    261.3   0.047679879   0.41017  -0.19386   0.12299   0.59788
  41   38307.5    261.0   0.030192472   0.25947  -0.38990  -0.17907   0.27456
  42   38504.9    259.7   0.073089165   0.62490   0.01709   0.16323   0.77328
  43   38852.3    257.4   0.009184837   0.07783  -0.07670  -0.13934   0.22919
  44   39108.3    255.7   0.001068114   0.00899  -0.03529   0.01296   0.08705
  45   39708.1    251.8   0.000214469   0.00178  -0.01776  -0.02049   0.03229
  46   40024.3    249.8   0.039382936   0.32394  -0.23842  -0.28408   0.43173
  47   40160.1    249.0   0.171244924   1.40378   0.98380   0.65456   0.08634

-----------------------------------------------------------------------------
         ABSORPTION SPECTRUM VIA TRANSITION VELOCITY DIPOLE MOMENTS
-----------------------------------------------------------------------------
State   Energy  Wavelength   fosc         P2         PX        PY        PZ  
        (cm-1)    (nm)                  (au**2)     (au)      (au)      (au) 
-----------------------------------------------------------------------------
   0   17151.6    583.0   3.473847474   0.40721   0.48784   0.38829  -0.13586
   1   20653.6    484.2   0.041840422   0.00591  -0.02816   0.07148   0.00182
   2   24226.1    412.8   0.049031078   0.00812   0.07188   0.05432   0.00104
   3   24811.1    403.0   0.029199680   0.00495  -0.02423  -0.03113  -0.05827
   4   25255.7    395.9   0.097225315   0.01678   0.02360  -0.01274   0.12674
   5   25867.3    386.6   0.077625868   0.01372   0.07190   0.09070  -0.01807
   6   27351.6    365.6   0.007812943   0.00146   0.02008   0.01565  -0.02850
   7   28993.9    344.9   0.115649026   0.02292   0.13646   0.06484   0.00951
   8   29518.1    338.8   0.009502460   0.00192   0.01574   0.03610   0.01914
   9   30167.1    331.5   0.003132607   0.00065   0.01722   0.01003   0.01577
  10   30281.3    330.2   0.021537923   0.00446   0.04392   0.04971  -0.00758
  11   30359.8    329.4   0.137909157   0.02862   0.04815   0.04102  -0.15689
  12   30390.9    329.0   0.052655618   0.01094  -0.03357  -0.02515   0.09580
  13   30876.1    323.9   0.194433125   0.04103  -0.07571  -0.06166  -0.17747
  14   31591.2    316.5   0.015821174   0.00342   0.00647   0.01311   0.05659
  15   31797.9    314.5   0.004336993   0.00094  -0.01768  -0.02009  -0.01504
  16   31815.8    314.3   0.000164642   0.00004   0.00594  -0.00042  -0.00059
  17   32117.4    311.4   0.033737281   0.00741   0.04905   0.06987   0.01087
  18   32221.9    310.3   0.008694389   0.00191   0.01235  -0.00296  -0.04187
  19   32358.7    309.0   0.000590352   0.00013   0.00881   0.00706   0.00173
  20   32532.4    307.4   0.006818202   0.00152   0.03379   0.00998   0.01657
  21   33397.7    299.4   0.188662820   0.04306   0.06956   0.07079  -0.18224
  22   33894.4    295.0   0.008456272   0.00196   0.00059  -0.02903   0.03340
  23   34075.9    293.5   0.033230752   0.00774  -0.03722  -0.04394   0.06650
  24   34407.1    290.6   0.118882496   0.02796  -0.02515  -0.02048   0.16403
  25   34565.4    289.3   0.122199538   0.02887  -0.00017   0.01493   0.16925
  26   34745.5    287.8   0.177817705   0.04223  -0.10690  -0.09558  -0.14718
  27   35266.9    283.6   0.012203979   0.00294   0.03770   0.03678  -0.01294
  28   35359.3    282.8   0.122058460   0.02950  -0.05358  -0.04835  -0.15585
  29   35444.5    282.1   0.148773210   0.03604   0.08255   0.07329   0.15444
  30   35501.8    281.7   0.034391174   0.00834   0.01831   0.02988  -0.08436
  31   35784.1    279.5   0.026666017   0.00652  -0.01637  -0.03217  -0.07224
  32   35987.1    277.9   0.148415825   0.03650  -0.04469  -0.01881   0.18480
  33   36108.3    276.9   0.074034930   0.01827   0.00730   0.01349   0.13429
  34   36207.1    276.2   0.226327707   0.05601  -0.01793  -0.04865  -0.23091
  35   36706.0    272.4   0.053558516   0.01344  -0.08833  -0.04012   0.06343
  36   36956.3    270.6   0.000922031   0.00023  -0.00661   0.01275   0.00516
  37   37151.6    269.2   0.064774370   0.01645   0.11173   0.06270   0.00559
  38   37543.9    266.4   0.003278751   0.00084   0.01562   0.01673   0.01782
  39   37672.9    265.4   0.003785202   0.00097   0.02738   0.01088  -0.01031
  40   38268.6    261.3   0.038058432   0.00995  -0.02761   0.02153   0.09343
  41   38307.5    261.0   0.025450362   0.00666  -0.06205  -0.02929   0.04421
  42   38504.9    259.7   0.055262727   0.01454  -0.00013   0.02350   0.11828
  43   38852.3    257.4   0.006313152   0.00168  -0.01295  -0.02398   0.03056
  44   39108.3    255.7   0.001029992   0.00028  -0.00441   0.00308   0.01569
  45   39708.1    251.8   0.000211066   0.00006  -0.00456  -0.00559   0.00228
  46   40024.3    249.8   0.031890738   0.00872  -0.03668  -0.04452   0.07346
  47   40160.1    249.0   0.132892013   0.03648   0.15859   0.10500   0.01730

-------------------------------------------------------------------
                             CD SPECTRUM
-------------------------------------------------------------------
State   Energy Wavelength       R         MX        MY        MZ   
        (cm-1)   (nm)       (1e40*cgs)   (au)      (au)      (au)  
-------------------------------------------------------------------
   0   17151.6    583.0    -131.24749  -1.76064   1.81479  -1.43527
   1   20653.6    484.2    137.92686  -0.05028  -0.78699  -1.57354
   2   24226.1    412.8      5.81807  -1.43245   1.84227  -0.22713
   3   24811.1    403.0      2.03871   0.91526  -1.20003   0.24400
   4   25255.7    395.9    -44.15112  -0.30275   1.49783   0.39792
   5   25867.3    386.6    -11.34050  -0.43633   0.20708  -0.84163
   6   27351.6    365.6      1.69269   0.05783  -0.16904  -0.01444
   7   28993.9    344.9    -89.08979   0.23640   0.26879   0.26530
   8   29518.1    338.8     30.28023  -0.13854  -0.02670  -0.59397
   9   30167.1    331.5    -15.69284   0.19344   0.29988   0.11071
  10   30281.3    330.2    -23.92521  -1.88312   1.91341  -0.35737
  11   30359.8    329.4    -39.66395  -0.91919   0.10853  -0.38528
  12   30390.9    329.0     54.00828   0.38192   0.43918  -0.08346
  13   30876.1    323.9     30.88434   3.18398  -5.34917   0.59677
  14   31591.2    316.5     -3.04914   0.01161   0.21772  -0.00934
  15   31797.9    314.5     -4.12085   0.24821  -0.46094   0.15444
  16   31815.8    314.3      2.13187  -0.19772  -0.21076   0.36435
  17   32117.4    311.4     29.39759   0.42051  -0.48957  -0.54475
  18   32221.9    310.3     34.85627  -0.89581   0.79842   0.13769
  19   32358.7    309.0      7.84768  -0.19306  -0.37089  -0.24088
  20   32532.4    307.4      7.75213  -0.39304   0.79544   0.08346
  21   33397.7    299.4     53.25205  -0.33989  -0.98287  -0.32603
  22   33894.4    295.0    -12.78140   0.29467  -0.02392   0.18474
  23   34075.9    293.5    -23.72864   0.85595  -0.32940   0.45560
  24   34407.1    290.6     18.06673   1.60808  -0.68803   0.10913
  25   34565.4    289.3     14.13626  -0.06109   1.38773  -0.17537
  26   34745.5    287.8     10.13471   3.98882  -5.98542   0.94768
  27   35266.9    283.6     17.22992   3.14112  -3.60825  -0.09601
  28   35359.3    282.8    -36.35920  -3.33516   2.79200   0.15668
  29   35444.5    282.1    -12.42369  -1.76190   3.50994  -0.65570
  30   35501.8    281.7     11.42381   0.39776  -1.28790  -0.27107
  31   35784.1    279.5     21.74031  -0.34807  -0.00674   0.25235
  32   35987.1    277.9      0.85679  -3.06530   4.86552  -0.34663
  33   36108.3    276.9     37.12636  -1.22860   2.46268  -0.37177
  34   36207.1    276.2     82.29739   1.58015  -3.53755   0.84831
  35   36706.0    272.4    -42.88229  -2.00224   2.74625  -0.55179
  36   36956.3    270.6      0.81166  -0.09643   0.11417  -0.36915
  37   37151.6    269.2    -54.84653   0.76131  -0.80214   0.08542
  38   37543.9    266.4     -5.77624  -0.39016   0.76328  -0.08157
  39   37672.9    265.4      5.67716  -0.24627   0.38048   0.25255
  40   38268.6    261.3     21.76644  -0.47738   1.09968  -0.53545
  41   38307.5    261.0     12.19923  -0.11764   0.21360  -0.21624
  42   38504.9    259.7      4.13398  -1.32232   2.15914  -0.44923
  43   38852.3    257.4    -13.92437  -0.03874   0.22472   0.38141
  44   39108.3    255.7      1.96194   0.03293   0.12764  -0.10127
  45   39708.1    251.8      0.19751  -0.00948  -0.01077  -0.03799
  46   40024.3    249.8     -4.15375  -0.29716   0.95027   0.50199
  47   40160.1    249.0    -23.40329  -0.68455   1.19763  -0.12947

sTD-DFT done

Total run time:        9.137 sec

           *** ORCA-CIS/TD-DFT FINISHED WITHOUT ERROR ***

-------------------------   --------------------
FINAL SINGLE POINT ENERGY     -6533.384605850111
-------------------------   --------------------


                            ***************************************
                            *     ORCA property calculations      *
                            ***************************************

                                    ---------------------
                                    Active property flags
                                    ---------------------
   (+) Dipole Moment


------------------------------------------------------------------------------
                       ORCA ELECTRIC PROPERTIES CALCULATION
------------------------------------------------------------------------------

Dipole Moment Calculation                       ... on
Quadrupole Moment Calculation                   ... off
Polarizability Calculation                      ... off
GBWName                                         ... TPIC-4Cl.gbw
Electron density file                           ... TPIC-4Cl.scfp
The origin for moment calculation is the CENTER OF MASS  = (11.873627,  4.123992 -4.565462)

-------------
DIPOLE MOMENT
-------------
                                X             Y             Z
Electronic contribution:     33.64417       8.48180      49.18341
Nuclear contribution   :    -34.52588      -8.12812     -48.17316
                        -----------------------------------------
Total Dipole Moment    :     -0.88171       0.35367       1.01025
                        -----------------------------------------
Magnitude (a.u.)       :      1.38676
Magnitude (Debye)      :      3.52486



--------------------
Rotational spectrum 
--------------------
 
Rotational constants in cm-1:     0.000884     0.000172     0.000159 
Rotational constants in MHz :    26.496644     5.169371     4.770861 

 Dipole components along the rotational axes: 
x,y,z [a.u.] :     0.709321     0.757473    -0.919888 
x,y,z [Debye]:     1.802951     1.925343    -2.338169 

 

Timings for individual modules:

Sum of individual times         ...     6698.425 sec (= 111.640 min)
GTO integral calculation        ...        5.257 sec (=   0.088 min)   0.1 %
SCF iterations                  ...     6683.950 sec (= 111.399 min)  99.8 %
CIS module                      ...        9.218 sec (=   0.154 min)   0.1 %
                             ****ORCA TERMINATED NORMALLY****
TOTAL RUN TIME: 0 days 1 hours 51 minutes 39 seconds 231 msec
