
                                 *****************
                                 * O   R   C   A *
                                 *****************

           --- An Ab Initio, DFT and Semiempirical electronic structure package ---

                  #######################################################
                  #                        -***-                        #
                  #          Department of theory and spectroscopy      #
                  #               Directorship: Frank Neese             #
                  #        Max Planck Institute fuer Kohlenforschung    #
                  #                Kaiser Wilhelm Platz 1               #
                  #                 D-45470 Muelheim/Ruhr               #
                  #                      Germany                        #
                  #                                                     #
                  #                  All rights reserved                #
                  #                        -***-                        #
                  #######################################################


                         Program Version 4.2.0 -  RELEASE  -


 With contributions from (in alphabetic order):
   Daniel Aravena         : Magnetic Suceptibility
   Michael Atanasov       : Ab Initio Ligand Field Theory (pilot matlab implementation)
   Alexander A. Auer      : GIAO ZORA, VPT2
   Ute Becker             : Parallelization
   Giovanni Bistoni       : ED, misc. LED, open-shell LED, HFLED
   Martin Brehm           : Molecular dynamics
   Dmytro Bykov           : SCF Hessian
   Vijay G. Chilkuri      : MRCI spin determinant printing, contributions to CSF-ICE
   Dipayan Datta          : RHF DLPNO-CCSD density
   Achintya Kumar Dutta   : EOM-CC, STEOM-CC
   Dmitry Ganyushin       : Spin-Orbit,Spin-Spin,Magnetic field MRCI
   Miquel Garcia          : C-PCM Hessian, Gaussian charge scheme
   Yang Guo               : DLPNO-NEVPT2, CIM, IAO-localization
   Andreas Hansen         : Spin unrestricted coupled pair/coupled cluster methods
   Benjamin Helmich-Paris : CASSCF linear response (MC-RPA)
   Lee Huntington         : MR-EOM, pCC
   Robert Izsak           : Overlap fitted RIJCOSX, COSX-SCS-MP3, EOM
   Christian Kollmar      : KDIIS, OOCD, Brueckner-CCSD(T), CCSD density
   Simone Kossmann        : Meta GGA functionals, TD-DFT gradient, OOMP2, MP2 Hessian
   Martin Krupicka        : AUTO-CI
   Lucas Lang             : DCDCAS
   Dagmar Lenk            : GEPOL surface, SMD
   Dimitrios Liakos       : Extrapolation schemes; Compound Job, initial MDCI parallelization
   Dimitrios Manganas     : Further ROCIS development; embedding schemes
   Dimitrios Pantazis     : SARC Basis sets
   Taras Petrenko         : DFT Hessian,TD-DFT gradient, ASA, ECA, R-Raman, ABS, FL, XAS/XES, NRVS
   Peter Pinski           : DLPNO-MP2, DLPNO-MP2 Gradient
   Christoph Reimann      : Effective Core Potentials
   Marius Retegan         : Local ZFS, SOC
   Christoph Riplinger    : Optimizer, TS searches, QM/MM, DLPNO-CCSD(T), (RO)-DLPNO pert. Triples
   Tobias Risthaus        : Range-separated hybrids, TD-DFT gradient, RPA, STAB
   Michael Roemelt        : Original ROCIS implementation
   Masaaki Saitow         : Open-shell DLPNO-CCSD energy and density
   Barbara Sandhoefer     : DKH picture change effects
   Avijit Sen             : IP-ROCIS
   Kantharuban Sivalingam : CASSCF convergence, NEVPT2, FIC-MRCI
   Bernardo de Souza      : ESD, SOC TD-DFT
   Georgi Stoychev        : AutoAux, RI-MP2 NMR
   Willem Van den Heuvel  : Paramagnetic NMR
   Boris Wezisla          : Elementary symmetry handling
   Frank Wennmohs         : Technical directorship


 We gratefully acknowledge several colleagues who have allowed us to
 interface, adapt or use parts of their codes:
   Stefan Grimme, W. Hujo, H. Kruse,             : VdW corrections, initial TS optimization,
                  C. Bannwarth                     DFT functionals, gCP, sTDA/sTD-DF
   Ed Valeev, F. Pavosevic, A. Kumar             : LibInt (2-el integral package), F12 methods
   Garnet Chan, S. Sharma, J. Yang, R. Olivares  : DMRG
   Ulf Ekstrom                                   : XCFun DFT Library
   Mihaly Kallay                                 : mrcc  (arbitrary order and MRCC methods)
   Andreas Klamt, Michael Diedenhofen            : otool_cosmo (COSMO solvation model)
   Jiri Pittner, Ondrej Demel                    : Mk-CCSD
   Frank Weinhold                                : gennbo (NPA and NBO analysis)
   Christopher J. Cramer and Donald G. Truhlar   : smd solvation model
   Lars Goerigk                                  : TD-DFT with DH, B97 family of functionals
   V. Asgeirsson, H. Jonsson                     : NEB implementation
   FAccTs GmbH                                   : IRC, NEB, NEB-TS, Multilevel, MM, QM/MM, CI optimization
   S Lehtola, MJT Oliveira, MAL Marques          : LibXC Library


 Your calculation uses the libint2 library for the computation of 2-el integrals
 For citations please refer to: http://libint.valeyev.net

 Your ORCA version has been built with support for libXC version: 4.2.3
 For citations please refer to: https://tddft.org/programs/libxc/

 This ORCA versions uses:
   CBLAS   interface :  Fast vector & matrix operations
   LAPACKE interface :  Fast linear algebra routines
   SCALAPACK package :  Parallel linear algebra routines


XCFun DFT library Copyright 2009-2010 Ulf Ekstrom and contributors.
See http://admol.org/xcfun for more information. This is free soft-
ware; see the source code for copying conditions. There is ABSOLUTELY
NO WARRANTY; not even for MERCHANTABILITY or FITNESS FOR A PARTICULAR
PURPOSE. For details see the documentation. Scientific users of this 
library should cite U. Ekstrom, L. Visscher, R. Bast, A. J. Thorvald-
sen and K. Ruud; J.Chem.Theor.Comp. 2010, DOI: 10.1021/ct100117s
XCFun Version 0.99 
----- Orbital basis set information -----
Your calculation utilizes the basis: def2-SVP
   F. Weigend and R. Ahlrichs, Phys. Chem. Chem. Phys. 7, 3297 (2005).

----- AuxJ basis set information -----
Your calculation utilizes the auxiliary basis: def2/J
   F. Weigend, Phys. Chem. Chem. Phys. 8, 1057 (2006).

================================================================================
                                        WARNINGS
                       Please study these warnings very carefully!
================================================================================

INFO   : Checking CIS options ...

WARNING: CIS/ROCIS methods need fully converged wavefunctions
  ===> : Setting SCFConvForced true
         You can overwrite this default with %scf ConvForced false 


INFO   : the flag for use of LIBINT has been found!

================================================================================
                                       INPUT FILE
================================================================================
NAME = TPIC-4Cl.inp
|  1> # ORCA input file
|  2> # TPIC-4Cl.out
|  3> ! CAM-B3LYP def2-SVP def2/J RIJCOSX Grid4 TightSCF
|  4> %maxcore 5000
|  5> %tddft
|  6>     Mode sTDDFT
|  7>     Ethresh 5.0
|  8>     maxcore 5000
|  9> end
| 10> * xyz 0 1
| 11>    C        0.08790        -2.59318        -1.36465
| 12>    C       -0.79290        -3.01259        -0.39692
| 13>    C       -2.00621        -3.75470        -0.69516
| 14>    C       -2.77377        -3.86881         0.54372
| 15>    C       -2.03544        -3.28398         1.58420
| 16>    C       -0.76092        -2.74974         1.05599
| 17>    C       -4.01524        -4.42185         0.81256
| 18>    C       -4.49429        -4.38234         2.11756
| 19>    C       -3.74737        -3.80276         3.14842
| 20>    C       -2.50312        -3.24610         2.88144
| 21>   Cl       -4.36903        -3.77486         4.74916
| 22>   Cl       -6.03543        -5.06056         2.45805
| 23>    O        0.09902        -2.21146         1.72278
| 24>    C       -2.38280        -4.30088        -1.89546
| 25>    C       -3.58624        -5.01050        -2.09705
| 26>    C       -1.64782        -4.27629        -3.10012
| 27>    N       -4.54497        -5.59331        -2.33997
| 28>    N       -1.12624        -4.32510        -4.12278
| 29>    C        1.28132        -1.86075        -1.29405
| 30>    S        2.01275        -1.43704        -2.85069
| 31>    C        3.26577        -0.60447        -2.04906
| 32>    C        3.14222        -0.65845        -0.65944
| 33>    C        2.03719        -1.36838        -0.23108
| 34>    C       12.26962         8.21590        -5.52463
| 35>    C       13.01386         9.12555        -4.81002
| 36>    C       13.84218        10.16789        -5.37840
| 37>    C       14.44218        10.90434        -4.26505
| 38>    C       14.00066        10.33791        -3.05704
| 39>    C       13.09541         9.20697        -3.34949
| 40>    C       15.30534        11.98680        -4.23741
| 41>    C       15.71200        12.48447        -3.00348
| 42>    C       15.26650        11.91336        -1.80747
| 43>    C       14.40042        10.82677        -1.83121
| 44>   Cl       15.78855        12.55407        -0.30202
| 45>   Cl       16.78225        13.82752        -2.96127
| 46>    O       12.54219         8.49923        -2.52841
| 47>    C       14.04572        10.44817        -6.70640
| 48>    C       14.87155        11.49042        -7.17757
| 49>    C       13.47381         9.75839        -7.79504
| 50>    N       15.52549        12.31755        -7.63186
| 51>    N       13.05201         9.25590        -8.73871
| 52>    C        4.39944         0.17384        -2.42574
| 53>    C        5.01394         0.61534        -1.22999
| 54>    C        4.29745         0.06100        -0.01091
| 55>    C        4.87993         0.53609        -3.68343
| 56>    C        5.97063         1.37006        -3.72547
| 57>    C        6.53754         1.86936        -2.52839
| 58>    C        6.07911         1.48380        -1.27159
| 59>    C        6.69305         1.93869        -4.94470
| 60>    C        7.62651         2.92576        -4.28106
| 61>    C        7.53246         2.82249        -2.90072
| 62>    C        8.53574         3.92087        -4.64750
| 63>    C        9.11467         4.55125        -3.51207
| 64>    S        8.53976         3.91046        -2.00740
| 65>    N        9.05353         4.47112        -5.78854
| 66>    C        9.92019         5.46292        -5.40189
| 67>    C        9.98728         5.52786        -3.98164
| 68>    C       10.72848         6.39311        -6.02157
| 69>    C       11.42013         7.19056        -5.09900
| 70>    S       11.05943         6.75193        -3.42611
| 71>    C        3.89885         1.20737         0.89731
| 72>    C        8.65946         4.20167        -7.14753
| 73>    C        7.65286         5.23322        -7.65066
| 74>    C        5.10644        -0.98619         0.73899
| 75>    C        7.44384         0.80954        -5.63309
| 76>    C        5.72064         2.67150        -5.85357
| 77>    C        6.26618        -1.53725         0.21559
| 78>    C        6.94993        -2.51703         0.91388
| 79>    C        6.49141        -2.97300         2.14154
| 80>    C        5.32058        -2.42642         2.65310
| 81>    C        4.63414        -1.44769         1.96220
| 82>    C        2.67040         1.83804         0.76480
| 83>    C        2.34100         2.90742         1.57765
| 84>    C        3.22937         3.37786         2.53485
| 85>    C        4.46412         2.75247         2.65243
| 86>    C        4.79706         1.68186         1.84541
| 87>    C        4.86480         3.60591        -5.27937
| 88>    C        3.97887         4.32426        -6.05809
| 89>    C        3.91842         4.12953        -7.43268
| 90>    C        4.77588         3.19897        -8.00196
| 91>    C        5.66909         2.48046        -7.22684
| 92>    C        8.83110         0.75175        -5.63862
| 93>    C        9.49361        -0.29377        -6.25729
| 94>    C        8.79420        -1.31662        -6.88073
| 95>    C        7.40618        -1.26053        -6.86987
| 96>    C        6.74114        -0.21769        -6.25530
| 97>    C        7.21103        -4.06848         2.87377
| 98>    C        6.66338        -5.43565         2.45895
| 99>    C        2.88736         4.56433         3.38893
|100>    C        3.36863         5.85666         2.72613
|101>    C        9.51478        -2.42517        -7.59078
|102>    C        9.75258        -2.05522        -9.05645
|103>    C        2.99463         4.94590        -8.28831
|104>    C        3.71113         6.19786        -8.79892
|105>    H       -0.18809        -2.84223        -2.38263
|106>    H       -4.62194        -4.87607         0.04692
|107>    H       -1.91565        -2.79359         3.66461
|108>    H        1.75454        -1.52774         0.79246
|109>    H       12.32671         8.29260        -6.60364
|110>    H       15.67088        12.45497        -5.13636
|111>    H       14.04801        10.37592        -0.91704
|112>    H        4.37751         0.18809        -4.57176
|113>    H        6.53622         1.87254        -0.37503
|114>    H       10.83660         6.52625        -7.08312
|115>    H        8.22573         3.20103        -7.18204
|116>    H        9.55721         4.21755        -7.77306
|117>    H        6.76106         5.22462        -7.02895
|118>    H        7.36524         5.00060        -8.67162
|119>    H        8.08665         6.23001        -7.62669
|120>    H        6.64443        -1.20222        -0.73938
|121>    H        7.85605        -2.93138         0.49507
|122>    H        4.94241        -2.77090         3.60476
|123>    H        3.72874        -1.03050         2.37744
|124>    H        1.96117         1.48990         0.02790
|125>    H        1.37556         3.38057         1.46788
|126>    H        5.17208         3.10445         3.38920
|127>    H        5.75700         1.19983         1.96308
|128>    H        4.89457         3.76944        -4.21124
|129>    H        3.32272         5.04496        -5.59155
|130>    H        4.74710         3.03071        -9.06897
|131>    H        6.32284         1.76639        -7.70560
|132>    H        9.41199         1.52310        -5.15565
|133>    H       10.57406        -0.31344        -6.24873
|134>    H        6.83678        -2.04541        -7.34672
|135>    H        5.66277        -0.19958        -6.27314
|136>    H        7.08167        -3.94126         3.95036
|137>    H        8.27876        -4.02536         2.64968
|138>    H        5.60137        -5.50168         2.68435
|139>    H        7.18184        -6.23064         2.98976
|140>    H        6.79540        -5.58736         1.38991
|141>    H        3.36169         4.46450         4.36725
|142>    H        1.80692         4.61578         3.53643
|143>    H        4.44639         5.82970         2.58200
|144>    H        3.12212         6.71625         3.34489
|145>    H        2.89718         5.98131         1.75376
|146>    H        8.92291        -3.34123        -7.54283
|147>    H       10.47525        -2.61212        -7.10669
|148>    H        8.80531        -1.87830        -9.56112
|149>    H       10.27489        -2.85817        -9.57085
|150>    H       10.35227        -1.15027        -9.12632
|151>    H        2.11833         5.24309        -7.70959
|152>    H        2.65736         4.35253        -9.14022
|153>    H        4.04860         6.80826        -7.96427
|154>    H        3.04268         6.79301        -9.41605
|155>    H        4.57937         5.92244        -9.39335
|156> *
|157> 
|158>                          ****END OF INPUT****
================================================================================

                       ****************************
                       * Single Point Calculation *
                       ****************************

---------------------------------
CARTESIAN COORDINATES (ANGSTROEM)
---------------------------------
  C      0.087900   -2.593180   -1.364650
  C     -0.792900   -3.012590   -0.396920
  C     -2.006210   -3.754700   -0.695160
  C     -2.773770   -3.868810    0.543720
  C     -2.035440   -3.283980    1.584200
  C     -0.760920   -2.749740    1.055990
  C     -4.015240   -4.421850    0.812560
  C     -4.494290   -4.382340    2.117560
  C     -3.747370   -3.802760    3.148420
  C     -2.503120   -3.246100    2.881440
  Cl    -4.369030   -3.774860    4.749160
  Cl    -6.035430   -5.060560    2.458050
  O      0.099020   -2.211460    1.722780
  C     -2.382800   -4.300880   -1.895460
  C     -3.586240   -5.010500   -2.097050
  C     -1.647820   -4.276290   -3.100120
  N     -4.544970   -5.593310   -2.339970
  N     -1.126240   -4.325100   -4.122780
  C      1.281320   -1.860750   -1.294050
  S      2.012750   -1.437040   -2.850690
  C      3.265770   -0.604470   -2.049060
  C      3.142220   -0.658450   -0.659440
  C      2.037190   -1.368380   -0.231080
  C     12.269620    8.215900   -5.524630
  C     13.013860    9.125550   -4.810020
  C     13.842180   10.167890   -5.378400
  C     14.442180   10.904340   -4.265050
  C     14.000660   10.337910   -3.057040
  C     13.095410    9.206970   -3.349490
  C     15.305340   11.986800   -4.237410
  C     15.712000   12.484470   -3.003480
  C     15.266500   11.913360   -1.807470
  C     14.400420   10.826770   -1.831210
  Cl    15.788550   12.554070   -0.302020
  Cl    16.782250   13.827520   -2.961270
  O     12.542190    8.499230   -2.528410
  C     14.045720   10.448170   -6.706400
  C     14.871550   11.490420   -7.177570
  C     13.473810    9.758390   -7.795040
  N     15.525490   12.317550   -7.631860
  N     13.052010    9.255900   -8.738710
  C      4.399440    0.173840   -2.425740
  C      5.013940    0.615340   -1.229990
  C      4.297450    0.061000   -0.010910
  C      4.879930    0.536090   -3.683430
  C      5.970630    1.370060   -3.725470
  C      6.537540    1.869360   -2.528390
  C      6.079110    1.483800   -1.271590
  C      6.693050    1.938690   -4.944700
  C      7.626510    2.925760   -4.281060
  C      7.532460    2.822490   -2.900720
  C      8.535740    3.920870   -4.647500
  C      9.114670    4.551250   -3.512070
  S      8.539760    3.910460   -2.007400
  N      9.053530    4.471120   -5.788540
  C      9.920190    5.462920   -5.401890
  C      9.987280    5.527860   -3.981640
  C     10.728480    6.393110   -6.021570
  C     11.420130    7.190560   -5.099000
  S     11.059430    6.751930   -3.426110
  C      3.898850    1.207370    0.897310
  C      8.659460    4.201670   -7.147530
  C      7.652860    5.233220   -7.650660
  C      5.106440   -0.986190    0.738990
  C      7.443840    0.809540   -5.633090
  C      5.720640    2.671500   -5.853570
  C      6.266180   -1.537250    0.215590
  C      6.949930   -2.517030    0.913880
  C      6.491410   -2.973000    2.141540
  C      5.320580   -2.426420    2.653100
  C      4.634140   -1.447690    1.962200
  C      2.670400    1.838040    0.764800
  C      2.341000    2.907420    1.577650
  C      3.229370    3.377860    2.534850
  C      4.464120    2.752470    2.652430
  C      4.797060    1.681860    1.845410
  C      4.864800    3.605910   -5.279370
  C      3.978870    4.324260   -6.058090
  C      3.918420    4.129530   -7.432680
  C      4.775880    3.198970   -8.001960
  C      5.669090    2.480460   -7.226840
  C      8.831100    0.751750   -5.638620
  C      9.493610   -0.293770   -6.257290
  C      8.794200   -1.316620   -6.880730
  C      7.406180   -1.260530   -6.869870
  C      6.741140   -0.217690   -6.255300
  C      7.211030   -4.068480    2.873770
  C      6.663380   -5.435650    2.458950
  C      2.887360    4.564330    3.388930
  C      3.368630    5.856660    2.726130
  C      9.514780   -2.425170   -7.590780
  C      9.752580   -2.055220   -9.056450
  C      2.994630    4.945900   -8.288310
  C      3.711130    6.197860   -8.798920
  H     -0.188090   -2.842230   -2.382630
  H     -4.621940   -4.876070    0.046920
  H     -1.915650   -2.793590    3.664610
  H      1.754540   -1.527740    0.792460
  H     12.326710    8.292600   -6.603640
  H     15.670880   12.454970   -5.136360
  H     14.048010   10.375920   -0.917040
  H      4.377510    0.188090   -4.571760
  H      6.536220    1.872540   -0.375030
  H     10.836600    6.526250   -7.083120
  H      8.225730    3.201030   -7.182040
  H      9.557210    4.217550   -7.773060
  H      6.761060    5.224620   -7.028950
  H      7.365240    5.000600   -8.671620
  H      8.086650    6.230010   -7.626690
  H      6.644430   -1.202220   -0.739380
  H      7.856050   -2.931380    0.495070
  H      4.942410   -2.770900    3.604760
  H      3.728740   -1.030500    2.377440
  H      1.961170    1.489900    0.027900
  H      1.375560    3.380570    1.467880
  H      5.172080    3.104450    3.389200
  H      5.757000    1.199830    1.963080
  H      4.894570    3.769440   -4.211240
  H      3.322720    5.044960   -5.591550
  H      4.747100    3.030710   -9.068970
  H      6.322840    1.766390   -7.705600
  H      9.411990    1.523100   -5.155650
  H     10.574060   -0.313440   -6.248730
  H      6.836780   -2.045410   -7.346720
  H      5.662770   -0.199580   -6.273140
  H      7.081670   -3.941260    3.950360
  H      8.278760   -4.025360    2.649680
  H      5.601370   -5.501680    2.684350
  H      7.181840   -6.230640    2.989760
  H      6.795400   -5.587360    1.389910
  H      3.361690    4.464500    4.367250
  H      1.806920    4.615780    3.536430
  H      4.446390    5.829700    2.582000
  H      3.122120    6.716250    3.344890
  H      2.897180    5.981310    1.753760
  H      8.922910   -3.341230   -7.542830
  H     10.475250   -2.612120   -7.106690
  H      8.805310   -1.878300   -9.561120
  H     10.274890   -2.858170   -9.570850
  H     10.352270   -1.150270   -9.126320
  H      2.118330    5.243090   -7.709590
  H      2.657360    4.352530   -9.140220
  H      4.048600    6.808260   -7.964270
  H      3.042680    6.793010   -9.416050
  H      4.579370    5.922440   -9.393350

----------------------------
CARTESIAN COORDINATES (A.U.)
----------------------------
  NO LB      ZA    FRAG     MASS         X           Y           Z
   0 C     6.0000    0    12.011    0.166107   -4.900400   -2.578815
   1 C     6.0000    0    12.011   -1.498364   -5.692970   -0.750070
   2 C     6.0000    0    12.011   -3.791187   -7.095355   -1.313662
   3 C     6.0000    0    12.011   -5.241666   -7.310991    1.027482
   4 C     6.0000    0    12.011   -3.846424   -6.205823    2.993704
   5 C     6.0000    0    12.011   -1.437930   -5.196256    1.995532
   6 C     6.0000    0    12.011   -7.587704   -8.356086    1.535516
   7 C     6.0000    0    12.011   -8.492977   -8.281422    4.001608
   8 C     6.0000    0    12.011   -7.081503   -7.186175    5.949652
   9 C     6.0000    0    12.011   -4.730211   -6.134240    5.445132
  10 Cl   17.0000    0    35.453   -8.256270   -7.133452    8.974612
  11 Cl   17.0000    0    35.453  -11.405310   -9.563072    4.645041
  12 O     8.0000    0    15.999    0.187121   -4.179054    3.255582
  13 C     6.0000    0    12.011   -4.502839   -8.127485   -3.581900
  14 C     6.0000    0    12.011   -6.777011   -9.468473   -3.962850
  15 C     6.0000    0    12.011   -3.113929   -8.081017   -5.858378
  16 N     7.0000    0    14.007   -8.588749  -10.569824   -4.421902
  17 N     7.0000    0    14.007   -2.128285   -8.173255   -7.790925
  18 C     6.0000    0    12.011    2.421344   -3.516308   -2.445400
  19 S    16.0000    0    32.060    3.803546   -2.715612   -5.387023
  20 C     6.0000    0    12.011    6.171411   -1.142283   -3.872162
  21 C     6.0000    0    12.011    5.937935   -1.244290   -1.246161
  22 C     6.0000    0    12.011    3.849731   -2.585863   -0.436678
  23 C     6.0000    0    12.011   23.186222   15.525801  -10.440038
  24 C     6.0000    0    12.011   24.592631   17.244790   -9.089620
  25 C     6.0000    0    12.011   26.157929   19.214527  -10.163703
  26 C     6.0000    0    12.011   27.291765   20.606216   -8.059776
  27 C     6.0000    0    12.011   26.457413   19.535819   -5.776968
  28 C     6.0000    0    12.011   24.746739   17.398652   -6.329619
  29 C     6.0000    0    12.011   28.922901   22.651769   -8.007544
  30 C     6.0000    0    12.011   29.691377   23.592229   -5.675755
  31 C     6.0000    0    12.011   28.849504   22.512988   -3.415623
  32 C     6.0000    0    12.011   27.212850   20.459630   -3.460485
  33 Cl   17.0000    0    35.453   29.836036   23.723754   -0.570735
  34 Cl   17.0000    0    35.453   31.713856   26.130226   -5.595989
  35 O     8.0000    0    15.999   23.701304   16.061217   -4.778002
  36 C     6.0000    0    12.011   26.542564   19.744180  -12.673259
  37 C     6.0000    0    12.011   28.103157   21.713747  -13.563642
  38 C     6.0000    0    12.011   25.461811   18.440685  -14.730491
  39 N     7.0000    0    14.007   29.338924   23.276796  -14.422125
  40 N     7.0000    0    14.007   24.664724   17.491116  -16.513769
  41 C     6.0000    0    12.011    8.313737    0.328510   -4.583984
  42 C     6.0000    0    12.011    9.474973    1.162824   -2.324344
  43 C     6.0000    0    12.011    8.121004    0.115273   -0.020617
  44 C     6.0000    0    12.011    9.221731    1.013063   -6.960674
  45 C     6.0000    0    12.011   11.282856    2.589038   -7.040118
  46 C     6.0000    0    12.011   12.354160    3.532578   -4.777965
  47 C     6.0000    0    12.011   11.487853    2.803976   -2.402957
  48 C     6.0000    0    12.011   12.648032    3.663593   -9.344129
  49 C     6.0000    0    12.011   14.412015    5.528885   -8.090031
  50 C     6.0000    0    12.011   14.234287    5.333733   -5.481566
  51 C     6.0000    0    12.011   16.130211    7.409371   -8.782502
  52 C     6.0000    0    12.011   17.224230    8.600616   -6.636850
  53 S    16.0000    0    32.060   16.137808    7.389698   -3.793436
  54 N     7.0000    0    14.007   17.108692    8.449192  -10.938755
  55 C     6.0000    0    12.011   18.746442   10.323423  -10.208093
  56 C     6.0000    0    12.011   18.873224   10.446142   -7.524209
  57 C     6.0000    0    12.011   20.273889   12.081227  -11.379118
  58 C     6.0000    0    12.011   21.580918   13.588189   -9.635714
  59 S    16.0000    0    32.060   20.899294   12.759299   -6.474410
  60 C     6.0000    0    12.011    7.367759    2.281599    1.695670
  61 C     6.0000    0    12.011   16.364008    7.940006  -13.506874
  62 C     6.0000    0    12.011   14.461810    9.889353  -14.457652
  63 C     6.0000    0    12.011    9.649773   -1.863629    1.396489
  64 C     6.0000    0    12.011   14.066819    1.529809  -10.644997
  65 C     6.0000    0    12.011   10.810443    5.048403  -11.061644
  66 C     6.0000    0    12.011   11.841364   -2.904981    0.407406
  67 C     6.0000    0    12.011   13.133464   -4.756497    1.726983
  68 C     6.0000    0    12.011   12.266987   -5.618156    4.046924
  69 C     6.0000    0    12.011   10.054439   -4.585269    5.013632
  70 C     6.0000    0    12.011    8.757255   -2.735738    3.708021
  71 C     6.0000    0    12.011    5.046325    3.473392    1.445263
  72 C     6.0000    0    12.011    4.423849    5.494228    2.981326
  73 C     6.0000    0    12.011    6.102625    6.383230    4.790172
  74 C     6.0000    0    12.011    8.435964    5.201414    5.012366
  75 C     6.0000    0    12.011    9.065130    3.178255    3.487320
  76 C     6.0000    0    12.011    9.193140    6.814182   -9.976563
  77 C     6.0000    0    12.011    7.518975    8.171667  -11.448131
  78 C     6.0000    0    12.011    7.404741    7.803681  -14.045730
  79 C     6.0000    0    12.011    9.025105    6.045177  -15.121513
  80 C     6.0000    0    12.011   10.713028    4.687390  -13.656748
  81 C     6.0000    0    12.011   16.688360    1.420602  -10.655448
  82 C     6.0000    0    12.011   17.940323   -0.555145  -11.824564
  83 C     6.0000    0    12.011   16.618630   -2.488051  -13.002695
  84 C     6.0000    0    12.011   13.995652   -2.382056  -12.982173
  85 C     6.0000    0    12.011   12.738908   -0.411374  -11.820804
  86 C     6.0000    0    12.011   13.626872   -7.688313    5.430638
  87 C     6.0000    0    12.011   12.591963  -10.271890    4.646742
  88 C     6.0000    0    12.011    5.456320    8.625334    6.404150
  89 C     6.0000    0    12.011    6.365788   11.067483    5.151639
  90 C     6.0000    0    12.011   17.980328   -4.582907  -14.344495
  91 C     6.0000    0    12.011   18.429705   -3.883803  -17.114210
  92 C     6.0000    0    12.011    5.659031    9.346396  -15.662636
  93 C     6.0000    0    12.011    7.013019   11.712258  -16.627549
  94 H     1.0000    0     1.008   -0.355439   -5.371036   -4.502518
  95 H     1.0000    0     1.008   -8.734201   -9.214437    0.088666
  96 H     1.0000    0     1.008   -3.620054   -5.279120    6.925109
  97 H     1.0000    0     1.008    3.315600   -2.887010    1.497532
  98 H     1.0000    0     1.008   23.294106   15.670743  -12.479071
  99 H     1.0000    0     1.008   29.613671   23.536482   -9.706314
 100 H     1.0000    0     1.008   26.546892   19.607647   -1.732954
 101 H     1.0000    0     1.008    8.272295    0.355439   -8.639374
 102 H     1.0000    0     1.008   12.351666    3.538588   -0.708704
 103 H     1.0000    0     1.008   20.478206   12.332825  -13.385157
 104 H     1.0000    0     1.008   15.544377    6.049070  -13.572089
 105 H     1.0000    0     1.008   18.060510    7.970014  -14.688955
 106 H     1.0000    0     1.008   12.776552    9.873101  -13.282791
 107 H     1.0000    0     1.008   13.918287    9.449765  -16.386987
 108 H     1.0000    0     1.008   15.281554   11.773013  -14.412355
 109 H     1.0000    0     1.008   12.556153   -2.271867   -1.397226
 110 H     1.0000    0     1.008   14.845783   -5.539505    0.935547
 111 H     1.0000    0     1.008    9.339801   -5.236242    6.812009
 112 H     1.0000    0     1.008    7.046297   -1.947363    4.492710
 113 H     1.0000    0     1.008    3.706074    2.815503    0.052723
 114 H     1.0000    0     1.008    2.599432    6.388351    2.773891
 115 H     1.0000    0     1.008    9.773815    5.866560    6.404660
 116 H     1.0000    0     1.008   10.879153    2.267350    3.709684
 117 H     1.0000    0     1.008    9.249397    7.123209   -7.958090
 118 H     1.0000    0     1.008    6.279031    9.533593  -10.566498
 119 H     1.0000    0     1.008    8.970719    5.727212  -17.137870
 120 H     1.0000    0     1.008   11.948436    3.337993  -14.561474
 121 H     1.0000    0     1.008   17.786083    2.878242   -9.742767
 122 H     1.0000    0     1.008   19.982078   -0.592316  -11.808388
 123 H     1.0000    0     1.008   12.919642   -3.865265  -13.883289
 124 H     1.0000    0     1.008   10.701084   -0.377152  -11.854517
 125 H     1.0000    0     1.008   13.382417   -7.447902    7.465099
 126 H     1.0000    0     1.008   15.644589   -7.606828    5.007170
 127 H     1.0000    0     1.008   10.585055  -10.396668    5.072686
 128 H     1.0000    0     1.008   13.571711  -11.774203    5.649828
 129 H     1.0000    0     1.008   12.841445  -10.558580    2.626549
 130 H     1.0000    0     1.008    6.352673    8.436682    8.252906
 131 H     1.0000    0     1.008    3.414584    8.722560    6.682884
 132 H     1.0000    0     1.008    8.402459   11.016536    4.879273
 133 H     1.0000    0     1.008    5.899952   12.691873    6.320926
 134 H     1.0000    0     1.008    5.474877   11.303038    3.314126
 135 H     1.0000    0     1.008   16.861856   -6.314010  -14.253883
 136 H     1.0000    0     1.008   19.795354   -4.936191  -13.429698
 137 H     1.0000    0     1.008   16.639624   -3.549473  -18.067898
 138 H     1.0000    0     1.008   19.416728   -5.401159  -18.086285
 139 H     1.0000    0     1.008   19.562955   -2.173695  -17.246245
 140 H     1.0000    0     1.008    4.003064    9.908004  -14.569014
 141 H     1.0000    0     1.008    5.021683    8.225090  -17.272513
 142 H     1.0000    0     1.008    7.650745   12.865747  -15.050289
 143 H     1.0000    0     1.008    5.749832   12.836929  -17.793756
 144 H     1.0000    0     1.008    8.653755   11.191790  -17.750859

--------------------------------
INTERNAL COORDINATES (ANGSTROEM)
--------------------------------
 C      0   0   0     0.000000000000     0.00000000     0.00000000
 C      1   0   0     1.374123262666     0.00000000     0.00000000
 C      2   1   0     1.453201811794   123.12798029     0.00000000
 C      3   2   1     1.461845785334   107.71732950   187.49925939
 C      4   3   2     1.403479942215   108.63485218   357.02674729
 C      2   1   3     1.476841328986   128.65555222   184.17354330
 C      4   3   2     1.385415442422   131.76837956   176.98926225
 C      7   4   3     1.390710229559   118.64779247   179.90832950
 C      8   7   4     1.398740434248   121.29202906   359.82062422
 C      5   4   3     1.379489432508   122.02213820   180.34644526
 Cl     9   8   7     1.717442317285   120.02343496   180.13523545
 Cl     8   7   4     1.717855729711   118.93412180   179.76833610
 O      6   2   1     1.214022679401   129.38979942   352.94282242
 C      3   2   1     1.371441836353   127.75311428     9.31289110
 C     14   3   2     1.411547698840   124.00840799   179.98277209
 C     14   3   2     1.411384421092   126.66141367     1.29344631
 N     15  14   3     1.147972488956   175.92330092   176.41899973
 N     16  14   3     1.149026365276   174.44731177   172.43754112
 C      1   2   3     1.402030442359   132.03638898   178.82133823
 S     19   1   2     1.771340762982   115.60687515   185.03705592
 C     20  19   1     1.704653214645    90.40636181   178.50654080
 C     21  20  19     1.396145474977   112.58975303     0.63758102
 C     22  21  20     1.381515181024   113.53240980   359.90241105
 C     21  20  19    13.074701854509   135.29005543   196.56802752
 C     24  21  20     1.375508543121   132.89332830   159.04016688
 C     25  24  21     1.447633421278   125.57599139   189.22571348
 C     26  25  24     1.463525478084   107.35055624   179.61737784
 C     27  26  25     1.405372198174   108.80126879     0.00000000
 C     25  24  21     1.465069110930   125.78774202     8.86092182
 C     27  26  25     1.384748643906   131.61224640   180.13238773
 C     30  27  26     1.391269574669   118.65415651   179.83812947
 C     31  30  27     1.398240609552   121.29191236     0.00000000
 C     28  27  26     1.378931233275   122.01642885   180.12361677
 Cl    32  31  30     1.717389067480   120.03809756   180.02465651
 Cl    31  30  27     1.717847504612   118.91829868   180.02293077
 O     29  25  24     1.217013000095   127.94876922     0.51492856
 C     26  25  24     1.372431932738   127.72126223   359.93633490
 C     37  26  25     1.410773341221   124.11505352   179.84686071
 C     37  26  25     1.409969696873   125.94731427     0.00000000
 N     38  37  26     1.148111912925   176.20142579   180.11684246
 N     39  37  26     1.149314799783   175.34603811   178.69638383
 C     21  20  19     1.425784677783   136.62175514   182.89889300
 C     42  21  20     1.415044367679   106.99925323   178.19832291
 C     22  21  20     1.507566189691   109.99327759   178.42786059
 C     42  21  20     1.394230912977   130.85673104     0.33352723
 C     45  42  21     1.373644718441   117.32201536   176.32013438
 C     46  45  42     1.415516854191   120.41585109   357.73364837
 C     43  42  21     1.374969258020   120.52531657   185.29188208
 C     46  45  42     1.527007703386   128.76767044   180.81031696
 C     49  46  45     1.511976456860   100.64522512   171.30042014
 C     50  49  46     1.387389134670   110.25793515     5.24503994
 C     50  49  46     1.396861259610   138.74535524   186.56839431
 C     52  50  49     1.421879099713   111.80037744   178.75486684
 S     51  50  49     1.730997583274   115.29117215   180.58521627
 N     52  50  49     1.368522498244   138.71492321   357.95627590
 C     55  52  50     1.372685331057   107.12977629   179.11052122
 C     53  52  50     1.391298418421   107.28081067   180.61996841
 C     56  55  52     1.379343852199   136.94354479   181.42735635
 C     24  21  20     1.397897089417     6.15100644   233.49997888
 S     57  53  52     1.719437864042   141.42128512   178.64712001
 C     44  22  21     1.515885782406   114.65415119   121.61738060
 C     55  52  50     1.440398655755   127.43957742     6.36398943
 C     62  55  52     1.526590567048   111.40395047    95.83459004
 C     44  22  21     1.520993664089   106.92406893   245.64523690
 C     49  46  45     1.520705802810   108.57287708   289.30738101
 C     49  46  45     1.519419751451   110.75837109    54.92399916
 C     64  44  22     1.386582688194   122.16654123    99.51715895
 C     67  64  44     1.383868431246   120.27555160   181.95803446
 C     68  67  64     1.387551190731   121.05327037     0.33753669
 C     69  68  67     1.389707242156   118.34952191     0.35340166
 C     70  69  68     1.380744399409   120.89385372   359.58649512
 C     61  44  22     1.387224910207   121.29392896   337.86663295
 C     72  61  44     1.383041238322   120.41716166   181.88550160
 C     73  72  61     1.388073085432   120.99162236     0.37793593
 C     74  73  72     1.389080728756   118.33857840     0.37099783
 C     75  74  73     1.381425385643   120.91102753   359.46833618
 C     66  49  46     1.391146934619   118.08477149    49.35707933
 C     77  66  49     1.381051601426   120.74955190   178.60513758
 C     78  77  66     1.389630038356   120.84879120     0.14343992
 C     79  78  77     1.387537128728   118.22515803   359.70925179
 C     80  79  78     1.383796133323   121.15120138     0.03152643
 C     65  49  46     1.388474188669   121.73472423   248.70171507
 C     82  65  49     1.383757254507   120.76951433   179.20487461
 C     83  82  65     1.387109910642   121.11051049   359.57013859
 C     84  83  82     1.389195287964   118.06726601     0.16346763
 C     85  84  83     1.381119021699   121.00282948   359.93836222
 C     69  68  67     1.501362763525   120.85696623   177.92918350
 C     87  69  68     1.530081685336   110.37662371   270.46646669
 C     74  73  72     1.501377549919   120.95210418   178.16567643
 C     89  74  73     1.530046235184   110.45045395   269.34791143
 C     84  83  82     1.500763019734   121.01304836   177.92476623
 C     91  84  83     1.530228868960   110.43847733   270.43236673
 C     79  78  77     1.500650071769   120.96724618   182.38528253
 C     93  79  78     1.530195629225   110.31053678    91.17245936
 H      1   2   3     1.083734129296   115.34976398     0.77876182
 H      7   4   3     1.077313931962   122.34685966   359.63591099
 H     10   5   4     1.078536763351   120.64409848   179.81030321
 H     23  22  21     1.073741478988   125.61896964   180.27135190
 H     24  21  20     1.083238080110   110.41681599   347.23203021
 H     30  27  26     1.077457072463   122.30864443   359.86078730
 H     33  28  27     1.078501423040   120.70296622   179.97141028
 H     45  42  21     1.078267149319   119.91625635   358.26478073
 H     48  43  42     1.078836490530   122.05209018   177.05188836
 H     58  56  55     1.075316044937   125.86823238     0.15274221
 H     62  55  52     1.091143007401   108.06766978   334.49723816
 H     62  55  52     1.094301154984   108.18936920   216.91842466
 H     63  62  55     1.087154323958   110.30829976   300.28287001
 H     63  62  55     1.085908214537   109.86232366   180.61257223
 H     63  62  55     1.087353957596   110.43371834    60.55852996
 H     67  64  44     1.080410044520   120.21408538     2.15944957
 H     68  67  64     1.080805807257   119.34897395   180.41914246
 H     70  69  68     1.080433142263   119.58558035   179.64941661
 H     71  70  69     1.079917086493   119.88404460   180.32667449
 H     72  61  44     1.080384312409   119.99870852     2.32759344
 H     73  72  61     1.080738066786   119.44445258   180.63350590
 H     75  74  73     1.080706858912   119.56305212   179.82411725
 H     76  75  74     1.080594259378   119.74885945   180.92463843
 H     77  66  49     1.080985666279   119.50588948   358.55248636
 H     78  77  66     1.080555821834   119.53831774   179.98013249
 H     80  79  78     1.080578574700   119.54453122   180.01613422
 H     81  80  79     1.080044519916   119.05823659   180.15657831
 H     82  65  49     1.079663853012   120.40046515   359.40660023
 H     83  82  65     1.080662937738   119.26784915   179.87170343
 H     85  84  83     1.080573411157   119.58535529   180.10878039
 H     86  85  84     1.078669594732   119.12433002   179.42633200
 H     87  69  68     1.091771480714   109.82280874   150.00122777
 H     87  69  68     1.091843860357   109.86539304    31.00528948
 H     88  87  69     1.087671991457   110.33685564   300.31301433
 H     88  87  69     1.087459943078   110.50184929   180.11971338
 H     88  87  69     1.087792133682   110.34141943    59.93057732
 H     89  74  73     1.091817292499   109.78600621   148.88307632
 H     89  74  73     1.091674835333   109.84998229    29.95184135
 H     90  89  74     1.087688795612   110.37367174   300.23724348
 H     90  89  74     1.087440152744   110.47923338   180.06251582
 H     90  89  74     1.087798759836   110.34579322    59.89146989
 H     91  84  83     1.091684580362   109.79952140   149.93213705
 H     91  84  83     1.091694119935   109.82346745    30.96392731
 H     92  91  84     1.087801888305   110.38686553   300.09186184
 H     92  91  84     1.087264364633   110.44237751   179.98273648
 H     92  91  84     1.087862314588   110.38305638    59.86209961
 H     93  79  78     1.091393799002   109.88103755   330.63198990
 H     93  79  78     1.091599586799   109.84414359   211.60496270
 H     94  93  79     1.087710799523   110.38700240   300.34699481
 H     94  93  79     1.087142291469   110.45177170   180.21643833
 H     94  93  79     1.087678214777   110.42393092    60.05737546

---------------------------
INTERNAL COORDINATES (A.U.)
---------------------------
 C      0   0   0     0.000000000000     0.00000000     0.00000000
 C      1   0   0     2.596716640689     0.00000000     0.00000000
 C      2   1   0     2.746153441608   123.12798029     0.00000000
 C      3   2   1     2.762488184309   107.71732950   187.49925939
 C      4   3   2     2.652192725238   108.63485218   357.02674729
 C      2   1   3     2.790825655039   128.65555222   184.17354330
 C      4   3   2     2.618055767882   131.76837956   176.98926225
 C      7   4   3     2.628061465509   118.64779247   179.90832950
 C      8   7   4     2.643236353171   121.29202906   359.82062422
 C      5   4   3     2.606857232078   122.02213820   180.34644526
 Cl     9   8   7     3.245495630475   120.02343496   180.13523545
 Cl     8   7   4     3.246276866741   118.93412180   179.76833610
 O      6   2   1     2.294170384437   129.38979942   352.94282242
 C      3   2   1     2.591649479310   127.75311428     9.31289110
 C     14   3   2     2.667438575774   124.00840799   179.98277209
 C     14   3   2     2.667130025546   126.66141367     1.29344631
 N     15  14   3     2.169353613403   175.92330092   176.41899973
 N     16  14   3     2.171345151027   174.44731177   172.43754112
 C      1   2   3     2.649453567478   132.03638898   178.82133823
 S     19   1   2     3.347348931886   115.60687515   185.03705592
 C     20  19   1     3.221327728988    90.40636181   178.50654080
 C     21  20  19     2.638332590821   112.58975303     0.63758102
 C     22  21  20     2.610685341990   113.53240980   359.90241105
 C     21  20  19    24.707605787694   135.29005543   196.56802752
 C     24  21  20     2.599334441368   132.89332830   159.04016688
 C     25  24  21     2.735630708526   125.57599139   189.22571348
 C     26  25  24     2.765662343594   107.35055624   179.61737784
 C     27  26  25     2.655768570775   108.80126879     0.00000000
 C     25  24  21     2.768579386924   125.78774202     8.86092182
 C     27  26  25     2.616795701302   131.61224640   180.13238773
 C     30  27  26     2.629118474582   118.65415651   179.83812947
 C     31  30  27     2.642291821380   121.29191236     0.00000000
 C     28  27  26     2.605802388399   122.01642885   180.12361677
 Cl    32  31  30     3.245395002928   120.03809756   180.02465651
 Cl    31  30  27     3.246261323556   118.91829868   180.02293077
 O     29  25  24     2.299821271601   127.94876922     0.51492856
 C     26  25  24     2.593520490324   127.72126223   359.93633490
 C     37  26  25     2.665975251945   124.11505352   179.84686071
 C     37  26  25     2.664456584218   125.94731427     0.00000000
 N     38  37  26     2.169617086520   176.20142579   180.11684246
 N     39  37  26     2.171890213252   175.34603811   178.69638383
 C     21  20  19     2.694342566951   136.62175514   182.89889300
 C     42  21  20     2.674046322261   106.99925323   178.19832291
 C     22  21  20     2.848887227276   109.99327759   178.42786059
 C     42  21  20     2.634714592973   130.85673104     0.33352723
 C     45  42  21     2.595812323160   117.32201536   176.32013438
 C     46  45  42     2.674939192372   120.41585109   357.73364837
 C     43  42  21     2.598315340219   120.52531657   185.29188208
 C     46  45  42     2.885626363787   128.76767044   180.81031696
 C     49  46  45     2.857221424403   100.64522512   171.30042014
 C     50  49  46     2.621785505704   110.25793515     5.24503994
 C     50  49  46     2.639685227748   138.74535524   186.56839431
 C     52  50  49     2.686962094004   111.80037744   178.75486684
 S     51  50  49     3.271111370867   115.29117215   180.58521627
 N     52  50  49     2.586132729791   138.71492321   357.95627590
 C     55  52  50     2.593999343749   107.12977629   179.11052122
 C     53  52  50     2.629172981373   107.28081067   180.61996841
 C     56  55  52     2.606582125165   136.94354479   181.42735635
 C     24  21  20     2.641642662403     6.15100644   233.49997888
 S     57  53  52     3.249266667333   141.42128512   178.64712001
 C     44  22  21     2.864608979052   114.65415119   121.61738060
 C     55  52  50     2.721958983045   127.43957742     6.36398943
 C     62  55  52     2.884838090348   111.40395047    95.83459004
 C     44  22  21     2.874261476558   106.92406893   245.64523690
 C     49  46  45     2.873717497576   108.57287708   289.30738101
 C     49  46  45     2.871287212713   110.75837109    54.92399916
 C     64  44  22     2.620261542723   122.16654123    99.51715895
 C     67  64  44     2.615132340435   120.27555160   181.95803446
 C     68  67  64     2.622091747279   121.05327037     0.33753669
 C     69  68  67     2.626166094001   118.34952191     0.35340166
 C     70  69  68     2.609228775829   120.89385372   359.58649512
 C     61  44  22     2.621475166446   121.29392896   337.86663295
 C     72  61  44     2.613569172348   120.41716166   181.88550160
 C     73  72  61     2.623077985333   120.99162236     0.37793593
 C     74  73  72     2.624982155256   118.33857840     0.37099783
 C     75  74  73     2.610515653313   120.91102753   359.46833618
 C     66  49  46     2.628886718474   118.08477149    49.35707933
 C     77  66  49     2.609809303508   120.74955190   178.60513758
 C     78  77  66     2.626020199962   120.84879120     0.14343992
 C     79  78  77     2.622065173944   118.22515803   359.70925179
 C     80  79  78     2.614995717160   121.15120138     0.03152643
 C     65  49  46     2.623835960603   121.73472423   248.70171507
 C     82  65  49     2.614922246844   120.76951433   179.20487461
 C     83  82  65     2.621257848761   121.11051049   359.57013859
 C     84  83  82     2.625198640785   118.06726601     0.16346763
 C     85  84  83     2.609936709361   121.00282948   359.93836222
 C     69  68  67     2.837164450730   120.85696623   177.92918350
 C     87  69  68     2.891435347813   110.37662371   270.46646669
 C     74  73  72     2.837192392964   120.95210418   178.16567643
 C     89  74  73     2.891368356735   110.45045395   269.34791143
 C     84  83  82     2.836031099213   121.01304836   177.92476623
 C     91  84  83     2.891713484555   110.43847733   270.43236673
 C     79  78  77     2.835817658492   120.96724618   182.38528253
 C     93  79  78     2.891650670559   110.31053678    91.17245936
 H      1   2   3     2.047960706352   115.34976398     0.77876182
 H      7   4   3     2.035828291667   122.34685966   359.63591099
 H     10   5   4     2.038139108100   120.64409848   179.81030321
 H     23  22  21     2.029077333919   125.61896964   180.27135190
 H     24  21  20     2.047023309242   110.41681599   347.23203021
 H     30  27  26     2.036098788011   122.30864443   359.86078730
 H     33  28  27     2.038072324591   120.70296622   179.97141028
 H     45  42  21     2.037629611416   119.91625635   358.26478073
 H     48  43  42     2.038705510383   122.05209018   177.05188836
 H     58  56  55     2.032052832343   125.86823238     0.15274221
 H     62  55  52     2.061961456931   108.06766978   334.49723816
 H     62  55  52     2.067929490954   108.18936920   216.91842466
 H     63  62  55     2.054423937588   110.30829976   300.28287001
 H     63  62  55     2.052069132051   109.86232366   180.61257223
 H     63  62  55     2.054801190492   110.43371834    60.55852996
 H     67  64  44     2.041679096481   120.21408538     2.15944957
 H     68  67  64     2.042426979667   119.34897395   180.41914246
 H     70  69  68     2.041722744889   119.58558035   179.64941661
 H     71  70  69     2.040747540814   119.88404460   180.32667449
 H     72  61  44     2.041630469838   119.99870852     2.32759344
 H     73  72  61     2.042298968729   119.44445258   180.63350590
 H     75  74  73     2.042239994394   119.56305212   179.82411725
 H     76  75  74     2.042027212111   119.74885945   180.92463843
 H     77  66  49     2.042766863961   119.50588948   358.55248636
 H     78  77  66     2.041954575681   119.53831774   179.98013249
 H     80  79  78     2.041997572365   119.54453122   180.01613422
 H     81  80  79     2.040988355083   119.05823659   180.15657831
 H     82  65  49     2.040268998886   120.40046515   359.40660023
 H     83  82  65     2.042156995403   119.26784915   179.87170343
 H     85  84  83     2.041987814684   119.58535529   180.10878039
 H     86  85  84     2.038390123032   119.12433002   179.42633200
 H     87  69  68     2.063149099375   109.82280874   150.00122777
 H     87  69  68     2.063285877079   109.86539304    31.00528948
 H     88  87  69     2.055402187390   110.33685564   300.31301433
 H     88  87  69     2.055001474028   110.50184929   180.11971338
 H     88  87  69     2.055629223292   110.34141943    59.93057732
 H     89  74  73     2.063235671103   109.78600621   148.88307632
 H     89  74  73     2.062966466074   109.84998229    29.95184135
 H     90  89  74     2.055433942641   110.37367174   300.23724348
 H     90  89  74     2.054964075716   110.47923338   180.06251582
 H     90  89  74     2.055641744909   110.34579322    59.89146989
 H     91  84  83     2.062984881509   109.79952140   149.93213705
 H     91  84  83     2.063002908689   109.82346745    30.96392731
 H     92  91  84     2.055647656859   110.38686553   300.09186184
 H     92  91  84     2.054631884328   110.44237751   179.98273648
 H     92  91  84     2.055761845984   110.38305638    59.86209961
 H     93  79  78     2.062435384374   109.88103755   330.63198990
 H     93  79  78     2.062824266952   109.84414359   211.60496270
 H     94  93  79     2.055475524008   110.38700240   300.34699481
 H     94  93  79     2.054401199480   110.45177170   180.21643833
 H     94  93  79     2.055413947760   110.42393092    60.05737546

---------------------
BASIS SET INFORMATION
---------------------
There are 6 groups of distinct atoms

 Group   1 Type C   : 7s4p1d contracted to 3s2p1d pattern {511/31/1}
 Group   2 Type Cl  : 10s7p1d contracted to 4s3p1d pattern {5311/511/1}
 Group   3 Type O   : 7s4p1d contracted to 3s2p1d pattern {511/31/1}
 Group   4 Type N   : 7s4p1d contracted to 3s2p1d pattern {511/31/1}
 Group   5 Type S   : 10s7p1d contracted to 4s3p1d pattern {5311/511/1}
 Group   6 Type H   : 4s1p contracted to 2s1p pattern {31/1}

Atom   0C    basis set group =>   1
Atom   1C    basis set group =>   1
Atom   2C    basis set group =>   1
Atom   3C    basis set group =>   1
Atom   4C    basis set group =>   1
Atom   5C    basis set group =>   1
Atom   6C    basis set group =>   1
Atom   7C    basis set group =>   1
Atom   8C    basis set group =>   1
Atom   9C    basis set group =>   1
Atom  10Cl   basis set group =>   2
Atom  11Cl   basis set group =>   2
Atom  12O    basis set group =>   3
Atom  13C    basis set group =>   1
Atom  14C    basis set group =>   1
Atom  15C    basis set group =>   1
Atom  16N    basis set group =>   4
Atom  17N    basis set group =>   4
Atom  18C    basis set group =>   1
Atom  19S    basis set group =>   5
Atom  20C    basis set group =>   1
Atom  21C    basis set group =>   1
Atom  22C    basis set group =>   1
Atom  23C    basis set group =>   1
Atom  24C    basis set group =>   1
Atom  25C    basis set group =>   1
Atom  26C    basis set group =>   1
Atom  27C    basis set group =>   1
Atom  28C    basis set group =>   1
Atom  29C    basis set group =>   1
Atom  30C    basis set group =>   1
Atom  31C    basis set group =>   1
Atom  32C    basis set group =>   1
Atom  33Cl   basis set group =>   2
Atom  34Cl   basis set group =>   2
Atom  35O    basis set group =>   3
Atom  36C    basis set group =>   1
Atom  37C    basis set group =>   1
Atom  38C    basis set group =>   1
Atom  39N    basis set group =>   4
Atom  40N    basis set group =>   4
Atom  41C    basis set group =>   1
Atom  42C    basis set group =>   1
Atom  43C    basis set group =>   1
Atom  44C    basis set group =>   1
Atom  45C    basis set group =>   1
Atom  46C    basis set group =>   1
Atom  47C    basis set group =>   1
Atom  48C    basis set group =>   1
Atom  49C    basis set group =>   1
Atom  50C    basis set group =>   1
Atom  51C    basis set group =>   1
Atom  52C    basis set group =>   1
Atom  53S    basis set group =>   5
Atom  54N    basis set group =>   4
Atom  55C    basis set group =>   1
Atom  56C    basis set group =>   1
Atom  57C    basis set group =>   1
Atom  58C    basis set group =>   1
Atom  59S    basis set group =>   5
Atom  60C    basis set group =>   1
Atom  61C    basis set group =>   1
Atom  62C    basis set group =>   1
Atom  63C    basis set group =>   1
Atom  64C    basis set group =>   1
Atom  65C    basis set group =>   1
Atom  66C    basis set group =>   1
Atom  67C    basis set group =>   1
Atom  68C    basis set group =>   1
Atom  69C    basis set group =>   1
Atom  70C    basis set group =>   1
Atom  71C    basis set group =>   1
Atom  72C    basis set group =>   1
Atom  73C    basis set group =>   1
Atom  74C    basis set group =>   1
Atom  75C    basis set group =>   1
Atom  76C    basis set group =>   1
Atom  77C    basis set group =>   1
Atom  78C    basis set group =>   1
Atom  79C    basis set group =>   1
Atom  80C    basis set group =>   1
Atom  81C    basis set group =>   1
Atom  82C    basis set group =>   1
Atom  83C    basis set group =>   1
Atom  84C    basis set group =>   1
Atom  85C    basis set group =>   1
Atom  86C    basis set group =>   1
Atom  87C    basis set group =>   1
Atom  88C    basis set group =>   1
Atom  89C    basis set group =>   1
Atom  90C    basis set group =>   1
Atom  91C    basis set group =>   1
Atom  92C    basis set group =>   1
Atom  93C    basis set group =>   1
Atom  94H    basis set group =>   6
Atom  95H    basis set group =>   6
Atom  96H    basis set group =>   6
Atom  97H    basis set group =>   6
Atom  98H    basis set group =>   6
Atom  99H    basis set group =>   6
Atom 100H    basis set group =>   6
Atom 101H    basis set group =>   6
Atom 102H    basis set group =>   6
Atom 103H    basis set group =>   6
Atom 104H    basis set group =>   6
Atom 105H    basis set group =>   6
Atom 106H    basis set group =>   6
Atom 107H    basis set group =>   6
Atom 108H    basis set group =>   6
Atom 109H    basis set group =>   6
Atom 110H    basis set group =>   6
Atom 111H    basis set group =>   6
Atom 112H    basis set group =>   6
Atom 113H    basis set group =>   6
Atom 114H    basis set group =>   6
Atom 115H    basis set group =>   6
Atom 116H    basis set group =>   6
Atom 117H    basis set group =>   6
Atom 118H    basis set group =>   6
Atom 119H    basis set group =>   6
Atom 120H    basis set group =>   6
Atom 121H    basis set group =>   6
Atom 122H    basis set group =>   6
Atom 123H    basis set group =>   6
Atom 124H    basis set group =>   6
Atom 125H    basis set group =>   6
Atom 126H    basis set group =>   6
Atom 127H    basis set group =>   6
Atom 128H    basis set group =>   6
Atom 129H    basis set group =>   6
Atom 130H    basis set group =>   6
Atom 131H    basis set group =>   6
Atom 132H    basis set group =>   6
Atom 133H    basis set group =>   6
Atom 134H    basis set group =>   6
Atom 135H    basis set group =>   6
Atom 136H    basis set group =>   6
Atom 137H    basis set group =>   6
Atom 138H    basis set group =>   6
Atom 139H    basis set group =>   6
Atom 140H    basis set group =>   6
Atom 141H    basis set group =>   6
Atom 142H    basis set group =>   6
Atom 143H    basis set group =>   6
Atom 144H    basis set group =>   6
---------------------------------
AUXILIARY/J BASIS SET INFORMATION
---------------------------------
There are 6 groups of distinct atoms

 Group   1 Type C   : 12s5p4d2f1g contracted to 6s4p3d1f1g pattern {711111/2111/211/2/1}
 Group   2 Type Cl  : 14s5p5d2f1g contracted to 8s4p3d1f1g pattern {71111111/2111/311/2/1}
 Group   3 Type O   : 12s5p4d2f1g contracted to 6s4p3d1f1g pattern {711111/2111/211/2/1}
 Group   4 Type N   : 12s5p4d2f1g contracted to 6s4p3d1f1g pattern {711111/2111/211/2/1}
 Group   5 Type S   : 14s5p5d2f1g contracted to 8s4p3d1f1g pattern {71111111/2111/311/2/1}
 Group   6 Type H   : 5s2p1d contracted to 3s1p1d pattern {311/2/1}

Atom   0C    basis set group =>   1
Atom   1C    basis set group =>   1
Atom   2C    basis set group =>   1
Atom   3C    basis set group =>   1
Atom   4C    basis set group =>   1
Atom   5C    basis set group =>   1
Atom   6C    basis set group =>   1
Atom   7C    basis set group =>   1
Atom   8C    basis set group =>   1
Atom   9C    basis set group =>   1
Atom  10Cl   basis set group =>   2
Atom  11Cl   basis set group =>   2
Atom  12O    basis set group =>   3
Atom  13C    basis set group =>   1
Atom  14C    basis set group =>   1
Atom  15C    basis set group =>   1
Atom  16N    basis set group =>   4
Atom  17N    basis set group =>   4
Atom  18C    basis set group =>   1
Atom  19S    basis set group =>   5
Atom  20C    basis set group =>   1
Atom  21C    basis set group =>   1
Atom  22C    basis set group =>   1
Atom  23C    basis set group =>   1
Atom  24C    basis set group =>   1
Atom  25C    basis set group =>   1
Atom  26C    basis set group =>   1
Atom  27C    basis set group =>   1
Atom  28C    basis set group =>   1
Atom  29C    basis set group =>   1
Atom  30C    basis set group =>   1
Atom  31C    basis set group =>   1
Atom  32C    basis set group =>   1
Atom  33Cl   basis set group =>   2
Atom  34Cl   basis set group =>   2
Atom  35O    basis set group =>   3
Atom  36C    basis set group =>   1
Atom  37C    basis set group =>   1
Atom  38C    basis set group =>   1
Atom  39N    basis set group =>   4
Atom  40N    basis set group =>   4
Atom  41C    basis set group =>   1
Atom  42C    basis set group =>   1
Atom  43C    basis set group =>   1
Atom  44C    basis set group =>   1
Atom  45C    basis set group =>   1
Atom  46C    basis set group =>   1
Atom  47C    basis set group =>   1
Atom  48C    basis set group =>   1
Atom  49C    basis set group =>   1
Atom  50C    basis set group =>   1
Atom  51C    basis set group =>   1
Atom  52C    basis set group =>   1
Atom  53S    basis set group =>   5
Atom  54N    basis set group =>   4
Atom  55C    basis set group =>   1
Atom  56C    basis set group =>   1
Atom  57C    basis set group =>   1
Atom  58C    basis set group =>   1
Atom  59S    basis set group =>   5
Atom  60C    basis set group =>   1
Atom  61C    basis set group =>   1
Atom  62C    basis set group =>   1
Atom  63C    basis set group =>   1
Atom  64C    basis set group =>   1
Atom  65C    basis set group =>   1
Atom  66C    basis set group =>   1
Atom  67C    basis set group =>   1
Atom  68C    basis set group =>   1
Atom  69C    basis set group =>   1
Atom  70C    basis set group =>   1
Atom  71C    basis set group =>   1
Atom  72C    basis set group =>   1
Atom  73C    basis set group =>   1
Atom  74C    basis set group =>   1
Atom  75C    basis set group =>   1
Atom  76C    basis set group =>   1
Atom  77C    basis set group =>   1
Atom  78C    basis set group =>   1
Atom  79C    basis set group =>   1
Atom  80C    basis set group =>   1
Atom  81C    basis set group =>   1
Atom  82C    basis set group =>   1
Atom  83C    basis set group =>   1
Atom  84C    basis set group =>   1
Atom  85C    basis set group =>   1
Atom  86C    basis set group =>   1
Atom  87C    basis set group =>   1
Atom  88C    basis set group =>   1
Atom  89C    basis set group =>   1
Atom  90C    basis set group =>   1
Atom  91C    basis set group =>   1
Atom  92C    basis set group =>   1
Atom  93C    basis set group =>   1
Atom  94H    basis set group =>   6
Atom  95H    basis set group =>   6
Atom  96H    basis set group =>   6
Atom  97H    basis set group =>   6
Atom  98H    basis set group =>   6
Atom  99H    basis set group =>   6
Atom 100H    basis set group =>   6
Atom 101H    basis set group =>   6
Atom 102H    basis set group =>   6
Atom 103H    basis set group =>   6
Atom 104H    basis set group =>   6
Atom 105H    basis set group =>   6
Atom 106H    basis set group =>   6
Atom 107H    basis set group =>   6
Atom 108H    basis set group =>   6
Atom 109H    basis set group =>   6
Atom 110H    basis set group =>   6
Atom 111H    basis set group =>   6
Atom 112H    basis set group =>   6
Atom 113H    basis set group =>   6
Atom 114H    basis set group =>   6
Atom 115H    basis set group =>   6
Atom 116H    basis set group =>   6
Atom 117H    basis set group =>   6
Atom 118H    basis set group =>   6
Atom 119H    basis set group =>   6
Atom 120H    basis set group =>   6
Atom 121H    basis set group =>   6
Atom 122H    basis set group =>   6
Atom 123H    basis set group =>   6
Atom 124H    basis set group =>   6
Atom 125H    basis set group =>   6
Atom 126H    basis set group =>   6
Atom 127H    basis set group =>   6
Atom 128H    basis set group =>   6
Atom 129H    basis set group =>   6
Atom 130H    basis set group =>   6
Atom 131H    basis set group =>   6
Atom 132H    basis set group =>   6
Atom 133H    basis set group =>   6
Atom 134H    basis set group =>   6
Atom 135H    basis set group =>   6
Atom 136H    basis set group =>   6
Atom 137H    basis set group =>   6
Atom 138H    basis set group =>   6
Atom 139H    basis set group =>   6
Atom 140H    basis set group =>   6
Atom 141H    basis set group =>   6
Atom 142H    basis set group =>   6
Atom 143H    basis set group =>   6
Atom 144H    basis set group =>   6
------------------------------------------------------------------------------
                           ORCA GTO INTEGRAL CALCULATION
                           -- RI-GTO INTEGRALS CHOSEN --
------------------------------------------------------------------------------

                         BASIS SET STATISTICS AND STARTUP INFO

Gaussian basis set:
 # of primitive gaussian shells          ... 1425
 # of primitive gaussian functions       ... 2697
 # of contracted shells                  ...  731
 # of contracted basis functions         ... 1599
 Highest angular momentum                ...    2
 Maximum contraction depth               ...    5
Auxiliary gaussian basis set:
 # of primitive gaussian shells          ... 2685
 # of primitive gaussian functions       ... 7445
 # of contracted shells                  ... 1679
 # of contracted aux-basis functions     ... 5181
 Highest angular momentum                ...    4
 Maximum contraction depth               ...    7
Ratio of auxiliary to basis functions    ...  3.24
Integral package used                  ... LIBINT
 One Electron integrals                  ... done
 Ordering auxiliary basis shells         ... done
 Integral threshhold             Thresh  ...  2.500e-11
 Primitive cut-off               TCut    ...  2.500e-12
 Pre-screening matrix                    ... done
 Shell pair data                         ... 
 Ordering of the shell pairs             ... done (   0.017 sec) 78779 of 267546 pairs
 Determination of significant pairs      ... done (   0.000 sec)
 Creation of shell pair data             ... done (   0.011 sec)
 Storage of shell pair data              ... done (   0.016 sec)
 Shell pair data done in (   0.045 sec)
 Computing two index integrals           ... done
 Cholesky decomposition of the V-matrix  ... done


Timings:
 Total evaluation time                   ...   4.313 sec (  0.072 min)
 One electron matrix time                ...   1.231 sec (  0.021 min) = 28.5%
 Schwartz matrix evaluation time         ...   1.196 sec (  0.020 min) = 27.7%
 Two index repulsion integral time       ...   0.667 sec (  0.011 min) = 15.5%
 Cholesky decomposition of V             ...   1.155 sec (  0.019 min) = 26.8%
 Three index repulsion integral time     ...   0.000 sec (  0.000 min) =  0.0%

-------------------------------------------------------------------------------
                                 ORCA SCF
-------------------------------------------------------------------------------

------------
SCF SETTINGS
------------
Hamiltonian:
 Density Functional     Method          .... DFT(GTOs)
 Exchange Functional    Exchange        .... WB88
 Correlation Functional Correlation     .... LYP
 LDA part of GGA corr.  LDAOpt          .... VWN-5
 Gradients option       PostSCFGGA      .... off
 Hybrid DFT is turned on
   Fraction HF Exchange ScalHFX         ....  0.190000
   Scaling of DF-GGA-X  ScalDFX         ....  0.350000
   Scaling of DF-GGA-C  ScalDFC         ....  0.810000
   Scaling of DF-LDA-C  ScalLDAC        ....  1.000000
   Perturbative correction              ....  0.000000
   Density functional embedding theory  .... OFF
 Long-range corrected/Screened/Range-Separated Hybrid DFT is turned on
   Amount of maximum screened exact exchange              ....  0.460000
   Range separation parameter mu (erf(mu*r12)/r12)        ....  0.330000
 RI-approximation to the Coulomb term is turned on
   Number of auxiliary basis functions  .... 5181
   RIJ-COSX (HFX calculated with COS-X)).... on


General Settings:
 Integral files         IntName         .... TPIC-4Cl
 Hartree-Fock type      HFTyp           .... RHF
 Total Charge           Charge          ....    0
 Multiplicity           Mult            ....    1
 Number of Electrons    NEL             ....  698
 Basis Dimension        Dim             .... 1599
 Nuclear Repulsion      ENuc            ....  17100.4756029522 Eh

Convergence Acceleration:
 DIIS                   CNVDIIS         .... on
   Start iteration      DIISMaxIt       ....    12
   Startup error        DIISStart       ....  0.200000
   # of expansion vecs  DIISMaxEq       ....     5
   Bias factor          DIISBfac        ....   1.050
   Max. coefficient     DIISMaxC        ....  10.000
 Newton-Raphson         CNVNR           .... off
 SOSCF                  CNVSOSCF        .... on
   Start iteration      SOSCFMaxIt      ....   150
   Startup grad/error   SOSCFStart      ....  0.003300
 Level Shifting         CNVShift        .... on
   Level shift para.    LevelShift      ....    0.2500
   Turn off err/grad.   ShiftErr        ....    0.0010
 Zerner damping         CNVZerner       .... off
 Static damping         CNVDamp         .... on
   Fraction old density DampFac         ....    0.7000
   Max. Damping (<1)    DampMax         ....    0.9800
   Min. Damping (>=0)   DampMin         ....    0.0000
   Turn off err/grad.   DampErr         ....    0.1000
 Fernandez-Rico         CNVRico         .... off

SCF Procedure:
 Maximum # iterations   MaxIter         ....   125
 SCF integral mode      SCFMode         .... Direct
   Integral package                     .... LIBINT
 Reset frequency        DirectResetFreq ....    20
 Integral Threshold     Thresh          ....  2.500e-11 Eh
 Primitive CutOff       TCut            ....  2.500e-12 Eh

Convergence Tolerance:
 Convergence Check Mode ConvCheckMode   .... Total+1el-Energy
 Convergence forced     ConvForced      .... 1
 Energy Change          TolE            ....  1.000e-08 Eh
 1-El. energy change                    ....  1.000e-05 Eh
 Orbital Gradient       TolG            ....  1.000e-05
 Orbital Rotation angle TolX            ....  1.000e-05
 DIIS Error             TolErr          ....  5.000e-07


Diagonalization of the overlap matrix:
Smallest eigenvalue                        ... 1.260e-04
Time for diagonalization                   ...    1.014 sec
Threshold for overlap eigenvalues          ... 1.000e-08
Number of eigenvalues below threshold      ... 0
Time for construction of square roots      ...    0.347 sec
Total time needed                          ...    1.369 sec

-------------------
DFT GRID GENERATION
-------------------

General Integration Accuracy     IntAcc      ...  4.670
Radial Grid Type                 RadialGrid  ... Gauss-Chebyshev
Angular Grid (max. acc.)         AngularGrid ... Lebedev-302
Angular grid pruning method      GridPruning ... 3 (G Style)
Weight generation scheme         WeightScheme... Becke
Basis function cutoff            BFCut       ...    1.0000e-11
Integration weight cutoff        WCut        ...    1.0000e-14
Grids for H and He will be reduced by one unit

# of grid points (after initial pruning)     ... 761028 (   2.2 sec)
# of grid points (after weights+screening)   ... 638332 (  54.4 sec)
nearest neighbour list constructed           ...    0.0 sec
Grid point re-assignment to atoms done       ...    0.1 sec
Grid point division into batches done        ...    2.3 sec
Reduced shell lists constructed in   14.2 sec

Total number of grid points                  ...   638332
Total number of batches                      ...    10044
Average number of points per batch           ...       63
Average number of grid points per atom       ...     4402
Average number of shells per batch           ...   110.96 (15.18%)
Average number of basis functions per batch  ...   223.36 (13.97%)
Average number of large shells per batch     ...    63.39 (57.13%)
Average number of large basis fcns per batch ...   130.19 (58.28%)
Maximum spatial batch extension              ...  20.17, 20.73, 22.22 au
Average spatial batch extension              ...   2.08,  2.11,  2.04 au

Time for grid setup =   70.856 sec

------------------------------
INITIAL GUESS: MODEL POTENTIAL
------------------------------
Loading Hartree-Fock densities                     ... done
Calculating cut-offs                               ... done
Setting up the integral package                    ... done
Initializing the effective Hamiltonian             ... done
Starting the Coulomb interaction                   ... done (  19.6 sec)
Reading the grid                                   ... done
Mapping shells                                     ... done
Starting the XC term evaluation                    ... done (  13.9 sec)
  promolecular density results
     # of electrons  =    697.974489065
     EX              =   -657.929297654
     EC              =    -24.272040029
     EX+EC           =   -682.201337682
Transforming the Hamiltonian                       ... done (   0.3 sec)
Diagonalizing the Hamiltonian                      ... done (   0.8 sec)
Back transforming the eigenvectors                 ... done (   0.1 sec)
Now organizing SCF variables                       ... done
                      ------------------
                      INITIAL GUESS DONE ( 106.1 sec)
                      ------------------
--------------------
COSX GRID GENERATION
--------------------

General Integration Accuracy     IntAcc      ...  3.340
Radial Grid Type                 RadialGrid  ... Gauss-Chebyshev
Angular Grid (max. acc.)         AngularGrid ... Lebedev-50
Angular grid pruning method      GridPruning ... 3 (G Style)
Weight generation scheme         WeightScheme... Becke
Basis function cutoff            BFCut       ...    1.0000e-11
Integration weight cutoff        WCut        ...    1.0000e-14
Grids for H and He will be reduced by one unit

# of grid points (after initial pruning)     ...  71652 (   0.1 sec)
# of grid points (after weights+screening)   ...  63102 (   5.4 sec)
nearest neighbour list constructed           ...    0.0 sec
Grid point re-assignment to atoms done       ...    0.0 sec
Grid point division into batches done        ...    0.0 sec
Reduced shell lists constructed in    1.5 sec

Total number of grid points                  ...    63102
Total number of batches                      ...     1065
Average number of points per batch           ...       59
Average number of grid points per atom       ...      435
Average number of shells per batch           ...   136.35 (18.65%)
Average number of basis functions per batch  ...   276.92 (17.32%)
Average number of large shells per batch     ...    77.10 (56.55%)
Average number of large basis fcns per batch ...   160.45 (57.94%)
Maximum spatial batch extension              ...  23.77, 21.62, 20.30 au
Average spatial batch extension              ...   4.43,  4.49,  4.05 au

Overlap Fitting                  UseSFitting ... on
Constructing numerical overlap ... done (      1.1 sec)
Inverting numerical overlap    ... done (      0.1 sec)
Obtaining analytic overlap     ... done (      0.0 sec)
Final contraction and storage  ... done (      0.2 sec)


General Integration Accuracy     IntAcc      ...  3.670
Radial Grid Type                 RadialGrid  ... Gauss-Chebyshev
Angular Grid (max. acc.)         AngularGrid ... Lebedev-50
Angular grid pruning method      GridPruning ... 3 (G Style)
Weight generation scheme         WeightScheme... Becke
Basis function cutoff            BFCut       ...    1.0000e-11
Integration weight cutoff        WCut        ...    1.0000e-14
Grids for H and He will be reduced by one unit

# of grid points (after initial pruning)     ...  89700 (   0.2 sec)
# of grid points (after weights+screening)   ...  78533 (   6.6 sec)
nearest neighbour list constructed           ...    0.0 sec
Grid point re-assignment to atoms done       ...    0.0 sec
Grid point division into batches done        ...    0.0 sec
Reduced shell lists constructed in    1.9 sec

Total number of grid points                  ...    78533
Total number of batches                      ...     1300
Average number of points per batch           ...       60
Average number of grid points per atom       ...      542
Average number of shells per batch           ...   132.76 (18.16%)
Average number of basis functions per batch  ...   269.42 (16.85%)
Average number of large shells per batch     ...    75.31 (56.73%)
Average number of large basis fcns per batch ...   156.51 (58.09%)
Maximum spatial batch extension              ...  25.85, 23.57, 22.03 au
Average spatial batch extension              ...   4.10,  4.21,  3.73 au

Overlap Fitting                  UseSFitting ... on
Constructing numerical overlap ... done (      1.3 sec)
Inverting numerical overlap    ... done (      0.1 sec)
Obtaining analytic overlap     ... done (      0.0 sec)
Final contraction and storage  ... done (      0.2 sec)


General Integration Accuracy     IntAcc      ...  4.010
Radial Grid Type                 RadialGrid  ... Gauss-Chebyshev
Angular Grid (max. acc.)         AngularGrid ... Lebedev-110
Angular grid pruning method      GridPruning ... 3 (G Style)
Weight generation scheme         WeightScheme... Becke
Basis function cutoff            BFCut       ...    1.0000e-11
Integration weight cutoff        WCut        ...    1.0000e-14
Grids for H and He will be reduced by one unit

# of grid points (after initial pruning)     ... 173212 (   0.3 sec)
# of grid points (after weights+screening)   ... 150317 (  12.7 sec)
nearest neighbour list constructed           ...    0.0 sec
Grid point re-assignment to atoms done       ...    0.0 sec
Grid point division into batches done        ...    0.1 sec
Reduced shell lists constructed in    3.4 sec

Total number of grid points                  ...   150317
Total number of batches                      ...     2430
Average number of points per batch           ...       61
Average number of grid points per atom       ...     1037
Average number of shells per batch           ...   125.87 (17.22%)
Average number of basis functions per batch  ...   255.21 (15.96%)
Average number of large shells per batch     ...    72.03 (57.22%)
Average number of large basis fcns per batch ...   149.33 (58.51%)
Maximum spatial batch extension              ...  25.73, 23.62, 19.72 au
Average spatial batch extension              ...   3.42,  3.47,  3.19 au

Overlap Fitting                  UseSFitting ... on
Constructing numerical overlap ... done (      2.1 sec)
Inverting numerical overlap    ... done (      0.1 sec)
Obtaining analytic overlap     ... done (      0.0 sec)
Final contraction and storage  ... done (      0.2 sec)

Time for X-Grid setup             =   37.559 sec
--------------
SCF ITERATIONS
--------------
ITER       Energy         Delta-E        Max-DP      RMS-DP      [F,P]     Damp
               ***  Starting incremental Fock matrix formation  ***
  0  -6531.7053071547   0.000000000000 0.19684956  0.00082958  0.2218284 0.7000
  1  -6532.4171518856  -0.711844730831 0.12412809  0.00059204  0.0940267 0.7000
                               ***Turning on DIIS***
  2  -6532.7435148943  -0.326363008717 0.22974509  0.00111935  0.0425345 0.0000
  3  -6533.2738594181  -0.530344523784 0.05701398  0.00040746  0.0498596 0.0000
  4  -6533.3661506638  -0.092291245746 0.01649859  0.00012271  0.0226363 0.0000
  5  -6533.3724146027  -0.006263938907 0.00691374  0.00004766  0.0101532 0.0000
                      *** Initiating the SOSCF procedure ***
                           *** Shutting down DIIS ***
                      *** Re-Reading the Fockian *** 
                      *** Removing any level shift *** 
ITER      Energy       Delta-E        Grad      Rot      Max-DP    RMS-DP
  6  -6533.37363427  -0.0012196644  0.002904  0.002904  0.002960  0.000026
               *** Restarting incremental Fock matrix formation ***
  7  -6533.37390046  -0.0002661919  0.001887  0.012176  0.002565  0.000026
  8  -6533.37413131  -0.0002308500  0.000687  0.012115  0.002845  0.000030
  9  -6533.37414430  -0.0000129887  0.000622  0.004368  0.001284  0.000012
 10  -6533.37419779  -0.0000534926  0.000167  0.001270  0.000632  0.000005
 11  -6533.37419568   0.0000021094  0.000164  0.000941  0.000345  0.000003
 12  -6533.37420092  -0.0000052374  0.000015  0.000098  0.000119  0.000001
 13  -6533.37420088   0.0000000370  0.000022  0.000062  0.000078  0.000001
 14  -6533.37420102  -0.0000001379  0.000005  0.000023  0.000028  0.000000
 15  -6533.37420103  -0.0000000092  0.000005  0.000015  0.000013  0.000000
                  ***Gradient check signals convergence***
              ***Rediagonalizing the Fockian in SOSCF/NRSCF***

               *****************************************************
               *                     SUCCESS                       *
               *           SCF CONVERGED AFTER  16 CYCLES          *
[...]
   5   3.187     389.0   0.064818   0.070524  -7.402655  -6.030266     0.68 ( 132-> 134)    0.15 ( 133-> 135)    0.04 ( 133-> 134)
   6   3.440     360.4   0.006525   0.005778   3.805072   4.134365     0.81 ( 130-> 134)    0.11 ( 130-> 135)    0.04 ( 130-> 136)
   7   3.596     344.8   0.086426   0.100791  41.850911  42.556876     0.39 ( 132-> 135)    0.35 ( 129-> 134)    0.03 ( 133-> 134)
   8   3.685     336.4   0.007889   0.006334  -6.935646  -7.550857     0.33 ( 128-> 134)    0.18 ( 129-> 134)    0.15 ( 132-> 135)
   9   3.730     332.4   0.000495   0.000670   1.448282   0.039934     0.32 ( 118-> 137)    0.25 ( 118-> 134)    0.19 ( 118-> 135)
  10   3.748     330.8   0.020455   0.015797  38.343260  39.370218     0.40 ( 131-> 135)    0.23 ( 131-> 134)    0.06 ( 131-> 136)
  11   3.776     328.4   0.063561   0.057583  -43.436347  -41.732270     0.24 ( 114-> 134)    0.18 ( 114-> 136)    0.08 ( 128-> 134)
  12   3.788     327.3   0.167801   0.150185  -18.324505  -16.415443     0.41 ( 125-> 134)    0.13 ( 125-> 135)    0.07 ( 114-> 134)
  13   3.841     322.8   0.188128   0.163635  -31.274513  -37.537488     0.13 ( 127-> 135)    0.10 ( 127-> 134)    0.10 ( 126-> 135)
  14   3.939     314.8   0.024745   0.021218  -47.369002  -39.049877     0.21 ( 118-> 137)    0.17 ( 118-> 135)    0.11 ( 131-> 137)
  15   3.945     314.3   0.053545   0.045044  13.727875  14.659522     0.28 ( 131-> 137)    0.11 ( 118-> 137)    0.09 ( 118-> 135)
  16   3.978     311.7   0.034353   0.030682  105.290174  97.401955     0.21 ( 133-> 138)    0.10 ( 132-> 136)    0.09 ( 127-> 134)
  17   3.992     310.6   0.006146   0.006044  41.483838  39.731552     0.25 ( 131-> 137)    0.25 ( 133-> 138)    0.08 ( 128-> 134)
  18   4.001     309.9   0.009334   0.007111  -3.477039  -3.661370     0.42 ( 126-> 134)    0.30 ( 127-> 134)    0.03 ( 114-> 136)
  19   4.049     306.2   0.006488   0.006201   4.815597   4.966200     0.40 ( 114-> 136)    0.21 ( 114-> 134)    0.19 ( 114-> 135)
  20   4.062     305.3   0.007185   0.004932  10.487731   8.594297     0.75 ( 124-> 134)    0.09 ( 124-> 135)    0.04 ( 123-> 134)
  21   4.134     299.9   0.213796   0.198112  -156.205387  -145.657001     0.34 ( 132-> 136)    0.20 ( 133-> 138)    0.09 ( 133-> 137)
  22   4.254     291.5   0.021518   0.019202  40.373688  39.508749     0.17 ( 133-> 140)    0.11 ( 123-> 134)    0.07 ( 128-> 135)
  23   4.272     290.2   0.002924   0.002355   3.197201   2.522604     0.78 ( 122-> 134)    0.10 ( 122-> 135)    0.04 ( 122-> 136)
  24   4.315     287.3   0.182635   0.159353  78.308714  60.670597     0.19 ( 132-> 137)    0.08 ( 117-> 134)    0.08 ( 133-> 140)
  25   4.327     286.5   0.096178   0.089908   5.712391   3.208728     0.39 ( 130-> 135)    0.10 ( 129-> 135)    0.04 ( 133-> 140)
  26   4.356     284.6   0.255806   0.225694  -89.046651  -80.461208     0.13 ( 130-> 135)    0.09 ( 115-> 134)    0.09 ( 133-> 140)
  27   4.373     283.5   0.018914   0.017371  -28.309135  -26.314056     0.18 ( 132-> 137)    0.08 ( 123-> 134)    0.07 ( 133-> 140)
  28   4.438     279.4   0.025931   0.020272  281.469211  268.401615     0.12 ( 129-> 135)    0.12 ( 123-> 134)    0.08 ( 117-> 134)
  29   4.444     279.0   0.268905   0.226650  -23.342198  -25.776542     0.14 ( 121-> 134)    0.10 ( 127-> 135)    0.06 ( 129-> 135)
  30   4.482     276.6   0.062408   0.055819  174.580333  165.799376     0.19 ( 125-> 136)    0.10 ( 117-> 134)    0.10 ( 133-> 140)
  31   4.501     275.4   0.050314   0.040514  32.914127  29.093402     0.27 ( 130-> 136)    0.18 ( 128-> 135)    0.09 ( 129-> 135)
  32   4.510     274.9   0.107227   0.090242  -9.514311  -0.614287     0.51 ( 121-> 134)    0.11 ( 117-> 134)    0.06 ( 127-> 135)
  33   4.544     272.9   0.327193   0.253905  -217.022566  -190.869674     0.17 ( 127-> 135)    0.15 ( 126-> 135)    0.13 ( 125-> 136)
  34   4.579     270.7   0.103352   0.075796  -39.409504  -34.403489     0.28 ( 130-> 136)    0.13 ( 129-> 135)    0.09 ( 130-> 137)
  35   4.630     267.8   0.078774   0.062219  65.217852  61.939330     0.17 ( 115-> 134)    0.14 ( 120-> 134)    0.09 ( 126-> 135)
  36   4.645     266.9   0.024782   0.020261  -9.985556  -9.812333     0.53 ( 120-> 134)    0.09 ( 133-> 139)    0.03 ( 119-> 134)
  37   4.666     265.7   0.106268   0.082203  -20.270642  -20.237314     0.21 ( 133-> 139)    0.12 ( 115-> 134)    0.06 ( 132-> 138)
  38   4.681     264.9   0.059189   0.044119  -64.722288  -54.539825     0.24 ( 116-> 134)    0.19 ( 120-> 134)    0.08 ( 133-> 139)
  39   4.721     262.6   0.043092   0.031205  10.406885   8.393727     0.16 ( 128-> 136)    0.14 ( 129-> 136)    0.07 ( 133-> 139)
  40   4.724     262.5   0.065264   0.055691  -48.338963  -42.415166     0.15 ( 133-> 139)    0.14 ( 128-> 135)    0.12 ( 126-> 135)
  41   4.767     260.1   0.050446   0.038684  -5.747758  -3.941760     0.59 ( 131-> 136)    0.10 ( 131-> 138)    0.10 ( 131-> 137)
  42   4.836     256.4   0.009549   0.008605  19.252996  16.417780     0.24 ( 113-> 134)    0.10 ( 123-> 135)    0.06 ( 124-> 135)
  43   4.886     253.8   0.015677   0.012558   0.550645   3.670396     0.23 ( 113-> 134)    0.09 ( 124-> 135)    0.08 ( 123-> 135)
  44   4.963     249.8   0.020438   0.016970  -16.107297  -14.115160     0.39 ( 124-> 135)    0.14 ( 123-> 135)    0.07 ( 124-> 136)
  45   4.986     248.6   0.040400   0.032483  21.802029  21.578090     0.21 ( 133-> 142)    0.14 ( 124-> 135)    0.08 ( 132-> 138)
  46   4.998     248.1   0.007532   0.006817  -0.246444  -1.544249     0.55 ( 133-> 142)    0.06 ( 113-> 134)    0.03 ( 121-> 135)

-----------------------------------------------------------------------------
         ABSORPTION SPECTRUM VIA TRANSITION ELECTRIC DIPOLE MOMENTS
-----------------------------------------------------------------------------
State   Energy  Wavelength   fosc         T2         TX        TY        TZ  
        (cm-1)    (nm)                  (au**2)     (au)      (au)      (au) 
-----------------------------------------------------------------------------
   0   16866.4    592.9   3.001859025  58.59272  -5.53955  -5.02330   1.63480
   1   20594.0    485.6   0.048011385   0.76750   0.77386  -0.40643   0.05881
   2   23695.9    422.0   0.067117770   0.93248   0.48855   0.81849   0.15454
   3   24670.7    405.3   0.045924047   0.61282  -0.18421  -0.14321  -0.74725
   4   25147.4    397.7   0.092389394   1.20950  -0.28189   0.14665   1.05287
   5   25708.1    389.0   0.064818151   0.83005   0.84471   0.31794  -0.12420
   6   27747.4    360.4   0.006524575   0.07741  -0.05755  -0.03702  -0.26968
   7   29005.9    344.8   0.086426039   0.98092   0.76207   0.60687   0.17855
   8   29723.4    336.4   0.007888581   0.08737  -0.18785  -0.06470  -0.21886
   9   30082.3    332.4   0.000494633   0.00541   0.04222  -0.04590   0.03904
  10   30228.8    330.8   0.020455205   0.22277   0.40378   0.23755   0.05749
  11   30455.3    328.4   0.063561299   0.68708  -0.59899  -0.20650   0.53446
  12   30552.9    327.3   0.167801465   1.80808   0.70367   0.12225  -1.13929
  13   30980.4    322.8   0.188128184   1.99914   0.30049   0.42298   1.31527
  14   31769.0    314.8   0.024744827   0.25642   0.25024   0.43613   0.05998
  15   31818.6    314.3   0.053545236   0.55401  -0.44111  -0.59054  -0.10339
  16   32081.9    311.7   0.034353133   0.35252  -0.02994   0.37869   0.45631
  17   32195.7    310.6   0.006145819   0.06284  -0.08389   0.07012  -0.22558
  18   32269.7    309.9   0.009333692   0.09522   0.06731  -0.02020  -0.30047
  19   32657.2    306.2   0.006487752   0.06540   0.16493   0.08738  -0.17483
  20   32758.5    305.3   0.007184837   0.07221  -0.21805  -0.01192  -0.15658
  21   33345.3    299.9   0.213795737   2.11077  -0.59883  -0.29682   1.28999
  22   34309.2    291.5   0.021517954   0.20647   0.37044   0.26285   0.01268
  23   34456.8    290.2   0.002924317   0.02794   0.01915  -0.13102   0.10201
  24   34805.8    287.3   0.182635233   1.72746   0.57872   0.57330   1.03144
  25   34898.3    286.5   0.096177866   0.90729   0.20212   0.22982   0.90201
  26   35137.2    284.6   0.255805918   2.39673  -0.50570   0.09881   1.45987
  27   35270.0    283.5   0.018913961   0.17654  -0.09612   0.10655   0.39491
  28   35796.6    279.4   0.025931404   0.23848  -0.16006   0.19163   0.41969
  29   35844.8    279.0   0.268905103   2.46973   0.12974   0.10762  -1.56247
  30   36153.6    276.6   0.062408346   0.56829   0.32678   0.51792   0.43962
  31   36306.0    275.4   0.050314116   0.45623  -0.01721   0.24007   0.63111
  32   36379.4    274.9   0.107226860   0.97034  -0.16074  -0.15718   0.95906
  33   36645.8    272.9   0.327193202   2.93938  -0.19611  -0.17122  -1.69458
  34   36935.2    270.7   0.103352446   0.92120  -0.02133  -0.13773  -0.94962
  35   37340.1    267.8   0.078773998   0.69452  -0.50904  -0.60685  -0.25909
  36   37462.2    266.9   0.024782030   0.21778  -0.07188  -0.06445  -0.45657
  37   37630.7    265.7   0.106267739   0.92968  -0.74125  -0.58650   0.19036
  38   37752.5    264.9   0.059188761   0.51614  -0.04774  -0.06381   0.71400
  39   38076.2    262.6   0.043091891   0.37258  -0.32394  -0.22323  -0.46670
  40   38101.0    262.5   0.065264338   0.56392   0.26887   0.08908   0.69548
  41   38451.1    260.1   0.050446364   0.43191  -0.19820  -0.21722  -0.58775
  42   39008.2    256.4   0.009548576   0.08059   0.03406   0.26457  -0.09711
  43   39407.9    253.8   0.015677158   0.13097   0.22683   0.24531  -0.13907
  44   40025.8    249.8   0.020438191   0.16810  -0.09856  -0.21612  -0.33419
  45   40218.8    248.6   0.040399928   0.33069   0.35033   0.41252   0.19438
  46   40311.6    248.1   0.007531863   0.06151  -0.06337  -0.00560   0.23971

-----------------------------------------------------------------------------
         ABSORPTION SPECTRUM VIA TRANSITION VELOCITY DIPOLE MOMENTS
-----------------------------------------------------------------------------
State   Energy  Wavelength   fosc         P2         PX        PY        PZ  
        (cm-1)    (nm)                  (au**2)     (au)      (au)      (au) 
-----------------------------------------------------------------------------
   0   16866.4    592.9   3.516065131   0.40531  -0.46112  -0.41871   0.13178
   1   20594.0    485.6   0.051720212   0.00728   0.07263  -0.04380   0.00924
   2   23695.9    422.0   0.063280722   0.01025   0.04946   0.08605   0.01994
   3   24670.7    405.3   0.034957760   0.00589  -0.01824  -0.01429  -0.07319
   4   25147.4    397.7   0.089575914   0.01540  -0.02908   0.01944   0.11905
   5   25708.1    389.0   0.070523836   0.01239   0.10342   0.04034  -0.00831
   6   27747.4    360.4   0.005777859   0.00110  -0.00676  -0.00307  -0.03226
   7   29005.9    344.8   0.100791165   0.01998   0.10744   0.08859   0.02426
   8   29723.4    336.4   0.006334357   0.00129  -0.01830  -0.00380  -0.03062
   9   30082.3    332.4   0.000670481   0.00014   0.00852  -0.00472   0.00655
  10   30228.8    330.8   0.015796505   0.00326   0.04948   0.02745   0.00787
  11   30455.3    328.4   0.057583491   0.01199  -0.07977  -0.02725   0.06986
  12   30552.9    327.3   0.150184982   0.03136   0.09341   0.01771  -0.14941
  13   30980.4    322.8   0.163635361   0.03465   0.04182   0.05837   0.17173
  14   31769.0    314.8   0.021218027   0.00461   0.03240   0.05839   0.01217
  15   31818.6    314.3   0.045043545   0.00980  -0.05842  -0.07820  -0.01631
  16   32081.9    311.7   0.030681773   0.00673  -0.00059   0.05506   0.06079
  17   32195.7    310.6   0.006044392   0.00133  -0.01241   0.00928  -0.03301
  18   32269.7    309.9   0.007110797   0.00157   0.00671  -0.00409  -0.03881
  19   32657.2    306.2   0.006201473   0.00138   0.02377   0.01314  -0.02542
  20   32758.5    305.3   0.004932404   0.00110  -0.02884  -0.00217  -0.01636
  21   33345.3    299.9   0.198112115   0.04515  -0.09027  -0.04556   0.18688
  22   34309.2    291.5   0.019201969   0.00450   0.05421   0.03904   0.00631
  23   34456.8    290.2   0.002355465   0.00055   0.00291  -0.01757   0.01541
  24   34805.8    287.3   0.159353391   0.03791   0.08803   0.08772   0.14988
  25   34898.3    286.5   0.089908162   0.02144   0.03215   0.03661   0.13810
  26   35137.2    284.6   0.225694198   0.05420  -0.07756   0.01175   0.21919
  27   35270.0    283.5   0.017370741   0.00419  -0.01297   0.01669   0.06116
  28   35796.6    279.4   0.020272462   0.00496  -0.02810   0.02638   0.05894
  29   35844.8    279.0   0.226649704   0.05552   0.02270   0.01792  -0.23386
  30   36153.6    276.6   0.055819361   0.01379   0.04931   0.07967   0.07080
  31   36306.0    275.4   0.040514387   0.01005  -0.00161   0.03654   0.09335
  32   36379.4    274.9   0.090242123   0.02244  -0.02458  -0.02565   0.14552
  33   36645.8    272.9   0.253905452   0.06359  -0.02556  -0.02432  -0.24969
  34   36935.2    270.7   0.075796269   0.01913  -0.00358  -0.02061  -0.13673
  35   37340.1    267.8   0.062218964   0.01588  -0.07588  -0.09134  -0.04216
  36   37462.2    266.9   0.020260759   0.00519  -0.01203  -0.01121  -0.07012
  37   37630.7    265.7   0.082202724   0.02114  -0.11096  -0.08846   0.03167
  38   37752.5    264.9   0.044118765   0.01138  -0.00653  -0.01030   0.10599
  39   38076.2    262.6   0.031204718   0.00812  -0.05008  -0.03387  -0.06682
  40   38101.0    262.5   0.055690898   0.01450   0.03902   0.01158   0.11334
  41   38451.1    260.1   0.038684102   0.01017  -0.02931  -0.03225  -0.09092
  42   39008.2    256.4   0.008604965   0.00229   0.00806   0.04386  -0.01748
  43   39407.9    253.8   0.012557522   0.00338   0.03733   0.04132  -0.01678
  44   40025.8    249.8   0.016969723   0.00464  -0.01733  -0.03599  -0.05519
  45   40218.8    248.6   0.032483444   0.00893   0.05808   0.06694   0.03277
  46   40311.6    248.1   0.006817340   0.00188  -0.01230  -0.00016   0.04156

-------------------------------------------------------------------
                             CD SPECTRUM
-------------------------------------------------------------------
State   Energy Wavelength       R         MX        MY        MZ   
        (cm-1)   (nm)       (1e40*cgs)   (au)      (au)      (au)  
-------------------------------------------------------------------
   0   16866.4    592.9    146.51450   2.26715  -1.11072   3.88914
   1   20594.0    485.6    -166.65477   0.79518  -0.10931   0.80266
   2   23695.9    422.0    -101.73079  -1.90541   1.84100  -0.93431
   3   24670.7    405.3     -0.90883   0.55395  -1.26966   0.10161
   4   25147.4    397.7     -9.81088  -0.28841   0.85777  -0.15716
   5   25708.1    389.0     -7.40266  -0.11030   0.31823  -0.18841
   6   27747.4    360.4      3.80507   0.04659  -0.21483   0.07941
   7   29005.9    344.8     41.85091  -0.15943   0.14395  -0.80316
   8   29723.4    336.4     -6.93565  -0.01269   0.06157  -0.14175
   9   30082.3    332.4      1.44828   0.16112   0.26001  -0.02595
  10   30228.8    330.8     38.34326  -1.38289   1.72525  -0.24543
  11   30455.3    328.4    -43.43635  -0.41136   0.48513   0.07120
  12   30552.9    327.3    -18.32450  -1.04628   0.40574  -0.67092
  13   30980.4    322.8    -31.27451  -3.36963   4.40875  -0.54711
  14   31769.0    314.8    -47.36900  -0.56471   0.90261  -0.85668
  15   31818.6    314.3     13.72787   1.02885  -0.75665   0.49545
  16   32081.9    311.7    105.29017   0.81938  -0.79744  -0.26333
  17   32195.7    310.6     41.48384   0.85422  -1.16304   0.10094
  18   32269.7    309.9     -3.47704  -0.35360   0.21885  -0.14302
  19   32657.2    306.2      4.81560  -0.19869  -0.47376  -0.30737
  20   32758.5    305.3     10.48773   0.18791  -0.37397   0.05093
  21   33345.3    299.9    -156.20539  -0.22872   1.14342   0.67062
  22   34309.2    291.5     40.37369  -1.76350   1.85762  -0.49594
  23   34456.8    290.2      3.19720  -0.00689   0.16603   0.08159
  24   34805.8    287.3     78.30871  -4.69647   5.86926  -0.94931
  25   34898.3    286.5      5.71239  -2.42052   3.13488  -0.28323
  26   35137.2    284.6    -89.04665   0.40578   0.45752   0.36836
  27   35270.0    283.5    -28.30913  -0.39379   0.50447   0.07216
  28   35796.6    279.4    281.46921   3.55319  -3.68440   0.19230
  29   35844.8    279.0    -23.34220   4.09714  -5.75039  -0.11926
  30   36153.6    276.6    174.58033   1.93998  -2.63674  -0.02038
  31   36306.0    275.4     32.91413   0.60189  -0.31800  -0.08387
  32   36379.4    274.9     -9.51431  -2.59895   3.43590   0.16959
  33   36645.8    272.9    -217.02257   0.20421  -1.25483  -0.44015
  34   36935.2    270.7    -39.40950  -0.16863  -0.51723  -0.09725
  35   37340.1    267.8     65.21785  -0.73144   0.72893   0.79761
  36   37462.2    266.9     -9.98556   0.48194  -0.82004  -0.05290
  37   37630.7    265.7    -20.27064  -1.23536   1.71946   0.93897
  38   37752.5    264.9    -64.72229  -0.40079   0.88784   0.43710
  39   38076.2    262.6     10.40688   0.30918  -0.67277   0.20180
  40   38101.0    262.5    -48.33896   0.17342   0.45902   0.16902
  41   38451.1    260.1     -5.74776   1.13293  -1.75980   0.22684
  42   39008.2    256.4     19.25300   0.18168  -0.52429  -0.52357
  43   39407.9    253.8      0.55064  -0.06293  -0.16098  -0.36980
  44   40025.8    249.8    -16.10730   0.64919  -1.06208   0.29094
  45   40218.8    248.6     21.80203  -0.79837   0.75516  -0.63953
  46   40311.6    248.1     -0.24644  -0.24547   0.86138  -0.04041

sTD-DFT done

Total run time:        8.654 sec

           *** ORCA-CIS/TD-DFT FINISHED WITHOUT ERROR ***

-------------------------   --------------------
FINAL SINGLE POINT ENERGY     -6533.371925535962
-------------------------   --------------------


                            ***************************************
                            *     ORCA property calculations      *
                            ***************************************

                                    ---------------------
                                    Active property flags
                                    ---------------------
   (+) Dipole Moment


------------------------------------------------------------------------------
                       ORCA ELECTRIC PROPERTIES CALCULATION
------------------------------------------------------------------------------

Dipole Moment Calculation                       ... on
Quadrupole Moment Calculation                   ... off
Polarizability Calculation                      ... off
GBWName                                         ... TPIC-4Cl.gbw
Electron density file                           ... TPIC-4Cl.scfp
The origin for moment calculation is the CENTER OF MASS  = (11.421566,  4.683086 -4.530614)

-------------
DIPOLE MOMENT
-------------
                                X             Y             Z
Electronic contribution:      1.48909      48.43194      52.08440
Nuclear contribution   :     -1.48000     -49.12248     -50.88439
                        -----------------------------------------
Total Dipole Moment    :      0.00909      -0.69054       1.20001
                        -----------------------------------------
Magnitude (a.u.)       :      1.38454
Magnitude (Debye)      :      3.51923



--------------------
Rotational spectrum 
--------------------
 
Rotational constants in cm-1:     0.000887     0.000176     0.000164 
Rotational constants in MHz :    26.594978     5.287163     4.923185 

 Dipole components along the rotational axes: 
x,y,z [a.u.] :    -0.742263     0.911757    -0.731235 
x,y,z [Debye]:    -1.886683     2.317502    -1.858652 

 

Timings for individual modules:

Sum of individual times         ...     6910.213 sec (= 115.170 min)
GTO integral calculation        ...        5.151 sec (=   0.086 min)   0.1 %
SCF iterations                  ...     6896.331 sec (= 114.939 min)  99.8 %
CIS module                      ...        8.730 sec (=   0.146 min)   0.1 %
                             ****ORCA TERMINATED NORMALLY****
TOTAL RUN TIME: 0 days 1 hours 55 minutes 10 seconds 990 msec
