
                                 *****************
                                 * O   R   C   A *
                                 *****************

           --- An Ab Initio, DFT and Semiempirical electronic structure package ---

                  #######################################################
                  #                        -***-                        #
                  #          Department of theory and spectroscopy      #
                  #               Directorship: Frank Neese             #
                  #        Max Planck Institute fuer Kohlenforschung    #
                  #                Kaiser Wilhelm Platz 1               #
                  #                 D-45470 Muelheim/Ruhr               #
                  #                      Germany                        #
                  #                                                     #
                  #                  All rights reserved                #
                  #                        -***-                        #
                  #######################################################


                         Program Version 4.2.0 -  RELEASE  -


 With contributions from (in alphabetic order):
   Daniel Aravena         : Magnetic Suceptibility
   Michael Atanasov       : Ab Initio Ligand Field Theory (pilot matlab implementation)
   Alexander A. Auer      : GIAO ZORA, VPT2
   Ute Becker             : Parallelization
   Giovanni Bistoni       : ED, misc. LED, open-shell LED, HFLED
   Martin Brehm           : Molecular dynamics
   Dmytro Bykov           : SCF Hessian
   Vijay G. Chilkuri      : MRCI spin determinant printing, contributions to CSF-ICE
   Dipayan Datta          : RHF DLPNO-CCSD density
   Achintya Kumar Dutta   : EOM-CC, STEOM-CC
   Dmitry Ganyushin       : Spin-Orbit,Spin-Spin,Magnetic field MRCI
   Miquel Garcia          : C-PCM Hessian, Gaussian charge scheme
   Yang Guo               : DLPNO-NEVPT2, CIM, IAO-localization
   Andreas Hansen         : Spin unrestricted coupled pair/coupled cluster methods
   Benjamin Helmich-Paris : CASSCF linear response (MC-RPA)
   Lee Huntington         : MR-EOM, pCC
   Robert Izsak           : Overlap fitted RIJCOSX, COSX-SCS-MP3, EOM
   Christian Kollmar      : KDIIS, OOCD, Brueckner-CCSD(T), CCSD density
   Simone Kossmann        : Meta GGA functionals, TD-DFT gradient, OOMP2, MP2 Hessian
   Martin Krupicka        : AUTO-CI
   Lucas Lang             : DCDCAS
   Dagmar Lenk            : GEPOL surface, SMD
   Dimitrios Liakos       : Extrapolation schemes; Compound Job, initial MDCI parallelization
   Dimitrios Manganas     : Further ROCIS development; embedding schemes
   Dimitrios Pantazis     : SARC Basis sets
   Taras Petrenko         : DFT Hessian,TD-DFT gradient, ASA, ECA, R-Raman, ABS, FL, XAS/XES, NRVS
   Peter Pinski           : DLPNO-MP2, DLPNO-MP2 Gradient
   Christoph Reimann      : Effective Core Potentials
   Marius Retegan         : Local ZFS, SOC
   Christoph Riplinger    : Optimizer, TS searches, QM/MM, DLPNO-CCSD(T), (RO)-DLPNO pert. Triples
   Tobias Risthaus        : Range-separated hybrids, TD-DFT gradient, RPA, STAB
   Michael Roemelt        : Original ROCIS implementation
   Masaaki Saitow         : Open-shell DLPNO-CCSD energy and density
   Barbara Sandhoefer     : DKH picture change effects
   Avijit Sen             : IP-ROCIS
   Kantharuban Sivalingam : CASSCF convergence, NEVPT2, FIC-MRCI
   Bernardo de Souza      : ESD, SOC TD-DFT
   Georgi Stoychev        : AutoAux, RI-MP2 NMR
   Willem Van den Heuvel  : Paramagnetic NMR
   Boris Wezisla          : Elementary symmetry handling
   Frank Wennmohs         : Technical directorship


 We gratefully acknowledge several colleagues who have allowed us to
 interface, adapt or use parts of their codes:
   Stefan Grimme, W. Hujo, H. Kruse,             : VdW corrections, initial TS optimization,
                  C. Bannwarth                     DFT functionals, gCP, sTDA/sTD-DF
   Ed Valeev, F. Pavosevic, A. Kumar             : LibInt (2-el integral package), F12 methods
   Garnet Chan, S. Sharma, J. Yang, R. Olivares  : DMRG
   Ulf Ekstrom                                   : XCFun DFT Library
   Mihaly Kallay                                 : mrcc  (arbitrary order and MRCC methods)
   Andreas Klamt, Michael Diedenhofen            : otool_cosmo (COSMO solvation model)
   Jiri Pittner, Ondrej Demel                    : Mk-CCSD
   Frank Weinhold                                : gennbo (NPA and NBO analysis)
   Christopher J. Cramer and Donald G. Truhlar   : smd solvation model
   Lars Goerigk                                  : TD-DFT with DH, B97 family of functionals
   V. Asgeirsson, H. Jonsson                     : NEB implementation
   FAccTs GmbH                                   : IRC, NEB, NEB-TS, Multilevel, MM, QM/MM, CI optimization
   S Lehtola, MJT Oliveira, MAL Marques          : LibXC Library


 Your calculation uses the libint2 library for the computation of 2-el integrals
 For citations please refer to: http://libint.valeyev.net

 Your ORCA version has been built with support for libXC version: 4.2.3
 For citations please refer to: https://tddft.org/programs/libxc/

 This ORCA versions uses:
   CBLAS   interface :  Fast vector & matrix operations
   LAPACKE interface :  Fast linear algebra routines
   SCALAPACK package :  Parallel linear algebra routines


XCFun DFT library Copyright 2009-2010 Ulf Ekstrom and contributors.
See http://admol.org/xcfun for more information. This is free soft-
ware; see the source code for copying conditions. There is ABSOLUTELY
NO WARRANTY; not even for MERCHANTABILITY or FITNESS FOR A PARTICULAR
PURPOSE. For details see the documentation. Scientific users of this 
library should cite U. Ekstrom, L. Visscher, R. Bast, A. J. Thorvald-
sen and K. Ruud; J.Chem.Theor.Comp. 2010, DOI: 10.1021/ct100117s
XCFun Version 0.99 
----- Orbital basis set information -----
Your calculation utilizes the basis: def2-SVP
   F. Weigend and R. Ahlrichs, Phys. Chem. Chem. Phys. 7, 3297 (2005).

----- AuxJ basis set information -----
Your calculation utilizes the auxiliary basis: def2/J
   F. Weigend, Phys. Chem. Chem. Phys. 8, 1057 (2006).

================================================================================
                                        WARNINGS
                       Please study these warnings very carefully!
================================================================================

INFO   : Checking CIS options ...

WARNING: CIS/ROCIS methods need fully converged wavefunctions
  ===> : Setting SCFConvForced true
         You can overwrite this default with %scf ConvForced false 


INFO   : the flag for use of LIBINT has been found!

================================================================================
                                       INPUT FILE
================================================================================
NAME = Y11.inp
|  1> # ORCA input file
|  2> # Y11.out
|  3> ! CAM-B3LYP def2-SVP def2/J RIJCOSX Grid4 TightSCF
|  4> %maxcore 5000
|  5> %tddft
|  6>     Mode sTDDFT
|  7>     Ethresh 5.0
|  8>     maxcore 5000
|  9> end
| 10> * xyz 0 1
| 11>   C      3.833669    3.784110   -2.446604
| 12>   O      5.051035    3.707685   -2.474767
| 13>   C      3.021447    4.763112   -3.207041
| 14>   C      3.477462    5.741159   -4.083346
| 15>   C      2.530527    6.575766   -4.664137
| 16>   F      2.899552    7.528390   -5.517477
| 17>   C      1.167653    6.428510   -4.347877
| 18>   F      0.296721    7.270461   -4.896214
| 19>   C      0.713343    5.436333   -3.481609
| 20>   C      1.659602    4.581381   -2.902641
| 21>   C      1.529537    3.442486   -1.955406
| 22>   C      0.326331    2.986578   -1.437927
| 23>   C      0.218109    1.902603   -0.511545
| 24>   N      0.105287    1.023654    0.242106
| 25>   C     -0.933874    3.571222   -1.776447
| 26>   N     -1.967960    4.033765   -2.037499
| 27>   C      2.879284    2.946683   -1.682113
| 28>   C      3.204499    1.866251   -0.877705
| 29>   C      4.420231    1.306302   -0.429419
| 30>   S      6.047428    1.950130   -0.761802
| 31>   C      6.742050    0.757959    0.274036
| 32>   C      5.779971   -0.111698    0.829673
| 33>   C      4.463347    0.170333    0.430670
| 34>   C      3.278764   -0.645175    0.873742
| 35>   C      2.856315   -0.382509    2.327004
| 36>   S      6.494774   -1.348765    1.879784
| 37>   C      8.085227   -0.696554    1.535428
| 38>   C      8.044230    0.415718    0.685139
| 39>   N      9.320833    0.867644    0.411445
| 40>   C      9.504052    1.624299   -0.828950
| 41>   C      9.512593    0.743558   -2.072614
| 42>   C     10.216562    0.031807    1.097823
| 43>   C      9.447569   -0.959094    1.805266
| 44>   C     10.115597   -1.972606    2.552734
| 45>   N      9.641474   -2.983308    3.297787
| 46>   N     10.741635   -3.584603    3.734475
| 47>   C     10.680580   -4.789124    4.550131
| 48>   C     10.647284   -6.058344    3.707255
| 49>   N     11.900915   -3.077326    3.332030
| 50>   C     11.535097   -2.032614    2.573941
| 51>   C     12.310321   -1.041318    1.906135
| 52>   C     11.650460    0.028401    1.204004
| 53>   N     12.639289    0.898342    0.729749
| 54>   C     12.556411    2.248610    0.184921
| 55>   C     12.787929    2.307714   -1.323611
| 56>   C     13.868160    0.373127    1.072127
| 57>   C     13.699574   -0.816368    1.793691
| 58>   S     15.213056   -1.573737    2.220131
| 59>   C     16.097995   -0.269633    1.399841
| 60>   C     15.220256    0.696683    0.851066
| 61>   S     16.073942    1.922418   -0.004088
| 62>   C     17.631287    1.141286    0.357535
| 63>   C     17.467727   -0.040138    1.126556
| 64>   C     18.600404   -0.959996    1.471404
| 65>   C     18.232433   -2.417501    1.743444
| 66>   C     18.721366    1.678627   -0.368372
| 67>   C     20.095116    1.600758   -0.217082
| 68>   C     21.059194    1.955077   -1.260109
| 69>   C     20.799165    2.187687   -2.600603
| 70>   C     21.814619    2.564675   -3.534401
| 71>   N     22.616011    2.880812   -4.314729
| 72>   C     19.506630    2.058940   -3.202161
| 73>   N     18.481043    1.960384   -3.741536
| 74>   C     22.405022    1.959680   -0.642394
| 75>   C     23.677783    2.192192   -1.180613
| 76>   C     24.775838    2.101257   -0.330665
| 77>   F     26.001092    2.317935   -0.803299
| 78>   C     24.631357    1.779508    1.030854
| 79>   F     25.725364    1.691472    1.782425
| 80>   C     23.370623    1.553360    1.574832
| 81>   C     22.276096    1.636022    0.721732
| 82>   C     20.842111    1.407209    1.057299
| 83>   O     20.402544    1.199271    2.174009
| 84>   H      4.537816    5.855713   -4.314403
| 85>   H     -0.355487    5.377071   -3.287240
| 86>   H      2.355366    1.323587   -0.471223
| 87>   H      3.555665   -1.707810    0.759535
| 88>   H      2.416848   -0.481874    0.213920
| 89>   H      3.688030   -0.562393    3.025667
| 90>   H      2.024524   -1.045641    2.605643
| 91>   H      2.511740    0.654718    2.453783
| 92>   H     10.411391    2.218587   -0.770457
| 93>   H      8.680562    2.351033   -0.879415
| 94>   H     10.336524    0.014116   -2.035481
| 95>   H      9.637798    1.366730   -2.971541
| 96>   H      8.567241    0.189916   -2.171743
| 97>   H      9.779483   -4.695852    5.171862
| 98>   H     11.563801   -4.764038    5.203512
| 99>   H      9.765303   -6.064026    3.049308
|100>   H     10.599988   -6.940845    4.363362
|101>   H     11.550638   -6.133595    3.083563
|102>   H     13.321962    2.849235    0.700530
|103>   H     11.597851    2.685692    0.489071
|104>   H     13.795310    1.948331   -1.578026
|105>   H     12.696816    3.343398   -1.684878
|106>   H     12.073118    1.684158   -1.874677
|107>   H     19.131529   -0.524269    2.333477
|108>   H     19.336874   -0.903198    0.651468
|109>   H     17.622948   -2.526131    2.653887
|110>   H     19.146942   -3.007417    1.903692
|111>   H     17.678016   -2.869617    0.906494
|112>   H     18.390399    2.252224   -1.237452
|113>   H     23.854478    2.451679   -2.222417
|114>   H     23.252913    1.300923    2.629904
|115> *
|116> 
|117>                          ****END OF INPUT****
================================================================================

                       ****************************
                       * Single Point Calculation *
                       ****************************

---------------------------------
CARTESIAN COORDINATES (ANGSTROEM)
---------------------------------
  C      3.833669    3.784110   -2.446604
  O      5.051035    3.707685   -2.474767
  C      3.021447    4.763112   -3.207041
  C      3.477462    5.741159   -4.083346
  C      2.530527    6.575766   -4.664137
  F      2.899552    7.528390   -5.517477
  C      1.167653    6.428510   -4.347877
  F      0.296721    7.270461   -4.896214
  C      0.713343    5.436333   -3.481609
  C      1.659602    4.581381   -2.902641
  C      1.529537    3.442486   -1.955406
  C      0.326331    2.986578   -1.437927
  C      0.218109    1.902603   -0.511545
  N      0.105287    1.023654    0.242106
  C     -0.933874    3.571222   -1.776447
  N     -1.967960    4.033765   -2.037499
  C      2.879284    2.946683   -1.682113
  C      3.204499    1.866251   -0.877705
  C      4.420231    1.306302   -0.429419
  S      6.047428    1.950130   -0.761802
  C      6.742050    0.757959    0.274036
  C      5.779971   -0.111698    0.829673
  C      4.463347    0.170333    0.430670
  C      3.278764   -0.645175    0.873742
  C      2.856315   -0.382509    2.327004
  S      6.494774   -1.348765    1.879784
  C      8.085227   -0.696554    1.535428
  C      8.044230    0.415718    0.685139
  N      9.320833    0.867644    0.411445
  C      9.504052    1.624299   -0.828950
  C      9.512593    0.743558   -2.072614
  C     10.216562    0.031807    1.097823
  C      9.447569   -0.959094    1.805266
  C     10.115597   -1.972606    2.552734
  N      9.641474   -2.983308    3.297787
  N     10.741635   -3.584603    3.734475
  C     10.680580   -4.789124    4.550131
  C     10.647284   -6.058344    3.707255
  N     11.900915   -3.077326    3.332030
  C     11.535097   -2.032614    2.573941
  C     12.310321   -1.041318    1.906135
  C     11.650460    0.028401    1.204004
  N     12.639289    0.898342    0.729749
  C     12.556411    2.248610    0.184921
  C     12.787929    2.307714   -1.323611
  C     13.868160    0.373127    1.072127
  C     13.699574   -0.816368    1.793691
  S     15.213056   -1.573737    2.220131
  C     16.097995   -0.269633    1.399841
  C     15.220256    0.696683    0.851066
  S     16.073942    1.922418   -0.004088
  C     17.631287    1.141286    0.357535
  C     17.467727   -0.040138    1.126556
  C     18.600404   -0.959996    1.471404
  C     18.232433   -2.417501    1.743444
  C     18.721366    1.678627   -0.368372
  C     20.095116    1.600758   -0.217082
  C     21.059194    1.955077   -1.260109
  C     20.799165    2.187687   -2.600603
  C     21.814619    2.564675   -3.534401
  N     22.616011    2.880812   -4.314729
  C     19.506630    2.058940   -3.202161
  N     18.481043    1.960384   -3.741536
  C     22.405022    1.959680   -0.642394
  C     23.677783    2.192192   -1.180613
  C     24.775838    2.101257   -0.330665
  F     26.001092    2.317935   -0.803299
  C     24.631357    1.779508    1.030854
  F     25.725364    1.691472    1.782425
  C     23.370623    1.553360    1.574832
  C     22.276096    1.636022    0.721732
  C     20.842111    1.407209    1.057299
  O     20.402544    1.199271    2.174009
  H      4.537816    5.855713   -4.314403
  H     -0.355487    5.377071   -3.287240
  H      2.355366    1.323587   -0.471223
  H      3.555665   -1.707810    0.759535
  H      2.416848   -0.481874    0.213920
  H      3.688030   -0.562393    3.025667
  H      2.024524   -1.045641    2.605643
  H      2.511740    0.654718    2.453783
  H     10.411391    2.218587   -0.770457
  H      8.680562    2.351033   -0.879415
  H     10.336524    0.014116   -2.035481
  H      9.637798    1.366730   -2.971541
  H      8.567241    0.189916   -2.171743
  H      9.779483   -4.695852    5.171862
  H     11.563801   -4.764038    5.203512
  H      9.765303   -6.064026    3.049308
  H     10.599988   -6.940845    4.363362
  H     11.550638   -6.133595    3.083563
  H     13.321962    2.849235    0.700530
  H     11.597851    2.685692    0.489071
  H     13.795310    1.948331   -1.578026
  H     12.696816    3.343398   -1.684878
  H     12.073118    1.684158   -1.874677
  H     19.131529   -0.524269    2.333477
  H     19.336874   -0.903198    0.651468
  H     17.622948   -2.526131    2.653887
  H     19.146942   -3.007417    1.903692
  H     17.678016   -2.869617    0.906494
  H     18.390399    2.252224   -1.237452
  H     23.854478    2.451679   -2.222417
  H     23.252913    1.300923    2.629904

----------------------------
CARTESIAN COORDINATES (A.U.)
----------------------------
  NO LB      ZA    FRAG     MASS         X           Y           Z
   0 C     6.0000    0    12.011    7.244584    7.150932   -4.623412
   1 O     8.0000    0    15.999    9.545073    7.006509   -4.676632
   2 C     6.0000    0    12.011    5.709707    9.000977   -6.060429
   3 C     6.0000    0    12.011    6.571451   10.849218   -7.716406
   4 C     6.0000    0    12.011    4.782003   12.426397   -8.813942
   5 F     9.0000    0    18.998    5.479359   14.226595  -10.426520
   6 C     6.0000    0    12.011    2.206544   12.148123   -8.216297
   7 F     9.0000    0    18.998    0.560721   13.739180   -9.252504
   8 C     6.0000    0    12.011    1.348023   10.273181   -6.579288
   9 C     6.0000    0    12.011    3.136193    8.657555   -5.485197
  10 C     6.0000    0    12.011    2.890406    6.505356   -3.695182
  11 C     6.0000    0    12.011    0.616676    5.643814   -2.717288
  12 C     6.0000    0    12.011    0.412166    3.595399   -0.966680
  13 N     7.0000    0    14.007    0.198964    1.934426    0.457514
  14 C     6.0000    0    12.011   -1.764766    6.748632   -3.356998
  15 N     7.0000    0    14.007   -3.718905    7.622711   -3.850315
  16 C     6.0000    0    12.011    5.441058    5.568424   -3.178733
  17 C     6.0000    0    12.011    6.055626    3.526703   -1.658622
  18 C     6.0000    0    12.011    8.353026    2.468553   -0.811484
  19 S    16.0000    0    32.060   11.427983    3.685212   -1.439597
  20 C     6.0000    0    12.011   12.740628    1.432335    0.517853
  21 C     6.0000    0    12.011   10.922562   -0.211079    1.567855
  22 C     6.0000    0    12.011    8.434503    0.321883    0.813848
  23 C     6.0000    0    12.011    6.195966   -1.219204    1.651133
  24 C     6.0000    0    12.011    5.397653   -0.722837    4.397400
  25 S    16.0000    0    32.060   12.273344   -2.548796    3.552277
  26 C     6.0000    0    12.011   15.278865   -1.316296    2.901538
  27 C     6.0000    0    12.011   15.201392    0.785593    1.294725
  28 N     7.0000    0    14.007   17.613822    1.639610    0.777518
  29 C     6.0000    0    12.011   17.960055    3.069480   -1.566488
  30 C     6.0000    0    12.011   17.976196    1.405121   -3.916673
  31 C     6.0000    0    12.011   19.306504    0.060107    2.074585
  32 C     6.0000    0    12.011   17.853318   -1.812425    3.411458
  33 C     6.0000    0    12.011   19.115708   -3.727685    4.823968
  34 N     7.0000    0    14.007   18.219745   -5.637635    6.231914
  35 N     7.0000    0    14.007   20.298748   -6.773918    7.057135
  36 C     6.0000    0    12.011   20.183371   -9.050133    8.598501
  37 C     6.0000    0    12.011   20.120451  -11.448611    7.005697
  38 N     7.0000    0    14.007   22.489470   -5.815303    6.296624
  39 C     6.0000    0    12.011   21.798174   -3.841084    4.864044
  40 C     6.0000    0    12.011   23.263135   -1.967806    3.602073
  41 C     6.0000    0    12.011   22.016179    0.053670    2.275238
  42 N     7.0000    0    14.007   23.884795    1.697620    1.379026
  43 C     6.0000    0    12.011   23.728178    4.249257    0.349450
  44 C     6.0000    0    12.011   24.165684    4.360947   -2.501262
  45 C     6.0000    0    12.011   26.207024    0.705108    2.026026
  46 C     6.0000    0    12.011   25.888443   -1.542712    3.389585
  47 S    16.0000    0    32.060   28.748510   -2.973932    4.195440
  48 C     6.0000    0    12.011   30.420802   -0.509533    2.645316
  49 C     6.0000    0    12.011   28.762116    1.316540    1.608282
  50 S    16.0000    0    32.060   30.375348    3.632844   -0.007725
  51 C     6.0000    0    12.011   33.318304    2.156718    0.675643
  52 C     6.0000    0    12.011   33.009220   -0.075850    2.128882
  53 C     6.0000    0    12.011   35.149670   -1.814130    2.780551
  54 C     6.0000    0    12.011   34.454305   -4.568415    3.294632
  55 C     6.0000    0    12.011   35.378255    3.172145   -0.696122
  56 C     6.0000    0    12.011   37.974266    3.024994   -0.410226
  57 C     6.0000    0    12.011   39.796109    3.694560   -2.381261
  58 C     6.0000    0    12.011   39.304726    4.134129   -4.914427
  59 C     6.0000    0    12.011   41.223656    4.846533   -6.679050
  60 N     7.0000    0    14.007   42.738067    5.443946   -8.153656
  61 C     6.0000    0    12.011   36.862188    3.890833   -6.051207
  62 N     7.0000    0    14.007   34.924110    3.704589   -7.070478
  63 C     6.0000    0    12.011   42.339356    3.703259   -1.213949
  64 C     6.0000    0    12.011   44.744525    4.142643   -2.231035
  65 C     6.0000    0    12.011   46.819549    3.970800   -0.624866
  66 F     9.0000    0    18.998   49.134943    4.380262   -1.518015
  67 C     6.0000    0    12.011   46.546519    3.362783    1.948032
  68 F     9.0000    0    18.998   48.613893    3.196419    3.368295
  69 C     6.0000    0    12.011   44.164077    2.935425    2.976001
  70 C     6.0000    0    12.011   42.095721    3.091634    1.363876
  71 C     6.0000    0    12.011   39.385882    2.659240    1.998006
  72 O     8.0000    0    15.999   38.555221    2.266294    4.108282
  73 H     1.0000    0     1.008    8.575229   11.065694   -8.153040
  74 H     1.0000    0     1.008   -0.671773   10.161192   -6.211983
  75 H     1.0000    0     1.008    4.450997    2.501217   -0.890482
  76 H     1.0000    0     1.008    6.719233   -3.227293    1.435313
  77 H     1.0000    0     1.008    4.567181   -0.910610    0.404250
  78 H     1.0000    0     1.008    6.969367   -1.062769    5.717682
  79 H     1.0000    0     1.008    3.825796   -1.975975    4.923952
  80 H     1.0000    0     1.008    4.746501    1.237238    4.636978
  81 H     1.0000    0     1.008   19.674678    4.192522   -1.455953
  82 H     1.0000    0     1.008   16.403885    4.442809   -1.661854
  83 H     1.0000    0     1.008   19.533200    0.026675   -3.846502
  84 H     1.0000    0     1.008   18.212799    2.582745   -5.615399
  85 H     1.0000    0     1.008   16.189739    0.358889   -4.104000
  86 H     1.0000    0     1.008   18.480545   -8.873874    9.773403
  87 H     1.0000    0     1.008   21.852417   -9.002727    9.833213
  88 H     1.0000    0     1.008   18.453748  -11.459348    5.762357
  89 H     1.0000    0     1.008   20.031074  -13.116296    8.245559
  90 H     1.0000    0     1.008   21.827542  -11.590815    5.827090
  91 H     1.0000    0     1.008   25.174860    5.384274    1.323810
  92 H     1.0000    0     1.008   21.916762    5.075222    0.924210
  93 H     1.0000    0     1.008   26.069358    3.681812   -2.982037
  94 H     1.0000    0     1.008   23.993505    6.318107   -3.183958
  95 H     1.0000    0     1.008   22.814887    3.182597   -3.542626
  96 H     1.0000    0     1.008   36.153350   -0.990725    4.409632
  97 H     1.0000    0     1.008   36.541396   -1.706797    1.231096
  98 H     1.0000    0     1.008   33.302545   -4.773696    5.015120
  99 H     1.0000    0     1.008   36.182477   -5.683195    3.597457
 100 H     1.0000    0     1.008   33.406609   -5.422790    1.713025
 101 H     1.0000    0     1.008   34.752818    4.256087   -2.338445
 102 H     1.0000    0     1.008   45.078430    4.633002   -4.199759
 103 H     1.0000    0     1.008   43.941637    2.458388    4.969798

--------------------------------
INTERNAL COORDINATES (ANGSTROEM)
--------------------------------
 C      0   0   0     0.000000000000     0.00000000     0.00000000
 O      1   0   0     1.220087666174     0.00000000     0.00000000
 C      1   2   0     1.482030338508   125.19482633     0.00000000
 C      3   1   2     1.390120882319   127.47645390     0.81307882
 C      4   3   1     1.389450583632   117.55181278   181.55585265
 F      5   4   3     1.331112726857   120.59122754   180.35121694
 C      5   4   3     1.406815644287   120.22434509     0.81139816
 F      7   5   4     1.329690753745   118.39492985   178.17219604
 C      7   5   4     1.393281386961   122.01888198   358.35127856
 C      9   7   5     1.400554519613   118.12641212     0.94460908
 C     10   9   7     1.487028200968   132.20281499   179.92475545
 C     11  10   9     1.386845809144   124.42630356     0.28506340
 C     12  11  10     1.429999095046   123.81914255   180.99228470
 N     13  12  11     1.163301327295   178.77119871   180.49187764
 C     12  11  10     1.429867490071   122.81219873     0.42923336
 N     15  12  11     1.162509367252   178.94891784   185.09587154
 C     11  10   9     1.463668897896   107.32051355   181.22947915
 C     17  11  10     1.385702108432   126.08129975   181.96602735
 C     18  17  11     1.411562083729   134.09010295   185.14931425
 S     19  18  17     1.781225148341   125.74262311     2.94963019
 C     20  19  18     1.725320775499    90.34377140   174.58920028
 C     21  20  19     1.410897507142   112.81885480     1.14490358
 C     22  21  20     1.404365919675   113.80423439   359.89793866
 C     23  22  21     1.504859787202   123.05946626   178.57922439
 C     24  23  22     1.536042651036   113.72722201    75.18982350
 S     22  21  20     1.773135980014   112.85354189   179.34534377
 C     26  22  21     1.753140321955    89.41791607   359.07581316
 C     27  26  22     1.400650255958   112.83735678     1.03834017
 N     28  27  26     1.381615262915   110.66887257   181.82076383
 C     29  28  27     1.464471149259   116.89718562   155.80791620
 C     30  29  28     1.523967782684   113.16034796   284.12714745
 C     29  28  27     1.404303632016   107.32868688     0.00000000
 C     27  26  22     1.413405646942   140.15885812   184.05654629
 C     33  27  26     1.425544244824   133.14503437   359.69962374
 N     34  33  27     1.342168068739   131.36939706   356.60582776
 N     35  34  33     1.327631843656   103.35113005   179.75080059
 C     36  35  34     1.455985323690   121.61454840   182.60286271
 C     37  36  35     1.523964561068   112.33836011    88.39502488
 N     36  35  34     1.327863717086   116.79163360   359.06037577
 C     39  36  35     1.341620253272   103.33737908     0.90432414
 C     40  39  36     1.424642012376   131.17260819   176.53876125
 C     32  29  28     1.437828042570   132.34605114   181.03932599
 N     42  32  29     1.399820681283   132.68555726     4.52151527
 C     43  42  32     1.458399802623   131.43823991    13.80794879
 C     44  43  42     1.527338424241   113.34042497   252.79966050
 C     43  42  32     1.379564215885   107.97214035   182.82236820
 C     46  43  42     1.401418638565   110.10644949   358.61558462
 S     47  46  43     1.745304168357   112.94271666   178.09535890
 C     48  47  46     1.776704804023    90.03412440   359.58726259
 C     46  43  42     1.407735786315   136.80976112   176.14612298
 S     50  46  43     1.721189832801   135.89641546   358.47602146
 C     51  50  46     1.779399293182    91.17454126   185.07271105
 C     49  48  47     1.415456957337   133.64086331   184.72792674
 C     53  49  48     1.499338544024   125.95638185     1.93721915
 C     54  53  49     1.527654818166   116.38027043    19.62213647
 C     52  51  50     1.415608896967   113.77231890   169.20076080
 C     56  52  51     1.384247560143   133.37774376   163.75777773
 C     57  56  52     1.463862584594   124.20121311   164.16333778
 C     58  57  56     1.385152214371   127.34105081   347.70329031
 C     59  58  57     1.430120793172   122.87936904   178.28142951
 N     60  59  58     1.162361186558   178.34717795   195.99384337
 C     59  58  57     1.431465872313   124.13140179   357.25989461
 N     62  59  58     1.162956306286   177.21159766   189.33383423
 C     58  57  56     1.480826125654   107.58240974   170.47541068
 C     64  58  57     1.401307277233   131.74095894   178.03499960
 C     65  64  58     1.391547900704   118.11643154   181.10973529
 F     66  65  64     1.331006994030   119.92495705   180.14185312
 C     66  65  64     1.406460509834   121.67935393     0.32123511
 F     68  66  65     1.330210743223   118.52890843   179.09474035
 C     68  66  65     1.391583702529   120.57455315   359.36408030
 C     70  68  66     1.390180553012   117.62925909     1.03094226
 C     57  56  52     1.489801892396   126.75552278   331.72003786
 O     72  57  56     1.217989566225   128.71875755     5.09049409
 H      4   3   1     1.091265577887   121.74072228     1.67654038
 H      9   7   5     1.087974660415   118.04724754   180.38297620
 H     18  17  11     1.086618003214   115.03315722     3.61165156
 H     24  23  22     1.104042818859   107.08000832   314.27298198
 H     24  23  22     1.097693709256   111.13046468   198.77527097
 H     25  24  23     1.101016840130   111.38730029   303.13914224
 H     25  24  23     1.099663589206   110.15984663   183.08493800
 H     25  24  23     1.100293004156   110.87572198    64.08729966
 H     30  29  28     1.086215318854   109.97302798   159.59770120
 H     30  29  28     1.099465689815   106.65969420    45.72438065
 H     31  30  29     1.101057121050   111.07218113   299.20770487
 H     31  30  29     1.100949310794   109.86683614   179.14617184
 H     31  30  29     1.100016557470   111.07542596    59.71321585
 H     37  36  35     1.098737869446   106.32953778   326.22504259
 H     37  36  35     1.098915544252   106.28971594   210.51312607
 H     38  37  36     1.100371312010   110.64136726   299.86845089
 H     38  37  36     1.100691292809   109.81604461   180.08274449
 H     38  37  36     1.100319441426   110.64169591    60.26043683
 H     44  43  42     1.101213587415   106.89137312   131.90636631
 H     44  43  42     1.096533251126   108.36719426    19.10050333
 H     45  44  43     1.099408755684   110.78154446   298.44194640
 H     45  44  43     1.100661969868   110.36811064   178.98892684
 H     45  44  43     1.097018954810   112.04772843    58.05354005
 H     54  53  49     1.102325560569   107.53911503   254.79688143
 H     54  53  49     1.103589197936   107.55880023   143.50730929
 H     55  54  53     1.100989962885   112.00791554   293.70965526
 H     55  54  53     1.100003190741   109.71532851   175.44783876
 H     55  54  53     1.101032419979   112.19115483    55.39138353
 H     56  52  51     1.092635675739   111.95555922   342.14956850
 H     65  64  58     1.088076376276   123.69798884     1.89109331
 H     70  68  66     1.091218130464   120.88248798   179.84300323

---------------------------
INTERNAL COORDINATES (A.U.)
---------------------------
 C      0   0   0     0.000000000000     0.00000000     0.00000000
 O      1   0   0     2.305631548444     0.00000000     0.00000000
 C      1   2   0     2.800631461942   125.19482633     0.00000000
 C      3   1   2     2.626947760628   127.47645390     0.81307882
 C      4   3   1     2.625681079681   117.55181278   181.55585265
 F      5   4   3     2.515438507137   120.59122754   180.35121694
 C      5   4   3     2.658496288619   120.22434509     0.81139816
 F      7   5   4     2.512751367385   118.39492985   178.17219604
 C      7   5   4     2.632920248847   122.01888198   358.35127856
 C      9   7   5     2.646664477695   118.12641212     0.94460908
 C     10   9   7     2.810076053248   132.20281499   179.92475545
 C     11  10   9     2.620758769259   124.42630356     0.28506340
 C     12  11  10     2.702306661393   123.81914255   180.99228470
 N     13  12  11     2.198320919814   178.77119871   180.49187764
 C     12  11  10     2.702057964031   122.81219873     0.42923336
 N     15  12  11     2.196824332225   178.94891784   185.09587154
 C     11  10   9     2.765933367761   107.32051355   181.22947915
 C     17  11  10     2.618597488134   126.08129975   181.96602735
 C     18  17  11     2.667465759275   134.09010295   185.14931425
 S     19  18  17     3.366027713218   125.74262311     2.94963019
 C     20  19  18     3.260383758858    90.34377140   174.58920028
 C     21  20  19     2.666209891530   112.81885480     1.14490358
 C     22  21  20     2.653866979999   113.80423439   359.89793866
 C     23  22  21     2.843772867762   123.05946626   178.57922439
 C     24  23  22     2.902699940480   113.72722201    75.18982350
 S     22  21  20     3.350741400428   112.85354189   179.34534377
 C     26  22  21     3.312955082830    89.41791607   359.07581316
 C     27  26  22     2.646845393167   112.83735678     1.03834017
 N     28  27  26     2.610874469356   110.66887257   181.82076383
 C     29  28  27     2.767449403128   116.89718562   155.80791620
 C     30  29  28     2.879881746191   113.16034796   284.12714745
 C     29  28  27     2.653749273382   107.32868688     0.00000000
 C     27  26  22     2.670949588858   140.15885812   184.05654629
 C     33  27  26     2.693888214506   133.14503437   359.69962374
 N     34  33  27     2.536330075610   131.36939706   356.60582776
 N     35  34  33     2.508860591183   103.35113005   179.75080059
 C     36  35  34     2.751413516784   121.61454840   182.60286271
 C     37  36  35     2.879875658221   112.33836011    88.39502488
 N     36  35  34     2.509298768464   116.79163360   359.06037577
 C     39  36  35     2.535294854406   103.33737908     0.90432414
 C     40  39  36     2.692183242270   131.17260819   176.53876125
 C     32  29  28     2.717101228130   132.34605114   181.03932599
 N     42  32  29     2.645277724224   132.68555726     4.52151527
 C     43  42  32     2.755976220723   131.43823991    13.80794879
 C     44  43  42     2.886251335631   113.34042497   252.79966050
 C     43  42  32     2.606998552180   107.97214035   182.82236820
 C     46  43  42     2.648297425860   110.10644949   358.61558462
 S     47  46  43     3.298146898586   112.94271666   178.09535890
 C     48  47  46     3.357485500425    90.03412440   359.58726259
 C     46  43  42     2.660235105056   136.80976112   176.14612298
 S     50  46  43     3.252577408483   135.89641546   358.47602146
 C     51  50  46     3.362577347008    91.17454126   185.07271105
 C     49  48  47     2.674826003721   133.64086331   184.72792674
 C     53  49  48     2.833339230238   125.95638185     1.93721915
 C     54  53  49     2.886849233499   116.38027043    19.62213647
 C     52  51  50     2.675113128009   113.77231890   169.20076080
 C     56  52  51     2.615848790218   133.37774376   163.75777773
 C     57  56  52     2.766299382577   124.20121311   164.16333778
 C     58  57  56     2.617558338956   127.34105081   347.70329031
 C     59  58  57     2.702536637522   122.87936904   178.28142951
 N     60  59  58     2.196544311295   178.34717795   195.99384337
 C     59  58  57     2.705078468727   124.13140179   357.25989461
 N     62  59  58     2.197668924597   177.21159766   189.33383423
 C     58  57  56     2.798355829441   107.58240974   170.47541068
 C     64  58  57     2.648086983441   131.74095894   178.03499960
 C     65  64  58     2.629644434564   118.11643154   181.10973529
 F     66  65  64     2.515238701050   119.92495705   180.14185312
 C     66  65  64     2.657825181762   121.67935393     0.32123511
 F     68  66  65     2.513734005091   118.52890843   179.09474035
 C     68  66  65     2.629712090208   120.57455315   359.36408030
 C     70  68  66     2.627060521896   117.62925909     1.03094226
 C     57  56  52     2.815317570426   126.75552278   331.72003786
 O     72  57  56     2.301666714139   128.71875755     5.09049409
 H      4   3   1     2.062193081582   121.74072228     1.67654038
 H      9   7   5     2.055974148830   118.04724754   180.38297620
 H     18  17  11     2.053410438263   115.03315722     3.61165156
 H     24  23  22     2.086338567767   107.08000832   314.27298198
 H     24  23  22     2.074340489423   111.13046468   198.77527097
 H     25  24  23     2.080620296681   111.38730029   303.13914224
 H     25  24  23     2.078063023045   110.15984663   183.08493800
 H     25  24  23     2.079252444925   110.87572198    64.08729966
 H     30  29  28     2.052649475105   109.97302798   159.59770120
 H     30  29  28     2.077689047394   106.65969420    45.72438065
 H     31  30  29     2.080696416587   111.07218113   299.20770487
 H     31  30  29     2.080492684730   109.86683614   179.14617184
 H     31  30  29     2.078730036398   111.07542596    59.71321585
 H     37  36  35     2.076313666220   106.32953778   326.22504259
 H     37  36  35     2.076649422945   106.28971594   210.51312607
 H     38  37  36     2.079400425322   110.64136726   299.86845089
 H     38  37  36     2.080005101401   109.81604461   180.08274449
 H     38  37  36     2.079302404125   110.64169591    60.26043683
 H     44  43  42     2.080992095167   106.89137312   131.90636631
 H     44  43  42     2.072147541366   108.36719426    19.10050333
 H     45  44  43     2.077581457478   110.78154446   298.44194640
 H     45  44  43     2.079949689073   110.36811064   178.98892684
 H     45  44  43     2.073065388312   112.04772843    58.05354005
 H     54  53  49     2.083093419896   107.53911503   254.79688143
 H     54  53  49     2.085481348452   107.55880023   143.50730929
 H     55  54  53     2.080569506049   112.00791554   293.70965526
 H     55  54  53     2.078704776941   109.71532851   175.44783876
 H     55  54  53     2.080649738329   112.19115483    55.39138353
 H     56  52  51     2.064782191299   111.95555922   342.14956850
 H     65  64  58     2.056166363951   123.69798884     1.89109331
 H     70  68  66     2.062103418946   120.88248798   179.84300323

---------------------
BASIS SET INFORMATION
---------------------
There are 6 groups of distinct atoms

 Group   1 Type C   : 7s4p1d contracted to 3s2p1d pattern {511/31/1}
 Group   2 Type O   : 7s4p1d contracted to 3s2p1d pattern {511/31/1}
 Group   3 Type F   : 7s4p1d contracted to 3s2p1d pattern {511/31/1}
 Group   4 Type N   : 7s4p1d contracted to 3s2p1d pattern {511/31/1}
 Group   5 Type S   : 10s7p1d contracted to 4s3p1d pattern {5311/511/1}
 Group   6 Type H   : 4s1p contracted to 2s1p pattern {31/1}

Atom   0C    basis set group =>   1
Atom   1O    basis set group =>   2
Atom   2C    basis set group =>   1
Atom   3C    basis set group =>   1
Atom   4C    basis set group =>   1
Atom   5F    basis set group =>   3
Atom   6C    basis set group =>   1
Atom   7F    basis set group =>   3
Atom   8C    basis set group =>   1
Atom   9C    basis set group =>   1
Atom  10C    basis set group =>   1
Atom  11C    basis set group =>   1
Atom  12C    basis set group =>   1
Atom  13N    basis set group =>   4
Atom  14C    basis set group =>   1
Atom  15N    basis set group =>   4
Atom  16C    basis set group =>   1
Atom  17C    basis set group =>   1
Atom  18C    basis set group =>   1
Atom  19S    basis set group =>   5
Atom  20C    basis set group =>   1
Atom  21C    basis set group =>   1
Atom  22C    basis set group =>   1
Atom  23C    basis set group =>   1
Atom  24C    basis set group =>   1
Atom  25S    basis set group =>   5
Atom  26C    basis set group =>   1
Atom  27C    basis set group =>   1
Atom  28N    basis set group =>   4
Atom  29C    basis set group =>   1
Atom  30C    basis set group =>   1
Atom  31C    basis set group =>   1
Atom  32C    basis set group =>   1
Atom  33C    basis set group =>   1
Atom  34N    basis set group =>   4
Atom  35N    basis set group =>   4
Atom  36C    basis set group =>   1
Atom  37C    basis set group =>   1
Atom  38N    basis set group =>   4
Atom  39C    basis set group =>   1
Atom  40C    basis set group =>   1
Atom  41C    basis set group =>   1
Atom  42N    basis set group =>   4
Atom  43C    basis set group =>   1
Atom  44C    basis set group =>   1
Atom  45C    basis set group =>   1
Atom  46C    basis set group =>   1
Atom  47S    basis set group =>   5
Atom  48C    basis set group =>   1
Atom  49C    basis set group =>   1
Atom  50S    basis set group =>   5
Atom  51C    basis set group =>   1
Atom  52C    basis set group =>   1
Atom  53C    basis set group =>   1
Atom  54C    basis set group =>   1
Atom  55C    basis set group =>   1
Atom  56C    basis set group =>   1
Atom  57C    basis set group =>   1
Atom  58C    basis set group =>   1
Atom  59C    basis set group =>   1
Atom  60N    basis set group =>   4
Atom  61C    basis set group =>   1
Atom  62N    basis set group =>   4
Atom  63C    basis set group =>   1
Atom  64C    basis set group =>   1
Atom  65C    basis set group =>   1
Atom  66F    basis set group =>   3
Atom  67C    basis set group =>   1
Atom  68F    basis set group =>   3
Atom  69C    basis set group =>   1
Atom  70C    basis set group =>   1
Atom  71C    basis set group =>   1
Atom  72O    basis set group =>   2
Atom  73H    basis set group =>   6
Atom  74H    basis set group =>   6
Atom  75H    basis set group =>   6
Atom  76H    basis set group =>   6
Atom  77H    basis set group =>   6
Atom  78H    basis set group =>   6
Atom  79H    basis set group =>   6
Atom  80H    basis set group =>   6
Atom  81H    basis set group =>   6
Atom  82H    basis set group =>   6
Atom  83H    basis set group =>   6
Atom  84H    basis set group =>   6
Atom  85H    basis set group =>   6
Atom  86H    basis set group =>   6
Atom  87H    basis set group =>   6
Atom  88H    basis set group =>   6
Atom  89H    basis set group =>   6
Atom  90H    basis set group =>   6
Atom  91H    basis set group =>   6
Atom  92H    basis set group =>   6
Atom  93H    basis set group =>   6
Atom  94H    basis set group =>   6
Atom  95H    basis set group =>   6
Atom  96H    basis set group =>   6
Atom  97H    basis set group =>   6
Atom  98H    basis set group =>   6
Atom  99H    basis set group =>   6
Atom 100H    basis set group =>   6
Atom 101H    basis set group =>   6
Atom 102H    basis set group =>   6
Atom 103H    basis set group =>   6
---------------------------------
AUXILIARY/J BASIS SET INFORMATION
---------------------------------
There are 6 groups of distinct atoms

 Group   1 Type C   : 12s5p4d2f1g contracted to 6s4p3d1f1g pattern {711111/2111/211/2/1}
 Group   2 Type O   : 12s5p4d2f1g contracted to 6s4p3d1f1g pattern {711111/2111/211/2/1}
 Group   3 Type F   : 12s5p4d2f1g contracted to 6s4p3d1f1g pattern {711111/2111/211/2/1}
 Group   4 Type N   : 12s5p4d2f1g contracted to 6s4p3d1f1g pattern {711111/2111/211/2/1}
 Group   5 Type S   : 14s5p5d2f1g contracted to 8s4p3d1f1g pattern {71111111/2111/311/2/1}
 Group   6 Type H   : 5s2p1d contracted to 3s1p1d pattern {311/2/1}

Atom   0C    basis set group =>   1
Atom   1O    basis set group =>   2
Atom   2C    basis set group =>   1
Atom   3C    basis set group =>   1
Atom   4C    basis set group =>   1
Atom   5F    basis set group =>   3
Atom   6C    basis set group =>   1
Atom   7F    basis set group =>   3
Atom   8C    basis set group =>   1
Atom   9C    basis set group =>   1
Atom  10C    basis set group =>   1
Atom  11C    basis set group =>   1
Atom  12C    basis set group =>   1
Atom  13N    basis set group =>   4
Atom  14C    basis set group =>   1
Atom  15N    basis set group =>   4
Atom  16C    basis set group =>   1
Atom  17C    basis set group =>   1
Atom  18C    basis set group =>   1
Atom  19S    basis set group =>   5
Atom  20C    basis set group =>   1
Atom  21C    basis set group =>   1
Atom  22C    basis set group =>   1
Atom  23C    basis set group =>   1
Atom  24C    basis set group =>   1
Atom  25S    basis set group =>   5
Atom  26C    basis set group =>   1
Atom  27C    basis set group =>   1
Atom  28N    basis set group =>   4
Atom  29C    basis set group =>   1
Atom  30C    basis set group =>   1
Atom  31C    basis set group =>   1
Atom  32C    basis set group =>   1
Atom  33C    basis set group =>   1
Atom  34N    basis set group =>   4
Atom  35N    basis set group =>   4
Atom  36C    basis set group =>   1
Atom  37C    basis set group =>   1
Atom  38N    basis set group =>   4
Atom  39C    basis set group =>   1
Atom  40C    basis set group =>   1
Atom  41C    basis set group =>   1
Atom  42N    basis set group =>   4
Atom  43C    basis set group =>   1
Atom  44C    basis set group =>   1
Atom  45C    basis set group =>   1
Atom  46C    basis set group =>   1
Atom  47S    basis set group =>   5
Atom  48C    basis set group =>   1
Atom  49C    basis set group =>   1
Atom  50S    basis set group =>   5
Atom  51C    basis set group =>   1
Atom  52C    basis set group =>   1
Atom  53C    basis set group =>   1
Atom  54C    basis set group =>   1
Atom  55C    basis set group =>   1
Atom  56C    basis set group =>   1
Atom  57C    basis set group =>   1
Atom  58C    basis set group =>   1
Atom  59C    basis set group =>   1
Atom  60N    basis set group =>   4
Atom  61C    basis set group =>   1
Atom  62N    basis set group =>   4
Atom  63C    basis set group =>   1
Atom  64C    basis set group =>   1
Atom  65C    basis set group =>   1
Atom  66F    basis set group =>   3
Atom  67C    basis set group =>   1
Atom  68F    basis set group =>   3
Atom  69C    basis set group =>   1
Atom  70C    basis set group =>   1
Atom  71C    basis set group =>   1
Atom  72O    basis set group =>   2
Atom  73H    basis set group =>   6
Atom  74H    basis set group =>   6
Atom  75H    basis set group =>   6
Atom  76H    basis set group =>   6
Atom  77H    basis set group =>   6
Atom  78H    basis set group =>   6
Atom  79H    basis set group =>   6
Atom  80H    basis set group =>   6
Atom  81H    basis set group =>   6
Atom  82H    basis set group =>   6
Atom  83H    basis set group =>   6
Atom  84H    basis set group =>   6
Atom  85H    basis set group =>   6
Atom  86H    basis set group =>   6
Atom  87H    basis set group =>   6
Atom  88H    basis set group =>   6
Atom  89H    basis set group =>   6
Atom  90H    basis set group =>   6
Atom  91H    basis set group =>   6
Atom  92H    basis set group =>   6
Atom  93H    basis set group =>   6
Atom  94H    basis set group =>   6
Atom  95H    basis set group =>   6
Atom  96H    basis set group =>   6
Atom  97H    basis set group =>   6
Atom  98H    basis set group =>   6
Atom  99H    basis set group =>   6
Atom 100H    basis set group =>   6
Atom 101H    basis set group =>   6
Atom 102H    basis set group =>   6
Atom 103H    basis set group =>   6
------------------------------------------------------------------------------
                           ORCA GTO INTEGRAL CALCULATION
                           -- RI-GTO INTEGRALS CHOSEN --
------------------------------------------------------------------------------

                         BASIS SET STATISTICS AND STARTUP INFO

Gaussian basis set:
 # of primitive gaussian shells          ... 1055
 # of primitive gaussian functions       ... 2017
 # of contracted shells                  ...  539
 # of contracted basis functions         ... 1193
 Highest angular momentum                ...    2
 Maximum contraction depth               ...    5
Auxiliary gaussian basis set:
 # of primitive gaussian shells          ... 2012
 # of primitive gaussian functions       ... 5634
 # of contracted shells                  ... 1258
 # of contracted aux-basis functions     ... 3926
 Highest angular momentum                ...    4
 Maximum contraction depth               ...    7
Ratio of auxiliary to basis functions    ...  3.29
Integral package used                  ... LIBINT
 One Electron integrals                  ... done
 Ordering auxiliary basis shells         ... done
 Integral threshhold             Thresh  ...  2.500e-11
 Primitive cut-off               TCut    ...  2.500e-12
 Pre-screening matrix                    ... done
 Shell pair data                         ... 
 Ordering of the shell pairs             ... done (   0.011 sec) 47772 of 145530 pairs
 Determination of significant pairs      ... done (   0.000 sec)
 Creation of shell pair data             ... done (   0.007 sec)
 Storage of shell pair data              ... done (   0.010 sec)
 Shell pair data done in (   0.028 sec)
 Computing two index integrals           ... done
 Cholesky decomposition of the V-matrix  ... done


Timings:
 Total evaluation time                   ...   2.455 sec (  0.041 min)
 One electron matrix time                ...   0.608 sec (  0.010 min) = 24.8%
 Schwartz matrix evaluation time         ...   0.760 sec (  0.013 min) = 31.0%
 Two index repulsion integral time       ...   0.471 sec (  0.008 min) = 19.2%
 Cholesky decomposition of V             ...   0.569 sec (  0.009 min) = 23.2%
 Three index repulsion integral time     ...   0.000 sec (  0.000 min) =  0.0%

-------------------------------------------------------------------------------
                                 ORCA SCF
-------------------------------------------------------------------------------

------------
SCF SETTINGS
------------
Hamiltonian:
 Density Functional     Method          .... DFT(GTOs)
 Exchange Functional    Exchange        .... WB88
 Correlation Functional Correlation     .... LYP
 LDA part of GGA corr.  LDAOpt          .... VWN-5
 Gradients option       PostSCFGGA      .... off
 Hybrid DFT is turned on
   Fraction HF Exchange ScalHFX         ....  0.190000
   Scaling of DF-GGA-X  ScalDFX         ....  0.350000
   Scaling of DF-GGA-C  ScalDFC         ....  0.810000
   Scaling of DF-LDA-C  ScalLDAC        ....  1.000000
   Perturbative correction              ....  0.000000
   Density functional embedding theory  .... OFF
 Long-range corrected/Screened/Range-Separated Hybrid DFT is turned on
   Amount of maximum screened exact exchange              ....  0.460000
   Range separation parameter mu (erf(mu*r12)/r12)        ....  0.330000
 RI-approximation to the Coulomb term is turned on
   Number of auxiliary basis functions  .... 3926
   RIJ-COSX (HFX calculated with COS-X)).... on


General Settings:
 Integral files         IntName         .... Y11
 Hartree-Fock type      HFTyp           .... RHF
 Total Charge           Charge          ....    0
 Multiplicity           Mult            ....    1
 Number of Electrons    NEL             ....  534
 Basis Dimension        Dim             .... 1193
 Nuclear Repulsion      ENuc            ....  11045.2272422775 Eh

Convergence Acceleration:
 DIIS                   CNVDIIS         .... on
   Start iteration      DIISMaxIt       ....    12
   Startup error        DIISStart       ....  0.200000
   # of expansion vecs  DIISMaxEq       ....     5
   Bias factor          DIISBfac        ....   1.050
   Max. coefficient     DIISMaxC        ....  10.000
 Newton-Raphson         CNVNR           .... off
 SOSCF                  CNVSOSCF        .... on
   Start iteration      SOSCFMaxIt      ....   150
   Startup grad/error   SOSCFStart      ....  0.003300
 Level Shifting         CNVShift        .... on
   Level shift para.    LevelShift      ....    0.2500
   Turn off err/grad.   ShiftErr        ....    0.0010
 Zerner damping         CNVZerner       .... off
 Static damping         CNVDamp         .... on
   Fraction old density DampFac         ....    0.7000
   Max. Damping (<1)    DampMax         ....    0.9800
   Min. Damping (>=0)   DampMin         ....    0.0000
   Turn off err/grad.   DampErr         ....    0.1000
 Fernandez-Rico         CNVRico         .... off

SCF Procedure:
 Maximum # iterations   MaxIter         ....   125
 SCF integral mode      SCFMode         .... Direct
   Integral package                     .... LIBINT
 Reset frequency        DirectResetFreq ....    20
 Integral Threshold     Thresh          ....  2.500e-11 Eh
 Primitive CutOff       TCut            ....  2.500e-12 Eh

Convergence Tolerance:
 Convergence Check Mode ConvCheckMode   .... Total+1el-Energy
 Convergence forced     ConvForced      .... 1
 Energy Change          TolE            ....  1.000e-08 Eh
 1-El. energy change                    ....  1.000e-05 Eh
 Orbital Gradient       TolG            ....  1.000e-05
 Orbital Rotation angle TolX            ....  1.000e-05
 DIIS Error             TolErr          ....  5.000e-07


Diagonalization of the overlap matrix:
Smallest eigenvalue                        ... 9.932e-05
Time for diagonalization                   ...    0.549 sec
Threshold for overlap eigenvalues          ... 1.000e-08
Number of eigenvalues below threshold      ... 0
Time for construction of square roots      ...    0.188 sec
Total time needed                          ...    0.742 sec

-------------------
DFT GRID GENERATION
-------------------

General Integration Accuracy     IntAcc      ...  4.670
Radial Grid Type                 RadialGrid  ... Gauss-Chebyshev
Angular Grid (max. acc.)         AngularGrid ... Lebedev-302
Angular grid pruning method      GridPruning ... 3 (G Style)
Weight generation scheme         WeightScheme... Becke
Basis function cutoff            BFCut       ...    1.0000e-11
Integration weight cutoff        WCut        ...    1.0000e-14
Grids for H and He will be reduced by one unit

# of grid points (after initial pruning)     ... 561466 (   1.6 sec)
# of grid points (after weights+screening)   ... 480118 (  25.1 sec)
nearest neighbour list constructed           ...    0.0 sec
Grid point re-assignment to atoms done       ...    0.1 sec
Grid point division into batches done        ...    1.8 sec
Reduced shell lists constructed in    9.8 sec

Total number of grid points                  ...   480118
Total number of batches                      ...     7558
Average number of points per batch           ...       63
Average number of grid points per atom       ...     4617
Average number of shells per batch           ...    94.77 (17.58%)
Average number of basis functions per batch  ...   195.79 (16.41%)
Average number of large shells per batch     ...    56.65 (59.78%)
Average number of large basis fcns per batch ...   118.93 (60.74%)
Maximum spatial batch extension              ...  20.22, 23.81, 27.85 au
Average spatial batch extension              ...   2.01,  2.24,  2.23 au

Time for grid setup =   36.514 sec

------------------------------
INITIAL GUESS: MODEL POTENTIAL
------------------------------
Loading Hartree-Fock densities                     ... done
Calculating cut-offs                               ... done
Setting up the integral package                    ... done
Initializing the effective Hamiltonian             ... done
Starting the Coulomb interaction                   ... done (   9.1 sec)
Reading the grid                                   ... done
Mapping shells                                     ... done
Starting the XC term evaluation                    ... done (   9.3 sec)
  promolecular density results
     # of electrons  =    533.985301985
     EX              =   -500.143159085
     EC              =    -18.509578551
     EX+EC           =   -518.652737636
Transforming the Hamiltonian                       ... done (   0.1 sec)
Diagonalizing the Hamiltonian                      ... done (   0.4 sec)
Back transforming the eigenvectors                 ... done (   0.1 sec)
Now organizing SCF variables                       ... done
                      ------------------
                      INITIAL GUESS DONE (  55.8 sec)
                      ------------------
--------------------
COSX GRID GENERATION
--------------------

General Integration Accuracy     IntAcc      ...  3.340
Radial Grid Type                 RadialGrid  ... Gauss-Chebyshev
Angular Grid (max. acc.)         AngularGrid ... Lebedev-50
Angular grid pruning method      GridPruning ... 3 (G Style)
Weight generation scheme         WeightScheme... Becke
Basis function cutoff            BFCut       ...    1.0000e-11
Integration weight cutoff        WCut        ...    1.0000e-14
Grids for H and He will be reduced by one unit

# of grid points (after initial pruning)     ...  52638 (   0.1 sec)
# of grid points (after weights+screening)   ...  46995 (   2.3 sec)
nearest neighbour list constructed           ...    0.0 sec
Grid point re-assignment to atoms done       ...    0.0 sec
Grid point division into batches done        ...    0.0 sec
Reduced shell lists constructed in    1.1 sec

Total number of grid points                  ...    46995
Total number of batches                      ...      793
Average number of points per batch           ...       59
Average number of grid points per atom       ...      452
Average number of shells per batch           ...   115.58 (21.44%)
Average number of basis functions per batch  ...   241.37 (20.23%)
Average number of large shells per batch     ...    69.34 (59.99%)
Average number of large basis fcns per batch ...   147.75 (61.21%)
Maximum spatial batch extension              ...  20.74, 20.38, 23.00 au
Average spatial batch extension              ...   3.72,  4.91,  4.69 au

Overlap Fitting                  UseSFitting ... on
Constructing numerical overlap ... done (      0.7 sec)
Inverting numerical overlap    ... done (      0.1 sec)
Obtaining analytic overlap     ... done (      0.0 sec)
Final contraction and storage  ... done (      0.1 sec)


General Integration Accuracy     IntAcc      ...  3.670
Radial Grid Type                 RadialGrid  ... Gauss-Chebyshev
Angular Grid (max. acc.)         AngularGrid ... Lebedev-50
Angular grid pruning method      GridPruning ... 3 (G Style)
Weight generation scheme         WeightScheme... Becke
Basis function cutoff            BFCut       ...    1.0000e-11
Integration weight cutoff        WCut        ...    1.0000e-14
Grids for H and He will be reduced by one unit

# of grid points (after initial pruning)     ...  65758 (   0.1 sec)
# of grid points (after weights+screening)   ...  58464 (   2.9 sec)
nearest neighbour list constructed           ...    0.0 sec
Grid point re-assignment to atoms done       ...    0.0 sec
Grid point division into batches done        ...    0.0 sec
Reduced shell lists constructed in    1.3 sec

Total number of grid points                  ...    58464
Total number of batches                      ...      967
Average number of points per batch           ...       60
Average number of grid points per atom       ...      562
Average number of shells per batch           ...   113.21 (21.00%)
Average number of basis functions per batch  ...   236.07 (19.79%)
Average number of large shells per batch     ...    67.66 (59.77%)
Average number of large basis fcns per batch ...   143.76 (60.90%)
Maximum spatial batch extension              ...  22.69, 26.87, 20.11 au
Average spatial batch extension              ...   3.48,  4.62,  4.39 au

Overlap Fitting                  UseSFitting ... on
Constructing numerical overlap ... done (      0.8 sec)
Inverting numerical overlap    ... done (      0.1 sec)
Obtaining analytic overlap     ... done (      0.0 sec)
Final contraction and storage  ... done (      0.1 sec)


General Integration Accuracy     IntAcc      ...  4.010
Radial Grid Type                 RadialGrid  ... Gauss-Chebyshev
Angular Grid (max. acc.)         AngularGrid ... Lebedev-110
Angular grid pruning method      GridPruning ... 3 (G Style)
Weight generation scheme         WeightScheme... Becke
Basis function cutoff            BFCut       ...    1.0000e-11
Integration weight cutoff        WCut        ...    1.0000e-14
Grids for H and He will be reduced by one unit

# of grid points (after initial pruning)     ... 128348 (   0.2 sec)
# of grid points (after weights+screening)   ... 113102 (   5.7 sec)
nearest neighbour list constructed           ...    0.0 sec
Grid point re-assignment to atoms done       ...    0.0 sec
Grid point division into batches done        ...    0.1 sec
Reduced shell lists constructed in    2.4 sec

Total number of grid points                  ...   113102
Total number of batches                      ...     1819
Average number of points per batch           ...       62
Average number of grid points per atom       ...     1088
Average number of shells per batch           ...   107.19 (19.89%)
Average number of basis functions per batch  ...   223.15 (18.71%)
Average number of large shells per batch     ...    64.50 (60.18%)
Average number of large basis fcns per batch ...   136.71 (61.26%)
Maximum spatial batch extension              ...  24.30, 21.16, 21.17 au
Average spatial batch extension              ...   3.04,  3.71,  3.65 au

Overlap Fitting                  UseSFitting ... on
Constructing numerical overlap ... done (      1.4 sec)
Inverting numerical overlap    ... done (      0.1 sec)
Obtaining analytic overlap     ... done (      0.0 sec)
Final contraction and storage  ... done (      0.1 sec)

Time for X-Grid setup             =   19.500 sec
--------------
SCF ITERATIONS
--------------
ITER       Energy         Delta-E        Max-DP      RMS-DP      [F,P]     Damp
               ***  Starting incremental Fock matrix formation  ***
  0  -4706.1705193318   0.000000000000 0.07882335  0.00086588  0.2374129 0.7000
  1  -4706.6989395153  -0.528420183518 0.04868947  0.00060712  0.0969636 0.7000
                               ***Turning on DIIS***
  2  -4706.9228306970  -0.223891181691 0.06990217  0.00110825  0.0405917 0.0000
  3  -4707.3008115814  -0.377980884417 0.03938491  0.00043524  0.0507678 0.0000
  4  -4707.3647901682  -0.063978586777 0.01594314  0.00014198  0.0250860 0.0000
  5  -4707.3704035313  -0.005613363161 0.00609566  0.00005574  0.0071915 0.0000
                      *** Initiating the SOSCF procedure ***
                           *** Shutting down DIIS ***
                      *** Re-Reading the Fockian *** 
                      *** Removing any level shift *** 
ITER      Energy       Delta-E        Grad      Rot      Max-DP    RMS-DP
  6  -4707.37131022  -0.0009066902  0.003087  0.003087  0.002198  0.000031
               *** Restarting incremental Fock matrix formation ***
  7  -4707.37158081  -0.0002705844  0.002124  0.013898  0.001789  0.000032
  8  -4707.37178906  -0.0002082517  0.000680  0.012380  0.001932  0.000036
  9  -4707.37179448  -0.0000054253  0.000892  0.004034  0.001441  0.000013
 10  -4707.37184350  -0.0000490124  0.000205  0.001456  0.000864  0.000007
 11  -4707.37184221   0.0000012830  0.000168  0.000992  0.000546  0.000004
 12  -4707.37184696  -0.0000047469  0.000021  0.000098  0.000126  0.000002
 13  -4707.37184691   0.0000000452  0.000031  0.000089  0.000067  0.000001
 14  -4707.37184709  -0.0000001792  0.000005  0.000032  0.000027  0.000000
 15  -4707.37184707   0.0000000270  0.000006  0.000012  0.000013  0.000000
                  ***Gradient check signals convergence***
              ***Rediagonalizing the Fockian in SOSCF/NRSCF***

               *****************************************************
               *                     SUCCESS                       *
               *           SCF CONVERGED AFTER  16 CYCLES          *
               *****************************************************

Setting up the final grid:

General Integration Accuracy     IntAcc      ...  5.010
Radial Grid Type                 RadialGrid  ... Gauss-Chebyshev
Angular Grid (max. acc.)         AngularGrid ... Lebedev-434
Angular grid pruning method      GridPruning ... 3 (G Style)
Weight generation scheme         WeightScheme... Becke
Basis function cutoff            BFCut       ...    1.0000e-11
Integration weight cutoff        WCut        ...    1.0000e-14
Grids for H and He will be reduced by one unit

# of grid points (after initial pruning)     ... 992370 (   1.9 sec)
# of grid points (after weights+screening)   ... 845532 (  44.1 sec)
nearest neighbour list constructed           ...    0.0 sec
Grid point re-assignment to atoms done       ...    0.1 sec
Grid point division into batches done        ...    5.6 sec
Reduced shell lists constructed in   18.2 sec

Total number of grid points                  ...   845532
Total number of batches                      ...    13268
Average number of points per batch           ...       63
Average number of grid points per atom       ...     8130
Average number of shells per batch           ...    91.33 (16.94%)
Average number of basis functions per batch  ...   188.11 (15.77%)
Average number of large shells per batch     ...    54.50 (59.67%)
Average number of large basis fcns per batch ...   114.06 (60.63%)
Maximum spatial batch extension              ...  21.02, 22.47, 30.13 au
Average spatial batch extension              ...   1.66,  1.81,  1.81 au

Final grid set up in   64.2 sec
Final integration                            ... done (  23.5 sec)
Change in XC energy                          ...     0.000029265
Integrated number of electrons               ...   533.999974960
Previous integrated no of electrons          ...   534.000234677
Old exchange energy                            =   -138.214439633 Eh
New exchange energy                            =   -138.210528616 Eh
Exchange energy change after final integration =      0.003911018 Eh
Total energy after final integration           =  -4707.367906795 Eh
Final COS-X integration done in                =   415.821 sec

----------------
TOTAL SCF ENERGY
----------------

Total Energy       :        -4707.36790680 Eh         -128093.99292 eV

Components:
Nuclear Repulsion  :        11045.22724228 Eh          300555.91323 eV
Electronic Energy  :       -15752.59514907 Eh         -428649.90615 eV
One Electron Energy:       -28444.29176746 Eh         -774008.52883 eV
Two Electron Energy:        12691.69661838 Eh          345358.62268 eV

Virial components:
Potential Energy   :        -9380.44953654 Eh         -255255.00880 eV
Kinetic Energy     :         4673.08162974 Eh          127161.01589 eV
Virial Ratio       :            2.00733697


DFT components:
N(Alpha)           :      266.999987479864 electrons
N(Beta)            :      266.999987479864 electrons
N(Total)           :      533.999974959728 electrons
E(XC)              :     -388.370994325371 Eh       
DFET-embed. en.    :        0.000000000000 Eh       

---------------
SCF CONVERGENCE
---------------

  Last Energy change         ...   -1.1245e-08  Tolerance :   1.0000e-08
  Last MAX-Density change    ...    1.0214e-14  Tolerance :   1.0000e-07
  Last RMS-Density change    ...    3.7130e-17  Tolerance :   5.0000e-09
  Last Orbital Gradient      ...    6.8288e-07  Tolerance :   1.0000e-05
  Last Orbital Rotation      ...    5.3367e-06  Tolerance :   1.0000e-05

             **** THE GBW FILE WAS UPDATED (Y11.gbw) ****
             **** DENSITY FILE WAS UPDATED (Y11.scfp) ****
             **** ENERGY FILE WAS UPDATED (Y11.en.tmp) ****
             **** THE GBW FILE WAS UPDATED (Y11.gbw) ****
             **** DENSITY FILE WAS UPDATED (Y11.scfp) ****
----------------
ORBITAL ENERGIES
----------------

  NO   OCC          E(Eh)            E(eV) 
   0   2.0000     -88.977414     -2421.1985 
   1   2.0000     -88.973082     -2421.0806 
   2   2.0000     -88.970504     -2421.0105 
   3   2.0000     -88.969840     -2420.9924 
   4   2.0000     -24.804442      -674.9632 
   5   2.0000     -24.803906      -674.9486 
   6   2.0000     -24.801885      -674.8936 
   7   2.0000     -24.801612      -674.8862 
   8   2.0000     -19.223603      -523.1008 
   9   2.0000     -19.220776      -523.0239 
  10   2.0000     -14.529395      -395.3649 
  11   2.0000     -14.487564      -394.2266 
  12   2.0000     -14.483356      -394.1122 
  13   2.0000     -14.445456      -393.0808 
  14   2.0000     -14.444970      -393.0676 
  15   2.0000     -14.427135      -392.5823 
  16   2.0000     -14.422749      -392.4630 
  17   2.0000     -14.421373      -392.4255 
  18   2.0000     -14.420517      -392.4022 
  19   2.0000     -10.387795      -282.6663 
  20   2.0000     -10.387681      -282.6632 
  21   2.0000     -10.387037      -282.6456 
  22   2.0000     -10.386314      -282.6260 
  23   2.0000     -10.374508      -282.3047 
  24   2.0000     -10.374243      -282.2975 
  25   2.0000     -10.351924      -281.6902 
  26   2.0000     -10.351210      -281.6707 
  27   2.0000     -10.350076      -281.6399 
  28   2.0000     -10.349974      -281.6371 
  29   2.0000     -10.345615      -281.5185 
  30   2.0000     -10.344217      -281.4805 
  31   2.0000     -10.341784      -281.4143 
  32   2.0000     -10.334171      -281.2071 
  33   2.0000     -10.333643      -281.1927 
  34   2.0000     -10.331625      -281.1378 
  35   2.0000     -10.329994      -281.0934 
  36   2.0000     -10.328920      -281.0642 
  37   2.0000     -10.327034      -281.0129 
  38   2.0000     -10.326887      -281.0089 
  39   2.0000     -10.325906      -280.9822 
  40   2.0000     -10.325311      -280.9660 
  41   2.0000     -10.325289      -280.9654 
  42   2.0000     -10.324956      -280.9563 
  43   2.0000     -10.324943      -280.9560 
  44   2.0000     -10.324625      -280.9473 
  45   2.0000     -10.323459      -280.9156 
  46   2.0000     -10.323430      -280.9148 
  47   2.0000     -10.320612      -280.8381 
  48   2.0000     -10.320570      -280.8370 
  49   2.0000     -10.319729      -280.8141 
  50   2.0000     -10.319059      -280.7959 
  51   2.0000     -10.314883      -280.6822 
  52   2.0000     -10.313915      -280.6559 
  53   2.0000     -10.312787      -280.6252 
  54   2.0000     -10.311413      -280.5878 
  55   2.0000     -10.311076      -280.5786 
  56   2.0000     -10.310493      -280.5628 
  57   2.0000     -10.310461      -280.5619 
  58   2.0000     -10.307775      -280.4888 
  59   2.0000     -10.307425      -280.4793 
  60   2.0000     -10.304676      -280.4045 
  61   2.0000     -10.304194      -280.3914 
  62   2.0000     -10.304026      -280.3868 
  63   2.0000     -10.302120      -280.3349 
  64   2.0000     -10.301478      -280.3175 
  65   2.0000     -10.300549      -280.2922 
  66   2.0000     -10.289580      -279.9937 
  67   2.0000     -10.287671      -279.9418 
  68   2.0000     -10.284954      -279.8678 
  69   2.0000     -10.282187      -279.7925 
  70   2.0000     -10.277465      -279.6640 
  71   2.0000     -10.270199      -279.4663 
  72   2.0000     -10.267546      -279.3941 
  73   2.0000      -8.071897      -219.6475 
  74   2.0000      -8.065672      -219.4781 
  75   2.0000      -8.063530      -219.4198 
  76   2.0000      -8.063089      -219.4078 
  77   2.0000      -6.041547      -164.3989 
  78   2.0000      -6.037441      -164.2871 
  79   2.0000      -6.035481      -164.2338 
  80   2.0000      -6.033646      -164.1839 
  81   2.0000      -6.033369      -164.1763 
  82   2.0000      -6.033143      -164.1702 
  83   2.0000      -6.031035      -164.1128 
  84   2.0000      -6.029453      -164.0698 
  85   2.0000      -6.029131      -164.0610 
  86   2.0000      -6.027261      -164.0101 
  87   2.0000      -6.024332      -163.9304 
  88   2.0000      -6.023874      -163.9180 
  89   2.0000      -1.329718       -36.1835 
  90   2.0000      -1.329503       -36.1776 
  91   2.0000      -1.313965       -35.7548 
  92   2.0000      -1.313276       -35.7361 
  93   2.0000      -1.200466       -32.6663 
  94   2.0000      -1.135027       -30.8856 
  95   2.0000      -1.131942       -30.8017 
  96   2.0000      -1.107238       -30.1295 
  97   2.0000      -1.095398       -29.8073 
  98   2.0000      -1.017201       -27.6794 
  99   2.0000      -1.016620       -27.6636 
 100   2.0000      -1.012440       -27.5499 
 101   2.0000      -1.008836       -27.4518 
 102   2.0000      -1.000079       -27.2135 
 103   2.0000      -0.997853       -27.1530 
 104   2.0000      -0.992874       -27.0175 
 105   2.0000      -0.991891       -26.9907 
 106   2.0000      -0.983676       -26.7672 
 107   2.0000      -0.974737       -26.5239 
 108   2.0000      -0.958972       -26.0950 
 109   2.0000      -0.957000       -26.0413 
 110   2.0000      -0.949364       -25.8335 
 111   2.0000      -0.947529       -25.7836 
 112   2.0000      -0.927941       -25.2506 
 113   2.0000      -0.910329       -24.7713 
 114   2.0000      -0.899691       -24.4818 
 115   2.0000      -0.898693       -24.4547 
 116   2.0000      -0.897604       -24.4250 
 117   2.0000      -0.895402       -24.3651 
 118   2.0000      -0.882643       -24.0179 
 119   2.0000      -0.877427       -23.8760 
 120   2.0000      -0.875234       -23.8163 
 121   2.0000      -0.871001       -23.7011 
 122   2.0000      -0.870557       -23.6891 
 123   2.0000      -0.849140       -23.1063 
 124   2.0000      -0.847395       -23.0588 
 125   2.0000      -0.830576       -22.6011 
 126   2.0000      -0.828868       -22.5546 
 127   2.0000      -0.823059       -22.3966 
 128   2.0000      -0.813303       -22.1311 
 129   2.0000      -0.805563       -21.9205 
 130   2.0000      -0.799884       -21.7660 
 131   2.0000      -0.788128       -21.4461 
 132   2.0000      -0.770272       -20.9602 
 133   2.0000      -0.769860       -20.9490 
 134   2.0000      -0.769169       -20.9302 
 135   2.0000      -0.766217       -20.8498 
 136   2.0000      -0.757016       -20.5995 
 137   2.0000      -0.744079       -20.2474 
 138   2.0000      -0.733120       -19.9492 
 139   2.0000      -0.730257       -19.8713 
 140   2.0000      -0.720430       -19.6039 
 141   2.0000      -0.713437       -19.4136 
 142   2.0000      -0.707677       -19.2569 
 143   2.0000      -0.707080       -19.2406 
 144   2.0000      -0.704174       -19.1615 
 145   2.0000      -0.700207       -19.0536 
 146   2.0000      -0.697777       -18.9875 
 147   2.0000      -0.689804       -18.7705 
 148   2.0000      -0.675796       -18.3893 
 149   2.0000      -0.670540       -18.2463 
 150   2.0000      -0.661318       -17.9954 
 151   2.0000      -0.659593       -17.9484 
 152   2.0000      -0.651523       -17.7288 
 153   2.0000      -0.647827       -17.6283 
 154   2.0000      -0.646255       -17.5855 
 155   2.0000      -0.642591       -17.4858 
 156   2.0000      -0.641876       -17.4663 
 157   2.0000      -0.636836       -17.3292 
 158   2.0000      -0.628555       -17.1038 
 159   2.0000      -0.620623       -16.8880 
 160   2.0000      -0.619017       -16.8443 
 161   2.0000      -0.611364       -16.6361 
 162   2.0000      -0.607536       -16.5319 
 163   2.0000      -0.603280       -16.4161 
 164   2.0000      -0.596571       -16.2335 
 165   2.0000      -0.592245       -16.1158 
 166   2.0000      -0.591741       -16.1021 
 167   2.0000      -0.591376       -16.0922 
 168   2.0000      -0.590319       -16.0634 
 169   2.0000      -0.587898       -15.9975 
 170   2.0000      -0.585181       -15.9236 
 171   2.0000      -0.581868       -15.8334 
 172   2.0000      -0.575858       -15.6699 
 173   2.0000      -0.565820       -15.3968 
 174   2.0000      -0.560863       -15.2619 
 175   2.0000      -0.558603       -15.2004 
 176   2.0000      -0.556051       -15.1309 
 177   2.0000      -0.552744       -15.0409 
 178   2.0000      -0.552171       -15.0253 
 179   2.0000      -0.551055       -14.9950 
 180   2.0000      -0.549425       -14.9506 
 181   2.0000      -0.546984       -14.8842 
 182   2.0000      -0.544165       -14.8075 
 183   2.0000      -0.541648       -14.7390 
 184   2.0000      -0.538889       -14.6639 
 185   2.0000      -0.537134       -14.6161 
 186   2.0000      -0.536184       -14.5903 
 187   2.0000      -0.534199       -14.5363 
 188   2.0000      -0.531530       -14.4637 
 189   2.0000      -0.528340       -14.3769 
 190   2.0000      -0.526943       -14.3388 
 191   2.0000      -0.526239       -14.3197 
 192   2.0000      -0.523152       -14.2357 
 193   2.0000      -0.521416       -14.1884 
 194   2.0000      -0.514983       -14.0134 
 195   2.0000      -0.513043       -13.9606 
 196   2.0000      -0.509075       -13.8526 
 197   2.0000      -0.505713       -13.7612 
 198   2.0000      -0.502803       -13.6820 
 199   2.0000      -0.501485       -13.6461 
 200   2.0000      -0.496858       -13.5202 
 201   2.0000      -0.496509       -13.5107 
 202   2.0000      -0.495673       -13.4880 
 203   2.0000      -0.495067       -13.4715 
 204   2.0000      -0.494178       -13.4473 
 205   2.0000      -0.492219       -13.3940 
 206   2.0000      -0.490732       -13.3535 
 207   2.0000      -0.487346       -13.2614 
 208   2.0000      -0.486601       -13.2411 
 209   2.0000      -0.483190       -13.1483 
 210   2.0000      -0.480971       -13.0879 
 211   2.0000      -0.477944       -13.0055 
 212   2.0000      -0.474312       -12.9067 
 213   2.0000      -0.472445       -12.8559 
 214   2.0000      -0.469919       -12.7871 
 215   2.0000      -0.462656       -12.5895 
 216   2.0000      -0.462362       -12.5815 
 217   2.0000      -0.460643       -12.5347 
 218   2.0000      -0.457439       -12.4475 
 219   2.0000      -0.457047       -12.4369 
 220   2.0000      -0.456306       -12.4167 
 221   2.0000      -0.455881       -12.4051 
 222   2.0000      -0.455216       -12.3871 
 223   2.0000      -0.452775       -12.3206 
 224   2.0000      -0.451534       -12.2869 
 225   2.0000      -0.450627       -12.2622 
 226   2.0000      -0.447184       -12.1685 
 227   2.0000      -0.447008       -12.1637 
 228   2.0000      -0.441858       -12.0236 
 229   2.0000      -0.440668       -11.9912 
 230   2.0000      -0.438595       -11.9348 
 231   2.0000      -0.436975       -11.8907 
 232   2.0000      -0.431302       -11.7363 
 233   2.0000      -0.429143       -11.6776 
 234   2.0000      -0.427276       -11.6268 
 235   2.0000      -0.426555       -11.6071 
 236   2.0000      -0.424108       -11.5406 
 237   2.0000      -0.423306       -11.5187 
 238   2.0000      -0.422306       -11.4915 
 239   2.0000      -0.421791       -11.4775 
 240   2.0000      -0.416607       -11.3364 
 241   2.0000      -0.413953       -11.2642 
 242   2.0000      -0.413294       -11.2463 
 243   2.0000      -0.411191       -11.1891 
 244   2.0000      -0.407171       -11.0797 
 245   2.0000      -0.404842       -11.0163 
 246   2.0000      -0.403274       -10.9736 
 247   2.0000      -0.397043       -10.8041 
 248   2.0000      -0.396970       -10.8021 
 249   2.0000      -0.390719       -10.6320 
 250   2.0000      -0.377384       -10.2692 
 251   2.0000      -0.367464        -9.9992 
 252   2.0000      -0.364758        -9.9256 
 253   2.0000      -0.352315        -9.5870 
 254   2.0000      -0.348141        -9.4734 
 255   2.0000      -0.343625        -9.3505 
 256   2.0000      -0.343118        -9.3367 
 257   2.0000      -0.342327        -9.3152 
 258   2.0000      -0.336484        -9.1562 
 259   2.0000      -0.320148        -8.7117 
 260   2.0000      -0.316981        -8.6255 
 261   2.0000      -0.314547        -8.5593 
 262   2.0000      -0.306344        -8.3361 
 263   2.0000      -0.291678        -7.9370 
 264   2.0000      -0.280062        -7.6209 
 265   2.0000      -0.274701        -7.4750 
 266   2.0000      -0.243387        -6.6229 
 267   0.0000      -0.101113        -2.7514 
 268   0.0000      -0.090411        -2.4602 
 269   0.0000      -0.067887        -1.8473 
 270   0.0000      -0.064190        -1.7467 
 271   0.0000      -0.029807        -0.8111 
 272   0.0000      -0.011473        -0.3122 
 273   0.0000      -0.001853        -0.0504 
 274   0.0000       0.019478         0.5300 
 275   0.0000       0.025308         0.6887 
 276   0.0000       0.031154         0.8477 
[...]
  86      -9.156      19.7
  87      -8.712      24.6
  88      -8.625      34.1
  89      -8.559      25.8
  90      -8.336      27.1
  91      -7.937      10.4
  92      -7.621      22.4
  93      -7.475      16.0
  94      -6.623      21.8

  95      -2.751      26.4
  96      -2.460      23.4
  97      -1.847      25.7
  98      -1.747      23.3
  99      -0.811      36.0
 100      -0.312      23.4
 101      -0.050      23.1
 102       0.530      22.8
 103       0.689      24.7
 104       0.848       6.2
 105       0.897      10.9

           eV        nm       excitation i->a                     eV 
   0      2.30     538.0    94 ->  95      gap,J,K:    3.871     1.867     0.150
   1      2.78     446.5    94 ->  96      gap,J,K:    4.163     1.745     0.180
   2      3.18     390.5    93 ->  95      gap,J,K:    4.724     1.781     0.116
   3      3.33     372.1    94 ->  97      gap,J,K:    4.776     1.614     0.085
   4      3.43     361.6    94 ->  98      gap,J,K:    4.876     1.643     0.098
   5      3.44     360.7    92 ->  95      gap,J,K:    4.869     1.891     0.229
   6      3.48     356.6    93 ->  96      gap,J,K:    5.015     1.615     0.039
   7      3.61     343.5    91 ->  95      gap,J,K:    5.186     1.817     0.121
   8      3.73     332.6    92 ->  96      gap,J,K:    5.161     1.830     0.199
   9      3.92     315.9    91 ->  96      gap,J,K:    5.477     1.676     0.062
  10      4.20     295.3    90 ->  95      gap,J,K:    5.585     1.825     0.220
  11      4.26     291.3    93 ->  97      gap,J,K:    5.628     1.451     0.039
  12      4.26     290.8    94 ->  99      gap,J,K:    5.812     2.018     0.235
  13      4.29     288.9    93 ->  98      gap,J,K:    5.728     1.480     0.021
  14      4.29     288.9    92 ->  97      gap,J,K:    5.774     1.748     0.133
  15      4.30     288.1    89 ->  95      gap,J,K:    5.808     1.771     0.133
  16      4.38     282.8    92 ->  98      gap,J,K:    5.874     1.775     0.142
  17      4.44     279.6    88 ->  95      gap,J,K:    5.874     1.691     0.126
  18      4.53     273.7    90 ->  96      gap,J,K:    5.876     1.786     0.220
  19      4.56     272.0    87 ->  95      gap,J,K:    5.960     1.648     0.122
  20      4.63     267.7    89 ->  96      gap,J,K:    6.099     1.689     0.111
  21      4.65     266.7    91 ->  97      gap,J,K:    6.090     1.509     0.034
  22      4.71     263.4    91 ->  98      gap,J,K:    6.190     1.547     0.032
  23      4.76     260.7    85 ->  95      gap,J,K:    6.564     1.812     0.003
  24      4.76     260.5    88 ->  96      gap,J,K:    6.165     1.691     0.142

average / max PT2 energy lowering (eV):       0.044       0.073

CSF included by PT:                   160 
total number of CSF included:         191 
 
sTD-DFT procedure...
setting up A+B and A-B matrices...  done
estimated time (min):    0.000
calculating (A-B)^0.5 ... done
calculating (A+B)*(A-B)^0.5 ... done
calculating (A-B)^0.5 *(A+B)*(A-B)^0.5 ... done
diagonalizing ...using LAPACKE_ssyevr ...done

   36 roots found, lowest/highest eigenvalue :     2.062     4.911

excitation energies, transition moments and amplitudes

molecular weight: 1042.135
state   eV        nm        fL         fV        Rl        RV
   0   2.062     601.3   2.332875   2.682572  -428.457903  -455.065342     0.89 (  94->  95)    0.08 (  92->  96)    0.01 (  94->  97)
   1   2.497     496.5   0.575941   0.656367  527.875871  549.701158     0.83 (  94->  96)    0.12 (  92->  95)    0.01 (  92->  97)
   2   2.921     424.4   0.061219   0.051917  -32.647997  -29.136602     0.83 (  93->  95)    0.09 (  91->  96)    0.02 (  93->  97)
   3   3.019     410.7   0.125380   0.119122  140.841915  132.512676     0.69 (  94->  97)    0.12 (  92->  98)    0.05 (  94->  98)
   4   3.094     400.7   0.029419   0.027467  -92.033799  -93.982050     0.37 (  93->  96)    0.31 (  91->  95)    0.17 (  94->  98)
   5   3.115     398.0   0.173009   0.159564  -91.615138  -87.204625     0.54 (  94->  98)    0.12 (  93->  96)    0.11 (  92->  97)
   6   3.253     381.1   0.183258   0.191168  216.504806  214.750339     0.73 (  92->  95)    0.12 (  94->  96)    0.08 (  90->  96)
   7   3.528     351.4   0.038848   0.052463  -190.512685  -187.292600     0.50 (  92->  96)    0.23 (  90->  95)    0.06 (  94->  95)
   8   3.644     340.3   0.015490   0.015274  21.441230  29.606405     0.31 (  91->  95)    0.31 (  93->  96)    0.06 (  91->  96)
   9   3.650     339.7   0.010383   0.013389   4.921881   8.181227     0.39 (  91->  96)    0.19 (  89->  95)    0.08 (  93->  96)
  10   3.798     326.4   0.189090   0.181261  -61.075853  -53.564876     0.14 (  88->  95)    0.08 (  87->  95)    0.07 (  92->  96)
  11   3.845     322.4   0.022611   0.019941  -76.536467  -72.922087     0.29 (  85->  95)    0.19 (  85->  96)    0.14 (  85->  98)
  12   3.852     321.9   0.097598   0.085086  169.456862  159.044446     0.24 (  83->  95)    0.12 (  83->  96)    0.09 (  87->  95)
  13   3.880     319.6   0.074917   0.063587  -118.394146  -109.097095     0.12 (  88->  95)    0.11 (  87->  95)    0.11 (  87->  96)
  14   3.951     313.8   0.087626   0.075486  61.238451  57.948880     0.38 (  94->  99)    0.07 (  90->  95)    0.05 (  83->  97)
  15   4.004     309.6   0.069821   0.060424  -93.837263  -90.004069     0.15 (  94->  99)    0.12 (  83->  98)    0.11 (  83->  97)
  16   4.022     308.3   0.044890   0.036416  30.071949  26.583299     0.14 (  94->  99)    0.13 (  85->  97)    0.11 (  85->  98)
  17   4.077     304.1   0.007885   0.006731  -14.903774  -13.184583     0.22 (  85->  97)    0.20 (  93->  97)    0.16 (  85->  98)
  18   4.104     302.1   0.015243   0.010827  -28.467681  -24.860872     0.23 (  93->  97)    0.20 (  93->  98)    0.09 (  91->  97)
  19   4.144     299.2   0.131703   0.112813  -273.831482  -249.396947     0.36 (  92->  97)    0.10 (  94->  98)    0.08 (  90->  96)
  20   4.188     296.1   0.043124   0.035698  44.080968  37.499943     0.18 (  90->  95)    0.13 (  87->  95)    0.10 (  93->  98)
  21   4.219     293.9   0.002903   0.002776  14.049372  14.271835     0.25 (  91->  96)    0.23 (  89->  95)    0.14 (  88->  95)
  22   4.268     290.5   0.178406   0.166662  194.252725  179.348559     0.29 (  92->  98)    0.07 (  94->  97)    0.07 (  86->  95)
  23   4.329     286.4   0.050305   0.040823  115.254706  105.058129     0.21 (  89->  96)    0.21 (  86->  95)    0.13 (  92->  98)
  24   4.438     279.4   0.045977   0.043884  -199.310922  -190.525006     0.29 (  90->  96)    0.12 (  84->  95)    0.08 (  94-> 100)
  25   4.508     275.0   0.344474   0.297349  917.626449  866.812653     0.15 (  82->  95)    0.10 (  88->  98)    0.09 (  87->  97)
  26   4.570     271.3   0.385312   0.327443  -1172.619467  -1084.021186     0.15 (  90->  96)    0.15 (  87->  96)    0.10 (  90->  98)
  27   4.583     270.5   0.121541   0.100466  128.666375  119.951716     0.19 (  91->  98)    0.18 (  93->  99)    0.13 (  94-> 100)
  28   4.628     267.9   0.036671   0.029395  -157.524338  -126.316320     0.19 (  94-> 100)    0.12 (  84->  95)    0.05 (  82->  96)
  29   4.671     265.4   0.099965   0.078838  171.520599  155.800975     0.35 (  94-> 101)    0.11 (  82->  95)    0.11 (  94-> 100)
  30   4.685     264.7   0.028812   0.023089  -210.330756  -179.902430     0.27 (  91->  97)    0.18 (  93->  98)    0.10 (  94-> 101)
  31   4.723     262.5   0.335696   0.268355  332.347026  321.861220     0.28 (  94-> 100)    0.07 (  91->  97)    0.07 (  88->  97)
  32   4.751     261.0   0.374435   0.287164  98.400652  86.227901     0.15 (  94-> 101)    0.11 (  87->  97)    0.09 (  86->  95)
  33   4.781     259.3   0.047386   0.035870  -16.820708  -13.012815     0.29 (  86->  95)    0.21 (  89->  96)    0.07 (  82->  95)
  34   4.829     256.8   0.012405   0.009899  -106.271093  -95.591558     0.20 (  81->  95)    0.20 (  86->  96)    0.14 (  93->  99)
  35   4.911     252.5   0.289879   0.221081  153.371547  128.013764     0.25 (  93->  99)    0.11 (  91->  98)    0.10 (  81->  95)

-----------------------------------------------------------------------------
         ABSORPTION SPECTRUM VIA TRANSITION ELECTRIC DIPOLE MOMENTS
-----------------------------------------------------------------------------
State   Energy  Wavelength   fosc         T2         TX        TY        TZ  
        (cm-1)    (nm)                  (au**2)     (au)      (au)      (au) 
-----------------------------------------------------------------------------
   0   16631.6    601.3   2.332874763  46.17789  -6.77204   0.51867  -0.21986
   1   20140.2    496.5   0.575941243   9.41436  -0.19353   2.17302  -2.15752
   2   23560.9    424.4   0.061219094   0.85540  -0.07913  -0.83452   0.39079
   3   24347.7    410.7   0.125380466   1.69530   0.80192  -0.56213   0.85805
   4   24958.7    400.7   0.029418650   0.38804  -0.39665   0.47743  -0.05264
   5   25124.7    398.0   0.173009362   2.26696  -1.28946  -0.71922   0.29489
   6   26240.7    381.1   0.183257653   2.29912  -0.14524  -1.03586   1.09773
   7   28458.7    351.4   0.038847796   0.44939   0.54566  -0.32643  -0.21234
   8   29387.1    340.3   0.015489741   0.17353  -0.31441  -0.10920  -0.25049
   9   29439.0    339.7   0.010383485   0.11612  -0.20296   0.20956  -0.17610
  10   30633.6    326.4   0.189090375   2.03211   1.37502   0.25659   0.27495
  11   31013.2    322.4   0.022611098   0.24002  -0.12177  -0.41292   0.23386
  12   31066.0    321.9   0.097598298   1.03427   0.29433  -0.32942   0.91604
  13   31293.6    319.6   0.074917277   0.78814  -0.23883  -0.69334   0.50038
  14   31868.0    313.8   0.087625724   0.90522   0.77395   0.35462  -0.42480
  15   32298.1    309.6   0.069821334   0.71168  -0.77732  -0.29830   0.13589
  16   32435.7    308.3   0.044890273   0.45562   0.50739  -0.31998   0.30950
  17   32882.5    304.1   0.007884738   0.07894   0.21986  -0.11766   0.12945
  18   33098.8    302.1   0.015242700   0.15161  -0.03494  -0.35825   0.14848
  19   33427.0    299.2   0.131702936   1.29710  -0.73130  -0.79414   0.36283
  20   33775.6    296.1   0.043124125   0.42033  -0.49662   0.15231  -0.38795
  21   34024.5    293.9   0.002902515   0.02808   0.08403   0.11222   0.09181
  22   34427.6    290.5   0.178405638   1.70599   0.97936  -0.38740   0.77250
  23   34917.5    286.4   0.050305230   0.47429  -0.04995  -0.39922   0.55895
  24   35795.2    279.4   0.045976672   0.42285   0.55823   0.21030   0.25884
  25   36358.6    275.0   0.344473913   3.11907   0.23604  -0.61585   1.63832
  26   36855.8    271.3   0.385311742   3.44177  -1.40503  -1.16651   0.32697
  27   36963.4    270.5   0.121541148   1.08250   0.46642  -0.62412   0.68951
  28   37330.8    267.9   0.036670826   0.32339   0.12670  -0.21918  -0.50921
  29   37676.2    265.4   0.099965081   0.87349  -0.12769  -0.45458   0.80656
  30   37783.1    264.7   0.028811688   0.25104  -0.06236   0.06342   0.49308
  31   38092.2    262.5   0.335695681   2.90125   0.38811  -0.85479   1.42125
  32   38316.6    261.0   0.374434857   3.21710   1.69438   0.25342  -0.53098
  33   38564.2    259.3   0.047386211   0.40452  -0.47617  -0.12905   0.40141
  34   38946.1    256.8   0.012404794   0.10486  -0.00196   0.31054   0.09177
  35   39610.1    252.5   0.289878815   2.40927  -0.08562  -1.18215   1.00223

-----------------------------------------------------------------------------
         ABSORPTION SPECTRUM VIA TRANSITION VELOCITY DIPOLE MOMENTS
-----------------------------------------------------------------------------
State   Energy  Wavelength   fosc         P2         PX        PY        PZ  
        (cm-1)    (nm)                  (au**2)     (au)      (au)      (au) 
-----------------------------------------------------------------------------
   0   16631.6    601.3   2.682571632   0.30492  -0.55044   0.04106  -0.01606
   1   20140.2    496.5   0.656366980   0.09035  -0.01972   0.21219  -0.21197
   2   23560.9    424.4   0.051916509   0.00836  -0.00810  -0.08257   0.03843
   3   24347.7    410.7   0.119121902   0.01982   0.08325  -0.06072   0.09594
   4   24958.7    400.7   0.027467444   0.00469  -0.04025   0.05499  -0.00645
   5   25124.7    398.0   0.159563843   0.02740  -0.14044  -0.08143   0.03232
   6   26240.7    381.1   0.191168325   0.03428  -0.01600  -0.12593   0.13480
   7   28458.7    351.4   0.052462673   0.01020   0.08761  -0.03981  -0.03073
   8   29387.1    340.3   0.015273989   0.00307  -0.04095  -0.01094  -0.03565
   9   29439.0    339.7   0.013389119   0.00269  -0.02971   0.03378  -0.02589
  10   30633.6    326.4   0.181261064   0.03795   0.18744   0.03342   0.04122
  11   31013.2    322.4   0.019941477   0.00423  -0.01335  -0.05485   0.03225
  12   31066.0    321.9   0.085086397   0.01807   0.03658  -0.04394   0.12164
  13   31293.6    319.6   0.063587277   0.01360  -0.03122  -0.09114   0.06572
  14   31868.0    313.8   0.075486003   0.01644   0.10441   0.04816  -0.05674
  15   32298.1    309.6   0.060424469   0.01334  -0.10536  -0.04315   0.01939
  16   32435.7    308.3   0.036416202   0.00807   0.06660  -0.04396   0.04129
  17   32882.5    304.1   0.006730950   0.00151   0.02899  -0.01760   0.01905
  18   33098.8    302.1   0.010826960   0.00245  -0.00338  -0.04540   0.01940
  19   33427.0    299.2   0.112813078   0.02577  -0.10568  -0.11098   0.04784
  20   33775.6    296.1   0.035697880   0.00824  -0.06805   0.02112  -0.05625
  21   34024.5    293.9   0.002776388   0.00065   0.01476   0.01518   0.01405
  22   34427.6    290.5   0.166662058   0.03921   0.14876  -0.05677   0.11774
  23   34917.5    286.4   0.040823092   0.00974  -0.00245  -0.05711   0.08047
  24   35795.2    279.4   0.043884489   0.01074   0.08949   0.03282   0.04063
  25   36358.6    275.0   0.297348607   0.07389   0.03808  -0.09605   0.25142
  26   36855.8    271.3   0.327442586   0.08248  -0.21597  -0.18148   0.05386
  27   36963.4    270.5   0.100465960   0.02538   0.06971  -0.09653   0.10584
  28   37330.8    267.9   0.029394528   0.00750   0.01678  -0.03116  -0.07904
  29   37676.2    265.4   0.078837705   0.02030  -0.01331  -0.06948   0.12368
  30   37783.1    264.7   0.023089460   0.00596  -0.01309   0.00830   0.07564
  31   38092.2    262.5   0.268355272   0.06986   0.06042  -0.13422   0.21955
  32   38316.6    261.0   0.287164432   0.07520   0.25903   0.03891  -0.08117
  33   38564.2    259.3   0.035869995   0.00945  -0.07216  -0.02034   0.06191
  34   38946.1    256.8   0.009898850   0.00263   0.00079   0.04933   0.01416
  35   39610.1    252.5   0.221081440   0.05985  -0.01079  -0.18574   0.15885

-------------------------------------------------------------------
                             CD SPECTRUM
-------------------------------------------------------------------
State   Energy Wavelength       R         MX        MY        MZ   
        (cm-1)   (nm)       (1e40*cgs)   (au)      (au)      (au)  
-------------------------------------------------------------------
   0   16631.6    601.3    -428.45790  -0.10321   2.44808   0.68702
   1   20140.2    496.5    527.87587   0.41687  -4.84457  -3.87882
   2   23560.9    424.4    -32.64800  -0.15024   0.77770   1.98474
   3   24347.7    410.7    140.84191  -0.19473   1.50050   0.46867
   4   24958.7    400.7    -92.03380   0.00899   0.73458  -0.82232
   5   25124.7    398.0    -91.61514  -0.05190   0.07566   1.27555
   6   26240.7    381.1    216.50481  -0.26775   3.42832   2.36297
   7   28458.7    351.4    -190.51269   0.19729  -2.10390  -0.06487
   8   29387.1    340.3     21.44123   0.08121  -0.90913   0.65751
   9   29439.0    339.7      4.92188   0.08435  -0.53720  -0.61791
  10   30633.6    326.4    -61.07585  -0.20951   2.18735  -0.05119
  11   31013.2    322.4    -76.53647   0.15550  -0.76154   0.12472
  12   31066.0    321.9    169.45686  -0.31183   4.12155   0.79759
  13   31293.6    319.6    -118.39415  -0.21295  -0.72234  -0.09877
  14   31868.0    313.8     61.23845   0.14683  -1.44058  -0.32352
  15   32298.1    309.6    -93.83726  -0.19842  -0.83774  -0.04456
  16   32435.7    308.3     30.07195  -0.27799  -0.03835   0.00388
  17   32882.5    304.1    -14.90377   0.29456  -0.23773  -0.22795
  18   33098.8    302.1    -28.46768  -0.14533   0.20977   1.28533
  19   33427.0    299.2    -273.83148   0.02179  -1.30372   0.39213
  20   33775.6    296.1     44.08097   0.19983  -1.90423  -0.52138
  21   34024.5    293.9     14.04937  -0.01586   0.11892  -0.78006
  22   34427.6    290.5    194.25273  -0.31232   2.68214   0.67426
  23   34917.5    286.4    115.25471  -0.21069   1.31386   0.04481
  24   35795.2    279.4    -199.31092  -0.11849   3.64039   0.56444
  25   36358.6    275.0    917.62645  -0.81985   6.67728   0.25202
  26   36855.8    271.3    -1172.61947  -0.00271  -4.41523  -0.54942
  27   36963.4    270.5    128.66637  -0.29717   3.42795   2.51222
  28   37330.8    267.9    -157.52434   0.33150  -4.06794   0.52111
  29   37676.2    265.4    171.52060  -0.41660   3.25747   0.86781
  30   37783.1    264.7    -210.33076  -0.30673   4.60800   1.17813
  31   38092.2    262.5    332.34703  -0.66431   8.68829   4.41481
  32   38316.6    261.0     98.40065   0.38498  -0.32008   1.86188
  33   38564.2    259.3    -16.82071  -0.32946   2.03009   0.43959
  34   38946.1    256.8    -106.27109  -0.03004   1.71205  -0.88141
  35   39610.1    252.5    153.37155  -0.54331   4.08813   4.12643

sTD-DFT done

Total run time:        4.435 sec

           *** ORCA-CIS/TD-DFT FINISHED WITHOUT ERROR ***

-------------------------   --------------------
FINAL SINGLE POINT ENERGY     -4707.367906795349
-------------------------   --------------------


                            ***************************************
                            *     ORCA property calculations      *
                            ***************************************

                                    ---------------------
                                    Active property flags
                                    ---------------------
   (+) Dipole Moment


------------------------------------------------------------------------------
                       ORCA ELECTRIC PROPERTIES CALCULATION
------------------------------------------------------------------------------

Dipole Moment Calculation                       ... on
Quadrupole Moment Calculation                   ... off
Polarizability Calculation                      ... off
GBWName                                         ... Y11.gbw
Electron density file                           ... Y11.scfp
The origin for moment calculation is the CENTER OF MASS  = (21.532923,  2.355809 -0.298844)

-------------
DIPOLE MOMENT
-------------
                                X             Y             Z
Electronic contribution:     18.44370      51.57081     -26.56458
Nuclear contribution   :    -17.72724     -53.05108      28.32428
                        -----------------------------------------
Total Dipole Moment    :      0.71646      -1.48027       1.75970
                        -----------------------------------------
Magnitude (a.u.)       :      2.40854
Magnitude (Debye)      :      6.12202



--------------------
Rotational spectrum 
--------------------
 
Rotational constants in cm-1:     0.001428     0.000259     0.000223 
Rotational constants in MHz :    42.811404     7.765148     6.677639 

 Dipole components along the rotational axes: 
x,y,z [a.u.] :    -1.021404    -2.150822     0.362990 
x,y,z [Debye]:    -2.596203    -5.466954     0.922648 

 

Timings for individual modules:

Sum of individual times         ...     3880.787 sec (=  64.680 min)
GTO integral calculation        ...        3.754 sec (=   0.063 min)   0.1 %
SCF iterations                  ...     3872.423 sec (=  64.540 min)  99.8 %
CIS module                      ...        4.610 sec (=   0.077 min)   0.1 %
                             ****ORCA TERMINATED NORMALLY****
TOTAL RUN TIME: 0 days 1 hours 4 minutes 41 seconds 347 msec
