
                                 *****************
                                 * O   R   C   A *
                                 *****************

           --- An Ab Initio, DFT and Semiempirical electronic structure package ---

                  #######################################################
                  #                        -***-                        #
                  #          Department of theory and spectroscopy      #
                  #               Directorship: Frank Neese             #
                  #        Max Planck Institute fuer Kohlenforschung    #
                  #                Kaiser Wilhelm Platz 1               #
                  #                 D-45470 Muelheim/Ruhr               #
                  #                      Germany                        #
                  #                                                     #
                  #                  All rights reserved                #
                  #                        -***-                        #
                  #######################################################


                         Program Version 4.2.0 -  RELEASE  -


 With contributions from (in alphabetic order):
   Daniel Aravena         : Magnetic Suceptibility
   Michael Atanasov       : Ab Initio Ligand Field Theory (pilot matlab implementation)
   Alexander A. Auer      : GIAO ZORA, VPT2
   Ute Becker             : Parallelization
   Giovanni Bistoni       : ED, misc. LED, open-shell LED, HFLED
   Martin Brehm           : Molecular dynamics
   Dmytro Bykov           : SCF Hessian
   Vijay G. Chilkuri      : MRCI spin determinant printing, contributions to CSF-ICE
   Dipayan Datta          : RHF DLPNO-CCSD density
   Achintya Kumar Dutta   : EOM-CC, STEOM-CC
   Dmitry Ganyushin       : Spin-Orbit,Spin-Spin,Magnetic field MRCI
   Miquel Garcia          : C-PCM Hessian, Gaussian charge scheme
   Yang Guo               : DLPNO-NEVPT2, CIM, IAO-localization
   Andreas Hansen         : Spin unrestricted coupled pair/coupled cluster methods
   Benjamin Helmich-Paris : CASSCF linear response (MC-RPA)
   Lee Huntington         : MR-EOM, pCC
   Robert Izsak           : Overlap fitted RIJCOSX, COSX-SCS-MP3, EOM
   Christian Kollmar      : KDIIS, OOCD, Brueckner-CCSD(T), CCSD density
   Simone Kossmann        : Meta GGA functionals, TD-DFT gradient, OOMP2, MP2 Hessian
   Martin Krupicka        : AUTO-CI
   Lucas Lang             : DCDCAS
   Dagmar Lenk            : GEPOL surface, SMD
   Dimitrios Liakos       : Extrapolation schemes; Compound Job, initial MDCI parallelization
   Dimitrios Manganas     : Further ROCIS development; embedding schemes
   Dimitrios Pantazis     : SARC Basis sets
   Taras Petrenko         : DFT Hessian,TD-DFT gradient, ASA, ECA, R-Raman, ABS, FL, XAS/XES, NRVS
   Peter Pinski           : DLPNO-MP2, DLPNO-MP2 Gradient
   Christoph Reimann      : Effective Core Potentials
   Marius Retegan         : Local ZFS, SOC
   Christoph Riplinger    : Optimizer, TS searches, QM/MM, DLPNO-CCSD(T), (RO)-DLPNO pert. Triples
   Tobias Risthaus        : Range-separated hybrids, TD-DFT gradient, RPA, STAB
   Michael Roemelt        : Original ROCIS implementation
   Masaaki Saitow         : Open-shell DLPNO-CCSD energy and density
   Barbara Sandhoefer     : DKH picture change effects
   Avijit Sen             : IP-ROCIS
   Kantharuban Sivalingam : CASSCF convergence, NEVPT2, FIC-MRCI
   Bernardo de Souza      : ESD, SOC TD-DFT
   Georgi Stoychev        : AutoAux, RI-MP2 NMR
   Willem Van den Heuvel  : Paramagnetic NMR
   Boris Wezisla          : Elementary symmetry handling
   Frank Wennmohs         : Technical directorship


 We gratefully acknowledge several colleagues who have allowed us to
 interface, adapt or use parts of their codes:
   Stefan Grimme, W. Hujo, H. Kruse,             : VdW corrections, initial TS optimization,
                  C. Bannwarth                     DFT functionals, gCP, sTDA/sTD-DF
   Ed Valeev, F. Pavosevic, A. Kumar             : LibInt (2-el integral package), F12 methods
   Garnet Chan, S. Sharma, J. Yang, R. Olivares  : DMRG
   Ulf Ekstrom                                   : XCFun DFT Library
   Mihaly Kallay                                 : mrcc  (arbitrary order and MRCC methods)
   Andreas Klamt, Michael Diedenhofen            : otool_cosmo (COSMO solvation model)
   Jiri Pittner, Ondrej Demel                    : Mk-CCSD
   Frank Weinhold                                : gennbo (NPA and NBO analysis)
   Christopher J. Cramer and Donald G. Truhlar   : smd solvation model
   Lars Goerigk                                  : TD-DFT with DH, B97 family of functionals
   V. Asgeirsson, H. Jonsson                     : NEB implementation
   FAccTs GmbH                                   : IRC, NEB, NEB-TS, Multilevel, MM, QM/MM, CI optimization
   S Lehtola, MJT Oliveira, MAL Marques          : LibXC Library


 Your calculation uses the libint2 library for the computation of 2-el integrals
 For citations please refer to: http://libint.valeyev.net

 Your ORCA version has been built with support for libXC version: 4.2.3
 For citations please refer to: https://tddft.org/programs/libxc/

 This ORCA versions uses:
   CBLAS   interface :  Fast vector & matrix operations
   LAPACKE interface :  Fast linear algebra routines
   SCALAPACK package :  Parallel linear algebra routines


XCFun DFT library Copyright 2009-2010 Ulf Ekstrom and contributors.
See http://admol.org/xcfun for more information. This is free soft-
ware; see the source code for copying conditions. There is ABSOLUTELY
NO WARRANTY; not even for MERCHANTABILITY or FITNESS FOR A PARTICULAR
PURPOSE. For details see the documentation. Scientific users of this 
library should cite U. Ekstrom, L. Visscher, R. Bast, A. J. Thorvald-
sen and K. Ruud; J.Chem.Theor.Comp. 2010, DOI: 10.1021/ct100117s
XCFun Version 0.99 
----- Orbital basis set information -----
Your calculation utilizes the basis: def2-SVP
   F. Weigend and R. Ahlrichs, Phys. Chem. Chem. Phys. 7, 3297 (2005).

----- AuxJ basis set information -----
Your calculation utilizes the auxiliary basis: def2/J
   F. Weigend, Phys. Chem. Chem. Phys. 8, 1057 (2006).

================================================================================
                                        WARNINGS
                       Please study these warnings very carefully!
================================================================================

INFO   : Checking CIS options ...

WARNING: CIS/ROCIS methods need fully converged wavefunctions
  ===> : Setting SCFConvForced true
         You can overwrite this default with %scf ConvForced false 


INFO   : the flag for use of LIBINT has been found!

================================================================================
                                       INPUT FILE
================================================================================
NAME = Y11.inp
|  1> # ORCA input file
|  2> # Y11.out
|  3> ! CAM-B3LYP def2-SVP def2/J RIJCOSX Grid4 TightSCF
|  4> %maxcore 5000
|  5> %tddft
|  6>     Mode sTDDFT
|  7>     Ethresh 5.0
|  8>     maxcore 5000
|  9> end
| 10> * xyz 0 1
| 11>    C        2.91351         2.30544        -2.28313
| 12>    O        1.90047         1.66990        -2.46205
| 13>    C        3.49562         3.35185        -3.15901
| 14>    C        3.05832         3.78489        -4.39473
| 15>    C        3.80379         4.76272        -5.03499
| 16>    F        3.41933         5.20659        -6.23793
| 17>    C        4.95245         5.28758        -4.44215
| 18>    F        5.65840         6.22089        -5.09081
| 19>    C        5.38633         4.86262        -3.19498
| 20>    C        4.64804         3.88310        -2.55257
| 21>    C        4.81589         3.25726        -1.24164
| 22>    C        5.52285         3.78725        -0.19214
| 23>    C        5.37040         3.33412         1.13501
| 24>    N        5.21781         3.02287         2.22955
| 25>    C        6.41227         4.87219        -0.30527
| 26>    N        7.17907         5.72558        -0.34813
| 27>    C        3.87961         2.16220        -1.16917
| 28>    C        3.83223         1.05395        -0.36922
| 29>    C        4.84995         0.47212         0.40514
| 30>    S        6.55303         0.84744         0.12937
| 31>    C        7.02167        -0.28675         1.33638
| 32>    C        5.90824        -0.93290         1.89548
| 33>    C        4.68369        -0.52207         1.36995
| 34>    C        3.36390        -1.00809         1.86370
| 35>    C        2.75986        -0.00150         2.84674
| 36>    S        6.33618        -2.11375         3.11424
| 37>    C        8.00768        -1.73141         2.86953
| 38>    C        8.21520        -0.72985         1.89984
| 39>    N        9.54757        -0.47264         1.78204
| 40>    C       10.07703         0.50039         0.86104
| 41>    C       10.00136         1.91450         1.43247
| 42>    C       10.21274        -1.29423         2.66384
| 43>    C        9.26391        -2.11132         3.34183
| 44>    C        9.70348        -3.06589         4.30044
| 45>    N        9.02041        -3.88731         5.09414
| 46>    N        9.94001        -4.58805         5.70836
| 47>    C        9.60371        -5.62781         6.63777
| 48>    C        9.17042        -6.88925         5.89794
| 49>    N       11.18191        -4.31188         5.38577
| 50>    C       11.08129        -3.33036         4.49721
| 51>    C       12.09895        -2.63181         3.73326
| 52>    C       11.58563        -1.46432         2.92253
| 53>    N       12.67587        -0.70504         3.11604
| 54>    C       13.23034         0.51682         2.61061
| 55>    C       13.28551         1.56816         3.71711
| 56>    C       13.30533        -1.57294         4.03485
| 57>    C       13.24286        -3.37249         3.11441
| 58>    S       14.21312        -4.63084         2.30090
| 59>    C       15.35819        -3.25173         2.81842
| 60>    C       14.25781        -2.50218         3.34559
| 61>    S       19.16331        -3.84764         1.95760
| 62>    C       17.57768        -4.14633         2.32383
| 63>    C       16.69667        -3.12107         2.81100
| 64>    C       17.27242        -1.80970         3.27632
| 65>    C       17.42824        -0.83452         2.10875
| 66>    C       17.15708        -5.51631         2.13604
| 67>    C       16.42642        -6.23932         3.01954
| 68>    C       15.89994        -7.58675         2.83579
| 69>    C       16.26906        -8.48947         1.88066
| 70>    C       15.71445        -9.78377         1.76340
| 71>    N       15.30298       -10.84526         1.62447
| 72>    C       17.26780        -8.27806         0.90306
| 73>    N       18.06088        -8.18636         0.07943
| 74>    C       14.88876        -7.79620         3.86976
| 75>    C       13.98108        -8.82837         4.05917
| 76>    C       13.10300        -8.73184         5.12711
| 77>    F       12.20736        -9.70752         5.32273
| 78>    C       13.12011        -7.63995         5.99652
| 79>    F       12.25156        -7.59682         7.01551
| 80>    C       14.02015        -6.60424         5.81588
| 81>    C       14.89300        -6.70024         4.75001
| 82>    C       15.93207        -5.73453         4.33689
| 83>    O       16.34111        -4.78852         4.96694
| 84>    H        2.16951         3.38077        -4.85236
| 85>    H        6.27977         5.29416        -2.77347
| 86>    H        2.90263         0.49518        -0.42184
| 87>    H        3.51084        -1.96566         2.36690
| 88>    H        2.67841        -1.15605         1.02685
| 89>    H        3.42357         0.14100         3.69567
| 90>    H        1.80210        -0.36468         3.20926
| 91>    H        2.61197         0.96150         2.36407
| 92>    H        9.48213         0.44891        -0.05639
| 93>    H       11.10374         0.22007         0.61441
| 94>    H       10.53219         1.97980         2.37861
| 95>    H        8.96424         2.19304         1.60267
| 96>    H       10.43628         2.62304         0.73352
| 97>    H        8.78984        -5.26364         7.26813
| 98>    H       10.48890        -5.82012         7.24424
| 99>    H        8.29023        -6.68508         5.29374
|100>    H        8.93682        -7.67166         6.61334
|101>    H        9.96746        -7.24153         5.24807
|102>    H       12.64214         0.87955         1.76870
|103>    H       14.24939         0.30430         2.26530
|104>    H       12.28795         1.78422         4.09236
|105>    H       13.72334         2.48511         3.33385
|106>    H       13.89084         1.20476         4.54321
|107>    H       18.24669        -1.99435         3.72848
|108>    H       16.61044        -1.38303         4.03080
|109>    H       18.13224        -1.22421         1.37827
|110>    H       17.80043         0.12005         2.47148
|111>    H       16.47277        -0.67252         1.61290
|112>    H       17.53922        -5.99452         1.24347
|113>    H       13.92466        -9.68957         3.41384
|114>    H       14.02553        -5.75009         6.47348
|115> *
|116> 
|117>                          ****END OF INPUT****
================================================================================

                       ****************************
                       * Single Point Calculation *
                       ****************************

---------------------------------
CARTESIAN COORDINATES (ANGSTROEM)
---------------------------------
  C      2.913510    2.305440   -2.283130
  O      1.900470    1.669900   -2.462050
  C      3.495620    3.351850   -3.159010
  C      3.058320    3.784890   -4.394730
  C      3.803790    4.762720   -5.034990
  F      3.419330    5.206590   -6.237930
  C      4.952450    5.287580   -4.442150
  F      5.658400    6.220890   -5.090810
  C      5.386330    4.862620   -3.194980
  C      4.648040    3.883100   -2.552570
  C      4.815890    3.257260   -1.241640
  C      5.522850    3.787250   -0.192140
  C      5.370400    3.334120    1.135010
  N      5.217810    3.022870    2.229550
  C      6.412270    4.872190   -0.305270
  N      7.179070    5.725580   -0.348130
  C      3.879610    2.162200   -1.169170
  C      3.832230    1.053950   -0.369220
  C      4.849950    0.472120    0.405140
  S      6.553030    0.847440    0.129370
  C      7.021670   -0.286750    1.336380
  C      5.908240   -0.932900    1.895480
  C      4.683690   -0.522070    1.369950
  C      3.363900   -1.008090    1.863700
  C      2.759860   -0.001500    2.846740
  S      6.336180   -2.113750    3.114240
  C      8.007680   -1.731410    2.869530
  C      8.215200   -0.729850    1.899840
  N      9.547570   -0.472640    1.782040
  C     10.077030    0.500390    0.861040
  C     10.001360    1.914500    1.432470
  C     10.212740   -1.294230    2.663840
  C      9.263910   -2.111320    3.341830
  C      9.703480   -3.065890    4.300440
  N      9.020410   -3.887310    5.094140
  N      9.940010   -4.588050    5.708360
  C      9.603710   -5.627810    6.637770
  C      9.170420   -6.889250    5.897940
  N     11.181910   -4.311880    5.385770
  C     11.081290   -3.330360    4.497210
  C     12.098950   -2.631810    3.733260
  C     11.585630   -1.464320    2.922530
  N     12.675870   -0.705040    3.116040
  C     13.230340    0.516820    2.610610
  C     13.285510    1.568160    3.717110
  C     13.305330   -1.572940    4.034850
  C     13.242860   -3.372490    3.114410
  S     14.213120   -4.630840    2.300900
  C     15.358190   -3.251730    2.818420
  C     14.257810   -2.502180    3.345590
  S     19.163310   -3.847640    1.957600
  C     17.577680   -4.146330    2.323830
  C     16.696670   -3.121070    2.811000
  C     17.272420   -1.809700    3.276320
  C     17.428240   -0.834520    2.108750
  C     17.157080   -5.516310    2.136040
  C     16.426420   -6.239320    3.019540
  C     15.899940   -7.586750    2.835790
  C     16.269060   -8.489470    1.880660
  C     15.714450   -9.783770    1.763400
  N     15.302980  -10.845260    1.624470
  C     17.267800   -8.278060    0.903060
  N     18.060880   -8.186360    0.079430
  C     14.888760   -7.796200    3.869760
  C     13.981080   -8.828370    4.059170
  C     13.103000   -8.731840    5.127110
  F     12.207360   -9.707520    5.322730
  C     13.120110   -7.639950    5.996520
  F     12.251560   -7.596820    7.015510
  C     14.020150   -6.604240    5.815880
  C     14.893000   -6.700240    4.750010
  C     15.932070   -5.734530    4.336890
  O     16.341110   -4.788520    4.966940
  H      2.169510    3.380770   -4.852360
  H      6.279770    5.294160   -2.773470
  H      2.902630    0.495180   -0.421840
  H      3.510840   -1.965660    2.366900
  H      2.678410   -1.156050    1.026850
  H      3.423570    0.141000    3.695670
  H      1.802100   -0.364680    3.209260
  H      2.611970    0.961500    2.364070
  H      9.482130    0.448910   -0.056390
  H     11.103740    0.220070    0.614410
  H     10.532190    1.979800    2.378610
  H      8.964240    2.193040    1.602670
  H     10.436280    2.623040    0.733520
  H      8.789840   -5.263640    7.268130
  H     10.488900   -5.820120    7.244240
  H      8.290230   -6.685080    5.293740
  H      8.936820   -7.671660    6.613340
  H      9.967460   -7.241530    5.248070
  H     12.642140    0.879550    1.768700
  H     14.249390    0.304300    2.265300
  H     12.287950    1.784220    4.092360
  H     13.723340    2.485110    3.333850
  H     13.890840    1.204760    4.543210
  H     18.246690   -1.994350    3.728480
  H     16.610440   -1.383030    4.030800
  H     18.132240   -1.224210    1.378270
  H     17.800430    0.120050    2.471480
  H     16.472770   -0.672520    1.612900
  H     17.539220   -5.994520    1.243470
  H     13.924660   -9.689570    3.413840
  H     14.025530   -5.750090    6.473480

----------------------------
CARTESIAN COORDINATES (A.U.)
----------------------------
  NO LB      ZA    FRAG     MASS         X           Y           Z
   0 C     6.0000    0    12.011    5.505736    4.356650   -4.314490
   1 O     8.0000    0    15.999    3.591368    3.155654   -4.652600
   2 C     6.0000    0    12.011    6.605764    6.334079   -5.969664
   3 C     6.0000    0    12.011    5.779387    7.152406   -8.304836
   4 C     6.0000    0    12.011    7.188121    9.000236   -9.514752
   5 F     9.0000    0    18.998    6.461597    9.839029  -11.787979
   6 C     6.0000    0    12.011    9.358774    9.992078   -8.394447
   7 F     9.0000    0    18.998   10.692826   11.755778   -9.620237
   8 C     6.0000    0    12.011   10.178689    9.189020   -6.037637
   9 C     6.0000    0    12.011    8.783523    7.337996   -4.823658
  10 C     6.0000    0    12.011    9.100713    6.155329   -2.346360
  11 C     6.0000    0    12.011   10.436674    7.156865   -0.363092
  12 C     6.0000    0    12.011   10.148585    6.300574    2.144858
  13 N     7.0000    0    14.007    9.860232    5.712396    4.213239
  14 C     6.0000    0    12.011   12.117434    9.207105   -0.576877
  15 N     7.0000    0    14.007   13.566476   10.819778   -0.657870
  16 C     6.0000    0    12.011    7.331400    4.085966   -2.209411
  17 C     6.0000    0    12.011    7.241865    1.991677   -0.697725
  18 C     6.0000    0    12.011    9.165077    0.892178    0.765604
  19 S    16.0000    0    32.060   12.383432    1.601430    0.244474
  20 C     6.0000    0    12.011   13.269033   -0.541879    2.525392
  21 C     6.0000    0    12.011   11.164956   -1.762926    3.581938
  22 C     6.0000    0    12.011    8.850891   -0.986569    2.588830
  23 C     6.0000    0    12.011    6.356850   -1.905014    3.521883
  24 C     6.0000    0    12.011    5.215380   -0.002835    5.379559
  25 S    16.0000    0    32.060   11.973645   -3.994409    5.885061
  26 C     6.0000    0    12.011   15.132322   -3.271891    5.422626
  27 C     6.0000    0    12.011   15.524478   -1.379217    3.590177
  28 N     7.0000    0    14.007   18.042293   -0.893160    3.367568
  29 C     6.0000    0    12.011   19.042827    0.945600    1.627130
  30 C     6.0000    0    12.011   18.899831    3.617881    2.706976
  31 C     6.0000    0    12.011   19.299282   -2.445740    5.033928
  32 C     6.0000    0    12.011   17.506253   -3.989817    6.315143
  33 C     6.0000    0    12.011   18.336920   -5.793692    8.126654
  34 N     7.0000    0    14.007   17.046105   -7.345951    9.626529
  35 N     7.0000    0    14.007   18.783897   -8.670158   10.787237
  36 C     6.0000    0    12.011   18.148382  -10.635020   12.543567
  37 C     6.0000    0    12.011   17.329582  -13.018796   11.145491
  38 N     7.0000    0    14.007   21.130748   -8.148272   10.177630
  39 C     6.0000    0    12.011   20.940603   -6.293468    8.498495
  40 C     6.0000    0    12.011   22.863702   -4.973400    7.054839
  41 C     6.0000    0    12.011   21.893668   -2.767164    5.522781
  42 N     7.0000    0    14.007   23.953923   -1.332333    5.888462
  43 C     6.0000    0    12.011   25.001719    0.976648    4.933338
  44 C     6.0000    0    12.011   25.105975    2.963393    7.024320
  45 C     6.0000    0    12.011   25.143430   -2.972426    7.624761
  46 C     6.0000    0    12.011   25.025379   -6.373082    5.885382
  47 S    16.0000    0    32.060   26.858904   -8.751019    4.348071
  48 C     6.0000    0    12.011   29.022773   -6.144879    5.326042
  49 C     6.0000    0    12.011   26.943356   -4.728435    6.322249
  50 S    16.0000    0    32.060   36.213408   -7.270986    3.699328
  51 C     6.0000    0    12.011   33.217001   -7.835428    4.391402
  52 C     6.0000    0    12.011   31.552134   -5.897968    5.312020
  53 C     6.0000    0    12.011   32.640143   -3.419837    6.191348
  54 C     6.0000    0    12.011   32.934601   -1.577014    3.984960
  55 C     6.0000    0    12.011   32.422182  -10.424315    4.036531
  56 C     6.0000    0    12.011   31.041435  -11.790606    5.706104
  57 C     6.0000    0    12.011   30.046532  -14.336880    5.358866
  58 C     6.0000    0    12.011   30.744068  -16.042773    3.553932
  59 C     6.0000    0    12.011   29.696007  -18.488646    3.332343
  60 N     7.0000    0    14.007   28.918441  -20.494571    3.069803
  61 C     6.0000    0    12.011   32.631413  -15.643266    1.706536
  62 N     7.0000    0    14.007   34.130117  -15.469978    0.150101
  63 C     6.0000    0    12.011   28.135679  -14.732683    7.312787
  64 C     6.0000    0    12.011   26.420412  -16.683202    7.670720
  65 C     6.0000    0    12.011   24.761082  -16.500786    9.688834
  66 F     9.0000    0    18.998   23.068567  -18.344554   10.058502
  67 C     6.0000    0    12.011   24.793415  -14.437413   11.331781
  68 F     9.0000    0    18.998   23.152093  -14.355909   13.257393
  69 C     6.0000    0    12.011   26.494244  -12.480205   10.990420
  70 C     6.0000    0    12.011   28.143691  -12.661619    8.976218
  71 C     6.0000    0    12.011   30.107249  -10.836691    8.195534
  72 O     8.0000    0    15.999   30.880223   -9.048991    9.386156
  73 H     1.0000    0     1.008    4.099780    6.388729   -9.169632
  74 H     1.0000    0     1.008   11.867045   10.004513   -5.241099
  75 H     1.0000    0     1.008    5.485176    0.935755   -0.797162
  76 H     1.0000    0     1.008    6.634526   -3.714559    4.472793
  77 H     1.0000    0     1.008    5.061461   -2.184618    1.940465
  78 H     1.0000    0     1.008    6.469610    0.266451    6.983804
  79 H     1.0000    0     1.008    3.405475   -0.689145    6.064622
  80 H     1.0000    0     1.008    4.935908    1.816972    4.467445
  81 H     1.0000    0     1.008   17.918629    0.848317   -0.106562
  82 H     1.0000    0     1.008   20.983028    0.415872    1.161067
  83 H     1.0000    0     1.008   19.902955    3.741280    4.494921
  84 H     1.0000    0     1.008   16.939959    4.144245    3.028607
  85 H     1.0000    0     1.008   19.721711    4.956827    1.386152
  86 H     1.0000    0     1.008   16.610390   -9.946838   13.734775
  87 H     1.0000    0     1.008   19.821148  -10.998433   13.689630
  88 H     1.0000    0     1.008   15.666264  -12.632970   10.003719
  89 H     1.0000    0     1.008   16.888142  -14.497336   12.497401
  90 H     1.0000    0     1.008   18.835770  -13.684508    9.917415
  91 H     1.0000    0     1.008   23.890182    1.662109    3.342359
  92 H     1.0000    0     1.008   26.927445    0.575044    4.280797
  93 H     1.0000    0     1.008   23.220860    3.371687    7.733440
  94 H     1.0000    0     1.008   25.933354    4.696177    6.300063
  95 H     1.0000    0     1.008   26.249883    2.276666    8.585423
  96 H     1.0000    0     1.008   34.481247   -3.768775    7.045806
  97 H     1.0000    0     1.008   31.389183   -2.613548    7.617108
  98 H     1.0000    0     1.008   34.264968   -2.313422    2.604553
  99 H     1.0000    0     1.008   33.637938    0.226862    4.670420
 100 H     1.0000    0     1.008   31.129024   -1.270879    3.047939
 101 H     1.0000    0     1.008   33.144322  -11.328001    2.349818
 102 H     1.0000    0     1.008   26.313794  -18.310634    6.451223
 103 H     1.0000    0     1.008   26.504411  -10.866095   12.233104

--------------------------------
INTERNAL COORDINATES (ANGSTROEM)
--------------------------------
 C      0   0   0     0.000000000000     0.00000000     0.00000000
 O      1   0   0     1.209203663408     0.00000000     0.00000000
 C      1   2   0     1.483573966676   127.73952784     0.00000000
 C      3   1   2     1.380492249163   128.71387982   356.31802067
 C      4   3   1     1.386293582687   117.66713561   181.68403680
 F      5   4   3     1.338616715905   119.63568134   179.66327256
 C      5   4   3     1.395119020299   120.78723901   359.83491443
 F      7   5   4     1.337980849713   119.39507446   179.33807844
 C      7   5   4     1.387182707829   121.62246812   359.55704366
 C      9   7   5     1.384637917508   117.84424789     0.62841954
 C     10   9   7     1.462322397079   131.10790441   181.79176581
 C     11  10   9     1.371908193612   125.42304428    20.74040414
 C     12  11  10     1.410636353530   122.67910747   162.88714710
 N     13  12  11     1.148119367575   176.71506652   249.32220054
 C     12  11  10     1.407466211637   124.19020175   346.38952722
 N     15  12  11     1.148082624074   176.41927260   215.75065823
 C     11  10   9     1.442577049207   107.18239999   188.38736910
 C     17  11  10     1.367619438806   131.83639795   160.30417092
 C     18  17  11     1.404960339974   129.26272650   342.52191135
 S     19  18  17     1.765614816912   121.64154361   342.61407589
 C     20  19  18     1.721302862892    90.74639369   183.43869325
 C     21  20  19     1.403505966286   111.51231475     1.11625725
 C     22  21  20     1.394448196349   114.26106171   359.68939875
 C     23  22  21     1.490587181952   123.82357007   183.74732261
 C     24  23  22     1.531161451742   110.34116073    97.72181204
 S     22  21  20     1.750118654177   113.20744668   179.19799030
 C     26  22  21     1.732044777048    89.34925993     0.11934836
 C     21  20  19     1.392242307395   136.62723371   181.02545328
 N     28  21  20     1.362073287676   138.02826961     1.09785212
 C     29  28  21     1.440609687771   122.84360550   359.69127105
 C     30  29  28     1.527077367359   111.59368963    82.23381868
 C     29  28  21     1.376601793185   107.73154818   180.09304761
 C     27  26  22     1.394816371785   139.56958642   180.55574088
 C     33  27  26     1.422448171956   133.57451571     0.58124566
 N     34  33  27     1.330892606975   131.10805543   357.62338152
 N     35  34  33     1.309185592649   104.45580259   176.56223934
 C     36  35  34     1.434573628539   121.81846219   181.82750996
 C     37  36  35     1.525227696641   110.59600694    77.66605690
 N     36  35  34     1.312497537902   115.89365714   359.52522632
 C     39  36  35     1.327796960533   104.37785586     1.01631461
 C     40  39  36     1.451627907075   130.90266908   182.67449393
 C     32  29  28     1.407365651243   131.39403000   178.04771819
 N     42  32  29     1.342600274132   138.61539773    45.28536086
 C     43  42  32     1.433819488429   138.17132036   322.46460231
 C     44  43  42     1.527318491507   110.19313985   115.13158697
 C     43  42  32     1.411978086834    96.21050411   146.42977896
 C     41  40  39     1.496700462016   121.01480895    41.59766014
 S     47  41  40     1.785118402292   162.30397751    36.56908134
 C     48  47  41     1.865732201416    71.70676450   184.76327706
 C     47  41  40     1.356837201362   100.59311082   219.64511556
 S     49  48  47     3.946524802266   114.81131226   178.71932473
 C     51  49  48     1.654558136150    19.08676055   332.65603216
 C     49  48  47     1.344862744818   132.93038446   172.20951755
 C     53  49  48     1.505889120022   117.60788847   178.00437110
 C     54  53  49     1.529207510346   110.99961889   269.89545562
 C     52  51  49     1.445342396977   114.91253841   166.99224879
 C     56  52  51     1.355426038447   125.29489951   133.95491149
 C     57  56  52     1.458256787332   127.25512409   175.32730235
 C     58  57  56     1.365073730500   126.98317100    15.30369033
 C     59  58  57     1.412994922036   123.89531422   179.91357511
 N     60  59  58     1.146895865325   177.03103313   184.34004854
 C     59  58  57     1.413462958729   125.17568033     1.50322878
 N     62  59  58     1.147061965763   175.64470668   180.49781957
 C     58  57  56     1.461317301547   107.04375932   195.52117264
 C     64  58  57     1.387491996157   130.98716236   171.68275163
 C     65  64  58     1.385943134079   117.89449746   181.91957291
 F     66  65  64     1.338801574693   119.05671511   179.25968033
 C     66  65  64     1.395847510404   121.77991333   359.81536224
 F     68  66  65     1.339619318874   119.40736447   180.15053491
 C     68  66  65     1.383979051612   120.80187511     0.26701607
 C     70  68  66     1.381000354598   117.37102969   359.86060490
 C     71  70  68     1.477474332569   127.94247914   179.47134562
 O     72  71  70     1.207978329359   127.16952736    12.09669040
 H      4   3   1     1.078295602977   121.56316596     1.63636939
 H      9   7   5     1.078022488309   119.21759764   179.96417080
 H     18  17  11     1.085886245101   114.72727730   169.21854323
 H     24  23  22     1.091669321956   108.63357361   337.67471383
 H     24  23  22     1.091836354130   110.25457935   218.78080251
 H     25  24  23     1.086967965949   110.28717900   300.41234127
 H     25  24  23     1.086565543536   110.01107765   180.45366772
 H     25  24  23     1.087295167376   110.54262404    60.12277050
 H     30  29  28     1.094638755618   107.71684321   322.28045038
 H     30  29  28     1.092492143404   108.44614519   205.59870525
 H     31  30  29     1.086841974944   110.92775935    57.39962925
 H     31  30  29     1.087276628094   110.06418321   297.54356331
 H     31  30  29     1.086147062096   110.08667065   178.11885363
 H     37  36  35     1.091951416227   107.87880460   317.17011468
 H     37  36  35     1.090114825649   107.33363527   198.60750302
 H     38  37  36     1.086957894769   110.14032254   299.11081217
 H     38  37  36     1.085601919720   109.72743722   178.97700852
 H     38  37  36     1.087062545073   110.46952324    59.33074059
 H     44  43  42     1.089203718778   110.33034705   352.83791112
 H     44  43  42     1.096752774786   107.76836458   234.12823966
 H     45  44  43     1.087483535370   110.70859162   299.26225655
 H     45  44  43     1.085992927693   109.88277686   178.93871951
 H     45  44  43     1.086703813787   109.91748492    58.95007495
 H     54  53  49     1.089837749851   108.81092508   149.33839459
 H     54  53  49     1.090644249836   108.80649169    30.96479873
 H     55  54  53     1.086772895549   110.52045964   297.07058476
 H     55  54  53     1.086877331579   109.88636178   177.34756911
 H     55  54  53     1.088592735324   110.68577721    57.18475487
 H     56  52  51     1.082310948203   115.03717943   318.92028094
 H     65  64  58     1.077636054195   123.16160393     1.43090368
 H     70  68  66     1.077979093907   121.10397947   178.85852645

---------------------------
INTERNAL COORDINATES (A.U.)
---------------------------
 C      0   0   0     0.000000000000     0.00000000     0.00000000
 O      1   0   0     2.285063763976     0.00000000     0.00000000
 C      1   2   0     2.803548496434   127.73952784     0.00000000
 C      3   1   2     2.608752280920   128.71387982   356.31802067
 C      4   3   1     2.619715212492   117.66713561   181.68403680
 F      5   4   3     2.529618991349   119.63568134   179.66327256
 C      5   4   3     2.636392872590   120.78723901   359.83491443
 F      7   5   4     2.528417378390   119.39507446   179.33807844
 C      7   5   4     2.621395415508   121.62246812   359.55704366
 C      9   7   5     2.616586458733   117.84424789     0.62841954
 C     10   9   7     2.763388849979   131.10790441   181.79176581
 C     11  10   9     2.592530766809   125.42304428    20.74040414
 C     12  11  10     2.665716382725   122.67910747   162.88714710
 N     13  12  11     2.169631173767   176.71506652   249.32220054
 C     12  11  10     2.659725682742   124.19020175   346.38952722
 N     15  12  11     2.169561738613   176.41927260   215.75065823
 C     11  10   9     2.726075550082   107.18239999   188.38736910
 C     17  11  10     2.584426194770   131.83639795   160.30417092
 C     18  17  11     2.654990271572   129.26272650   342.52191135
 S     19  18  17     3.336528461958   121.64154361   342.61407589
 C     20  19  18     3.252791004400    90.74639369   183.43869325
 C     21  20  19     2.652241903605   111.51231475     1.11625725
 C     22  21  20     2.635125199039   114.26106171   359.68939875
 C     23  22  21     2.816801552623   123.82357007   183.74732261
 C     24  23  22     2.893475810609   110.34116073    97.72181204
 S     22  21  20     3.307244958262   113.20744668   179.19799030
 C     26  22  21     3.273090280310    89.34925993     0.11934836
 C     21  20  19     2.630956673035   136.62723371   181.02545328
 N     28  21  20     2.573945488037   138.02826961     1.09785212
 C     29  28  21     2.722357775761   122.84360550   359.69127105
 C     30  29  28     2.885758009618   111.59368963    82.23381868
 C     29  28  21     2.601400384584   107.73154818   180.09304761
 C     27  26  22     2.635820949784   139.56958642   180.55574088
 C     33  27  26     2.688037484693   133.57451571     0.58124566
 N     34  33  27     2.515022540843   131.10805543   357.62338152
 N     35  34  33     2.474002228582   104.45580259   176.56223934
 C     36  35  34     2.710951276885   121.81846219   181.82750996
 C     37  36  35     2.882262638523   110.59600694    77.66605690
 N     36  35  34     2.480260898082   115.89365714   359.52522632
 C     39  36  35     2.509172616860   104.37785586     1.01631461
 C     40  39  36     2.743179192730   130.90266908   182.67449393
 C     32  29  28     2.659535651138   131.39403000   178.04771819
 N     42  32  29     2.537146825438   138.61539773    45.28536086
 C     43  42  32     2.709526158611   138.17132036   322.46460231
 C     44  43  42     2.886213668222   110.19313985   115.13158697
 C     43  42  32     2.668251891215    96.21050411   146.42977896
 C     41  40  39     2.828353977724   121.01480895    41.59766014
 S     47  41  40     3.373384896954   162.30397751    36.56908134
 C     48  47  41     3.525722899914    71.70676450   184.76327706
 C     47  41  40     2.564050718890   100.59311082   219.64511556
 S     49  48  47     7.457851057010   114.81131226   178.71932473
 C     51  49  48     3.126661749975    19.08676055   332.65603216
 C     49  48  47     2.541422275420   132.93038446   172.20951755
 C     53  49  48     2.845718024893   117.60788847   178.00437110
 C     54  53  49     2.889783396490   110.99961889   269.89545562
 C     52  51  49     2.731301300032   114.91253841   166.99224879
 C     56  52  51     2.561384007451   125.29489951   133.95491149
 C     57  56  52     2.755705960989   127.25512409   175.32730235
 C     58  57  56     2.579615503254   126.98317100    15.30369033
 C     59  58  57     2.670173431270   123.89531422   179.91357511
 N     60  59  58     2.167319089591   177.03103313   184.34004854
 C     59  58  57     2.671057892441   125.17568033     1.50322878
 N     62  59  58     2.167632973929   175.64470668   180.49781957
 C     58  57  56     2.761489494684   107.04375932   195.52117264
 C     64  58  57     2.621979885745   130.98716236   171.68275163
 C     65  64  58     2.619052960597   117.89449746   181.91957291
 F     66  65  64     2.529968323832   119.05671511   179.25968033
 C     66  65  64     2.637769519379   121.77991333   359.81536224
 F     68  66  65     2.531513636382   119.40736447   180.15053491
 C     68  66  65     2.615341382630   120.80187511     0.26701607
 C     70  68  66     2.609712461038   117.37102969   359.86060490
 C     71  70  68     2.792021858453   127.94247914   179.47134562
 O     72  71  70     2.282748218199   127.16952736    12.09669040
 H      4   3   1     2.037683381038   121.56316596     1.63636939
 H      9   7   5     2.037167269112   119.21759764   179.96417080
 H     18  17  11     2.052027615833   114.72727730   169.21854323
 H     24  23  22     2.062956047300   108.63357361   337.67471383
 H     24  23  22     2.063271692365   110.25457935   218.78080251
 H     25  24  23     2.054071771990   110.28717900   300.41234127
 H     25  24  23     2.053311303839   110.01107765   180.45366772
 H     25  24  23     2.054690093077   110.54262404    60.12277050
 H     30  29  28     2.068567463694   107.71684321   322.28045038
 H     30  29  28     2.064510954495   108.44614519   205.59870525
 H     31  30  29     2.053833683494   110.92775935    57.39962925
 H     31  30  29     2.054655058911   110.06418321   297.54356331
 H     31  30  29     2.052520488525   110.08667065   178.11885363
 H     37  36  35     2.063489128216   107.87880460   317.17011468
 H     37  36  35     2.060018475004   107.33363527   198.60750302
 H     38  37  36     2.054052740216   110.14032254   299.11081217
 H     38  37  36     2.051490318730   109.72743722   178.97700852
 H     38  37  36     2.054250500631   110.46952324    59.33074059
 H     44  43  42     2.058296732539   110.33034705   352.83791112
 H     44  43  42     2.072562380963   107.76836458   234.12823966
 H     45  44  43     2.055046056997   110.70859162   299.26225655
 H     45  44  43     2.052229216716   109.88277686   178.93871951
 H     45  44  43     2.053572596746   109.91748492    58.95007495
 H     54  53  49     2.059494877627   108.81092508   149.33839459
 H     54  53  49     2.061018941726   108.80649169    30.96479873
 H     55  54  53     2.053703142356   110.52045964   297.07058476
 H     55  54  53     2.053900497851   109.88636178   177.34756911
 H     55  54  53     2.057142141138   110.68577721    57.18475487
 H     56  52  51     2.045271283848   115.03717943   318.92028094
 H     65  64  58     2.036437014467   123.16160393     1.43090368
 H     70  68  66     2.037085265576   121.10397947   178.85852645

---------------------
BASIS SET INFORMATION
---------------------
There are 6 groups of distinct atoms

 Group   1 Type C   : 7s4p1d contracted to 3s2p1d pattern {511/31/1}
 Group   2 Type O   : 7s4p1d contracted to 3s2p1d pattern {511/31/1}
 Group   3 Type F   : 7s4p1d contracted to 3s2p1d pattern {511/31/1}
 Group   4 Type N   : 7s4p1d contracted to 3s2p1d pattern {511/31/1}
 Group   5 Type S   : 10s7p1d contracted to 4s3p1d pattern {5311/511/1}
 Group   6 Type H   : 4s1p contracted to 2s1p pattern {31/1}

Atom   0C    basis set group =>   1
Atom   1O    basis set group =>   2
Atom   2C    basis set group =>   1
Atom   3C    basis set group =>   1
Atom   4C    basis set group =>   1
Atom   5F    basis set group =>   3
Atom   6C    basis set group =>   1
Atom   7F    basis set group =>   3
Atom   8C    basis set group =>   1
Atom   9C    basis set group =>   1
Atom  10C    basis set group =>   1
Atom  11C    basis set group =>   1
Atom  12C    basis set group =>   1
Atom  13N    basis set group =>   4
Atom  14C    basis set group =>   1
Atom  15N    basis set group =>   4
Atom  16C    basis set group =>   1
Atom  17C    basis set group =>   1
Atom  18C    basis set group =>   1
Atom  19S    basis set group =>   5
Atom  20C    basis set group =>   1
Atom  21C    basis set group =>   1
Atom  22C    basis set group =>   1
Atom  23C    basis set group =>   1
Atom  24C    basis set group =>   1
Atom  25S    basis set group =>   5
Atom  26C    basis set group =>   1
Atom  27C    basis set group =>   1
Atom  28N    basis set group =>   4
Atom  29C    basis set group =>   1
Atom  30C    basis set group =>   1
Atom  31C    basis set group =>   1
Atom  32C    basis set group =>   1
Atom  33C    basis set group =>   1
Atom  34N    basis set group =>   4
Atom  35N    basis set group =>   4
Atom  36C    basis set group =>   1
Atom  37C    basis set group =>   1
Atom  38N    basis set group =>   4
Atom  39C    basis set group =>   1
Atom  40C    basis set group =>   1
Atom  41C    basis set group =>   1
Atom  42N    basis set group =>   4
Atom  43C    basis set group =>   1
Atom  44C    basis set group =>   1
Atom  45C    basis set group =>   1
Atom  46C    basis set group =>   1
Atom  47S    basis set group =>   5
Atom  48C    basis set group =>   1
Atom  49C    basis set group =>   1
Atom  50S    basis set group =>   5
Atom  51C    basis set group =>   1
Atom  52C    basis set group =>   1
Atom  53C    basis set group =>   1
Atom  54C    basis set group =>   1
Atom  55C    basis set group =>   1
Atom  56C    basis set group =>   1
Atom  57C    basis set group =>   1
Atom  58C    basis set group =>   1
Atom  59C    basis set group =>   1
Atom  60N    basis set group =>   4
Atom  61C    basis set group =>   1
Atom  62N    basis set group =>   4
Atom  63C    basis set group =>   1
Atom  64C    basis set group =>   1
Atom  65C    basis set group =>   1
Atom  66F    basis set group =>   3
Atom  67C    basis set group =>   1
Atom  68F    basis set group =>   3
Atom  69C    basis set group =>   1
Atom  70C    basis set group =>   1
Atom  71C    basis set group =>   1
Atom  72O    basis set group =>   2
Atom  73H    basis set group =>   6
Atom  74H    basis set group =>   6
Atom  75H    basis set group =>   6
Atom  76H    basis set group =>   6
Atom  77H    basis set group =>   6
Atom  78H    basis set group =>   6
Atom  79H    basis set group =>   6
Atom  80H    basis set group =>   6
Atom  81H    basis set group =>   6
Atom  82H    basis set group =>   6
Atom  83H    basis set group =>   6
Atom  84H    basis set group =>   6
Atom  85H    basis set group =>   6
Atom  86H    basis set group =>   6
Atom  87H    basis set group =>   6
Atom  88H    basis set group =>   6
Atom  89H    basis set group =>   6
Atom  90H    basis set group =>   6
Atom  91H    basis set group =>   6
Atom  92H    basis set group =>   6
Atom  93H    basis set group =>   6
Atom  94H    basis set group =>   6
Atom  95H    basis set group =>   6
Atom  96H    basis set group =>   6
Atom  97H    basis set group =>   6
Atom  98H    basis set group =>   6
Atom  99H    basis set group =>   6
Atom 100H    basis set group =>   6
Atom 101H    basis set group =>   6
Atom 102H    basis set group =>   6
Atom 103H    basis set group =>   6
---------------------------------
AUXILIARY/J BASIS SET INFORMATION
---------------------------------
There are 6 groups of distinct atoms

 Group   1 Type C   : 12s5p4d2f1g contracted to 6s4p3d1f1g pattern {711111/2111/211/2/1}
 Group   2 Type O   : 12s5p4d2f1g contracted to 6s4p3d1f1g pattern {711111/2111/211/2/1}
 Group   3 Type F   : 12s5p4d2f1g contracted to 6s4p3d1f1g pattern {711111/2111/211/2/1}
 Group   4 Type N   : 12s5p4d2f1g contracted to 6s4p3d1f1g pattern {711111/2111/211/2/1}
 Group   5 Type S   : 14s5p5d2f1g contracted to 8s4p3d1f1g pattern {71111111/2111/311/2/1}
 Group   6 Type H   : 5s2p1d contracted to 3s1p1d pattern {311/2/1}

Atom   0C    basis set group =>   1
Atom   1O    basis set group =>   2
Atom   2C    basis set group =>   1
Atom   3C    basis set group =>   1
Atom   4C    basis set group =>   1
Atom   5F    basis set group =>   3
Atom   6C    basis set group =>   1
Atom   7F    basis set group =>   3
Atom   8C    basis set group =>   1
Atom   9C    basis set group =>   1
Atom  10C    basis set group =>   1
Atom  11C    basis set group =>   1
Atom  12C    basis set group =>   1
Atom  13N    basis set group =>   4
Atom  14C    basis set group =>   1
Atom  15N    basis set group =>   4
Atom  16C    basis set group =>   1
Atom  17C    basis set group =>   1
Atom  18C    basis set group =>   1
Atom  19S    basis set group =>   5
Atom  20C    basis set group =>   1
Atom  21C    basis set group =>   1
Atom  22C    basis set group =>   1
Atom  23C    basis set group =>   1
Atom  24C    basis set group =>   1
Atom  25S    basis set group =>   5
Atom  26C    basis set group =>   1
Atom  27C    basis set group =>   1
Atom  28N    basis set group =>   4
Atom  29C    basis set group =>   1
Atom  30C    basis set group =>   1
Atom  31C    basis set group =>   1
Atom  32C    basis set group =>   1
Atom  33C    basis set group =>   1
Atom  34N    basis set group =>   4
Atom  35N    basis set group =>   4
Atom  36C    basis set group =>   1
Atom  37C    basis set group =>   1
Atom  38N    basis set group =>   4
Atom  39C    basis set group =>   1
Atom  40C    basis set group =>   1
Atom  41C    basis set group =>   1
Atom  42N    basis set group =>   4
Atom  43C    basis set group =>   1
Atom  44C    basis set group =>   1
Atom  45C    basis set group =>   1
Atom  46C    basis set group =>   1
Atom  47S    basis set group =>   5
Atom  48C    basis set group =>   1
Atom  49C    basis set group =>   1
Atom  50S    basis set group =>   5
Atom  51C    basis set group =>   1
Atom  52C    basis set group =>   1
Atom  53C    basis set group =>   1
Atom  54C    basis set group =>   1
Atom  55C    basis set group =>   1
Atom  56C    basis set group =>   1
Atom  57C    basis set group =>   1
Atom  58C    basis set group =>   1
Atom  59C    basis set group =>   1
Atom  60N    basis set group =>   4
Atom  61C    basis set group =>   1
Atom  62N    basis set group =>   4
Atom  63C    basis set group =>   1
Atom  64C    basis set group =>   1
Atom  65C    basis set group =>   1
Atom  66F    basis set group =>   3
Atom  67C    basis set group =>   1
Atom  68F    basis set group =>   3
Atom  69C    basis set group =>   1
Atom  70C    basis set group =>   1
Atom  71C    basis set group =>   1
Atom  72O    basis set group =>   2
Atom  73H    basis set group =>   6
Atom  74H    basis set group =>   6
Atom  75H    basis set group =>   6
Atom  76H    basis set group =>   6
Atom  77H    basis set group =>   6
Atom  78H    basis set group =>   6
Atom  79H    basis set group =>   6
Atom  80H    basis set group =>   6
Atom  81H    basis set group =>   6
Atom  82H    basis set group =>   6
Atom  83H    basis set group =>   6
Atom  84H    basis set group =>   6
Atom  85H    basis set group =>   6
Atom  86H    basis set group =>   6
Atom  87H    basis set group =>   6
Atom  88H    basis set group =>   6
Atom  89H    basis set group =>   6
Atom  90H    basis set group =>   6
Atom  91H    basis set group =>   6
Atom  92H    basis set group =>   6
Atom  93H    basis set group =>   6
Atom  94H    basis set group =>   6
Atom  95H    basis set group =>   6
Atom  96H    basis set group =>   6
Atom  97H    basis set group =>   6
Atom  98H    basis set group =>   6
Atom  99H    basis set group =>   6
Atom 100H    basis set group =>   6
Atom 101H    basis set group =>   6
Atom 102H    basis set group =>   6
Atom 103H    basis set group =>   6
------------------------------------------------------------------------------
                           ORCA GTO INTEGRAL CALCULATION
                           -- RI-GTO INTEGRALS CHOSEN --
------------------------------------------------------------------------------

                         BASIS SET STATISTICS AND STARTUP INFO

Gaussian basis set:
 # of primitive gaussian shells          ... 1055
 # of primitive gaussian functions       ... 2017
 # of contracted shells                  ...  539
 # of contracted basis functions         ... 1193
 Highest angular momentum                ...    2
 Maximum contraction depth               ...    5
Auxiliary gaussian basis set:
 # of primitive gaussian shells          ... 2012
 # of primitive gaussian functions       ... 5634
 # of contracted shells                  ... 1258
 # of contracted aux-basis functions     ... 3926
 Highest angular momentum                ...    4
 Maximum contraction depth               ...    7
Ratio of auxiliary to basis functions    ...  3.29
Integral package used                  ... LIBINT
 One Electron integrals                  ... done
 Ordering auxiliary basis shells         ... done
 Integral threshhold             Thresh  ...  2.500e-11
 Primitive cut-off               TCut    ...  2.500e-12
 Pre-screening matrix                    ... done
 Shell pair data                         ... 
 Ordering of the shell pairs             ... done (   0.011 sec) 54760 of 145530 pairs
 Determination of significant pairs      ... done (   0.000 sec)
 Creation of shell pair data             ... done (   0.008 sec)
 Storage of shell pair data              ... done (   0.011 sec)
 Shell pair data done in (   0.031 sec)
 Computing two index integrals           ... done
 Cholesky decomposition of the V-matrix  ... done


Timings:
 Total evaluation time                   ...   2.312 sec (  0.039 min)
 One electron matrix time                ...   0.650 sec (  0.011 min) = 28.1%
 Schwartz matrix evaluation time         ...   0.702 sec (  0.012 min) = 30.4%
 Two index repulsion integral time       ...   0.387 sec (  0.006 min) = 16.7%
 Cholesky decomposition of V             ...   0.525 sec (  0.009 min) = 22.7%
 Three index repulsion integral time     ...   0.000 sec (  0.000 min) =  0.0%

-------------------------------------------------------------------------------
                                 ORCA SCF
-------------------------------------------------------------------------------

------------
SCF SETTINGS
------------
Hamiltonian:
 Density Functional     Method          .... DFT(GTOs)
 Exchange Functional    Exchange        .... WB88
 Correlation Functional Correlation     .... LYP
 LDA part of GGA corr.  LDAOpt          .... VWN-5
 Gradients option       PostSCFGGA      .... off
 Hybrid DFT is turned on
   Fraction HF Exchange ScalHFX         ....  0.190000
   Scaling of DF-GGA-X  ScalDFX         ....  0.350000
   Scaling of DF-GGA-C  ScalDFC         ....  0.810000
   Scaling of DF-LDA-C  ScalLDAC        ....  1.000000
   Perturbative correction              ....  0.000000
   Density functional embedding theory  .... OFF
 Long-range corrected/Screened/Range-Separated Hybrid DFT is turned on
   Amount of maximum screened exact exchange              ....  0.460000
   Range separation parameter mu (erf(mu*r12)/r12)        ....  0.330000
 RI-approximation to the Coulomb term is turned on
   Number of auxiliary basis functions  .... 3926
   RIJ-COSX (HFX calculated with COS-X)).... on


General Settings:
 Integral files         IntName         .... Y11
 Hartree-Fock type      HFTyp           .... RHF
 Total Charge           Charge          ....    0
 Multiplicity           Mult            ....    1
 Number of Electrons    NEL             ....  534
 Basis Dimension        Dim             .... 1193
 Nuclear Repulsion      ENuc            ....  11928.5287158258 Eh

Convergence Acceleration:
 DIIS                   CNVDIIS         .... on
   Start iteration      DIISMaxIt       ....    12
   Startup error        DIISStart       ....  0.200000
   # of expansion vecs  DIISMaxEq       ....     5
   Bias factor          DIISBfac        ....   1.050
   Max. coefficient     DIISMaxC        ....  10.000
 Newton-Raphson         CNVNR           .... off
 SOSCF                  CNVSOSCF        .... on
   Start iteration      SOSCFMaxIt      ....   150
   Startup grad/error   SOSCFStart      ....  0.003300
 Level Shifting         CNVShift        .... on
   Level shift para.    LevelShift      ....    0.2500
   Turn off err/grad.   ShiftErr        ....    0.0010
 Zerner damping         CNVZerner       .... off
 Static damping         CNVDamp         .... on
   Fraction old density DampFac         ....    0.7000
   Max. Damping (<1)    DampMax         ....    0.9800
   Min. Damping (>=0)   DampMin         ....    0.0000
   Turn off err/grad.   DampErr         ....    0.1000
 Fernandez-Rico         CNVRico         .... off

SCF Procedure:
 Maximum # iterations   MaxIter         ....   125
 SCF integral mode      SCFMode         .... Direct
   Integral package                     .... LIBINT
 Reset frequency        DirectResetFreq ....    20
 Integral Threshold     Thresh          ....  2.500e-11 Eh
 Primitive CutOff       TCut            ....  2.500e-12 Eh

Convergence Tolerance:
 Convergence Check Mode ConvCheckMode   .... Total+1el-Energy
 Convergence forced     ConvForced      .... 1
 Energy Change          TolE            ....  1.000e-08 Eh
 1-El. energy change                    ....  1.000e-05 Eh
 Orbital Gradient       TolG            ....  1.000e-05
 Orbital Rotation angle TolX            ....  1.000e-05
 DIIS Error             TolErr          ....  5.000e-07


Diagonalization of the overlap matrix:
Smallest eigenvalue                        ... 1.257e-04
Time for diagonalization                   ...    0.533 sec
Threshold for overlap eigenvalues          ... 1.000e-08
Number of eigenvalues below threshold      ... 0
Time for construction of square roots      ...    0.167 sec
Total time needed                          ...    0.705 sec

-------------------
DFT GRID GENERATION
-------------------

General Integration Accuracy     IntAcc      ...  4.670
Radial Grid Type                 RadialGrid  ... Gauss-Chebyshev
Angular Grid (max. acc.)         AngularGrid ... Lebedev-302
Angular grid pruning method      GridPruning ... 3 (G Style)
Weight generation scheme         WeightScheme... Becke
Basis function cutoff            BFCut       ...    1.0000e-11
Integration weight cutoff        WCut        ...    1.0000e-14
Grids for H and He will be reduced by one unit

# of grid points (after initial pruning)     ... 561466 (   1.5 sec)
# of grid points (after weights+screening)   ... 474151 (  26.0 sec)
nearest neighbour list constructed           ...    0.0 sec
Grid point re-assignment to atoms done       ...    0.1 sec
Grid point division into batches done        ...    1.7 sec
Reduced shell lists constructed in    9.1 sec

Total number of grid points                  ...   474151
Total number of batches                      ...     7464
Average number of points per batch           ...       63
Average number of grid points per atom       ...     4559
Average number of shells per batch           ...   106.46 (19.75%)
Average number of basis functions per batch  ...   218.25 (18.29%)
Average number of large shells per batch     ...    61.28 (57.56%)
Average number of large basis fcns per batch ...   127.83 (58.57%)
Maximum spatial batch extension              ...  25.72, 20.38, 21.20 au
Average spatial batch extension              ...   2.07,  2.10,  2.13 au

Time for grid setup =   36.604 sec

------------------------------
INITIAL GUESS: MODEL POTENTIAL
------------------------------
Loading Hartree-Fock densities                     ... done
Calculating cut-offs                               ... done
Setting up the integral package                    ... done
Initializing the effective Hamiltonian             ... done
Starting the Coulomb interaction                   ... done (  10.0 sec)
Reading the grid                                   ... done
Mapping shells                                     ... done
Starting the XC term evaluation                    ... done (   9.4 sec)
  promolecular density results
     # of electrons  =    533.984323238
     EX              =   -500.368537059
     EC              =    -18.534855222
     EX+EC           =   -518.903392281
Transforming the Hamiltonian                       ... done (   0.1 sec)
Diagonalizing the Hamiltonian                      ... done (   0.3 sec)
Back transforming the eigenvectors                 ... done (   0.1 sec)
Now organizing SCF variables                       ... done
                      ------------------
                      INITIAL GUESS DONE (  56.8 sec)
                      ------------------
--------------------
COSX GRID GENERATION
--------------------

General Integration Accuracy     IntAcc      ...  3.340
Radial Grid Type                 RadialGrid  ... Gauss-Chebyshev
Angular Grid (max. acc.)         AngularGrid ... Lebedev-50
Angular grid pruning method      GridPruning ... 3 (G Style)
Weight generation scheme         WeightScheme... Becke
Basis function cutoff            BFCut       ...    1.0000e-11
Integration weight cutoff        WCut        ...    1.0000e-14
Grids for H and He will be reduced by one unit

# of grid points (after initial pruning)     ...  52638 (   0.1 sec)
# of grid points (after weights+screening)   ...  46545 (   2.5 sec)
nearest neighbour list constructed           ...    0.0 sec
Grid point re-assignment to atoms done       ...    0.0 sec
Grid point division into batches done        ...    0.0 sec
Reduced shell lists constructed in    1.0 sec

Total number of grid points                  ...    46545
Total number of batches                      ...      782
Average number of points per batch           ...       59
Average number of grid points per atom       ...      448
Average number of shells per batch           ...   130.84 (24.28%)
Average number of basis functions per batch  ...   271.47 (22.76%)
Average number of large shells per batch     ...    75.68 (57.84%)
Average number of large basis fcns per batch ...   159.83 (58.87%)
Maximum spatial batch extension              ...  18.02, 20.16, 20.01 au
Average spatial batch extension              ...   4.08,  4.44,  4.57 au

Overlap Fitting                  UseSFitting ... on
Constructing numerical overlap ... done (      0.7 sec)
Inverting numerical overlap    ... done (      0.0 sec)
Obtaining analytic overlap     ... done (      0.0 sec)
Final contraction and storage  ... done (      0.1 sec)


General Integration Accuracy     IntAcc      ...  3.670
Radial Grid Type                 RadialGrid  ... Gauss-Chebyshev
Angular Grid (max. acc.)         AngularGrid ... Lebedev-50
Angular grid pruning method      GridPruning ... 3 (G Style)
Weight generation scheme         WeightScheme... Becke
Basis function cutoff            BFCut       ...    1.0000e-11
Integration weight cutoff        WCut        ...    1.0000e-14
Grids for H and He will be reduced by one unit

# of grid points (after initial pruning)     ...  65758 (   0.1 sec)
# of grid points (after weights+screening)   ...  57895 (   3.1 sec)
nearest neighbour list constructed           ...    0.0 sec
Grid point re-assignment to atoms done       ...    0.0 sec
Grid point division into batches done        ...    0.0 sec
Reduced shell lists constructed in    1.2 sec

Total number of grid points                  ...    57895
Total number of batches                      ...      956
Average number of points per batch           ...       60
Average number of grid points per atom       ...      557
Average number of shells per batch           ...   127.50 (23.66%)
Average number of basis functions per batch  ...   264.02 (22.13%)
Average number of large shells per batch     ...    73.52 (57.66%)
Average number of large basis fcns per batch ...   154.92 (58.68%)
Maximum spatial batch extension              ...  19.79, 23.43, 21.42 au
Average spatial batch extension              ...   3.91,  4.14,  4.25 au

Overlap Fitting                  UseSFitting ... on
Constructing numerical overlap ... done (      0.8 sec)
Inverting numerical overlap    ... done (      0.0 sec)
Obtaining analytic overlap     ... done (      0.0 sec)
Final contraction and storage  ... done (      0.1 sec)


General Integration Accuracy     IntAcc      ...  4.010
Radial Grid Type                 RadialGrid  ... Gauss-Chebyshev
Angular Grid (max. acc.)         AngularGrid ... Lebedev-110
Angular grid pruning method      GridPruning ... 3 (G Style)
Weight generation scheme         WeightScheme... Becke
Basis function cutoff            BFCut       ...    1.0000e-11
Integration weight cutoff        WCut        ...    1.0000e-14
Grids for H and He will be reduced by one unit

# of grid points (after initial pruning)     ... 128348 (   0.2 sec)
# of grid points (after weights+screening)   ... 111947 (   6.1 sec)
nearest neighbour list constructed           ...    0.0 sec
Grid point re-assignment to atoms done       ...    0.0 sec
Grid point division into batches done        ...    0.1 sec
Reduced shell lists constructed in    2.2 sec

Total number of grid points                  ...   111947
Total number of batches                      ...     1805
Average number of points per batch           ...       62
Average number of grid points per atom       ...     1076
Average number of shells per batch           ...   120.38 (22.33%)
Average number of basis functions per batch  ...   248.82 (20.86%)
Average number of large shells per batch     ...    69.77 (57.95%)
Average number of large basis fcns per batch ...   146.79 (58.99%)
Maximum spatial batch extension              ...  22.63, 21.17, 19.67 au
Average spatial batch extension              ...   3.21,  3.34,  3.42 au

Overlap Fitting                  UseSFitting ... on
Constructing numerical overlap ... done (      1.5 sec)
Inverting numerical overlap    ... done (      0.0 sec)
Obtaining analytic overlap     ... done (      0.0 sec)
Final contraction and storage  ... done (      0.1 sec)

Time for X-Grid setup             =   19.945 sec
--------------
SCF ITERATIONS
--------------
ITER       Energy         Delta-E        Max-DP      RMS-DP      [F,P]     Damp
               ***  Starting incremental Fock matrix formation  ***
  0  -4705.7942359633   0.000000000000 0.07956757  0.00096574  0.2359170 0.7000
  1  -4706.3481121874  -0.553876224101 0.04423085  0.00067659  0.0997722 0.7000
                               ***Turning on DIIS***
  2  -4706.5828489129  -0.234736725488 0.08287718  0.00122621  0.0417975 0.0000
  3  -4706.9828782492  -0.400029336290 0.04953572  0.00050473  0.0517326 0.0000
  4  -4707.0495004500  -0.066622200848 0.01674797  0.00016188  0.0253932 0.0000
  5  -4707.0558218394  -0.006321389346 0.00703680  0.00007040  0.0071454 0.0000
                      *** Initiating the SOSCF procedure ***
                           *** Shutting down DIIS ***
                      *** Re-Reading the Fockian *** 
                      *** Removing any level shift *** 
ITER      Energy       Delta-E        Grad      Rot      Max-DP    RMS-DP
  6  -4707.05694829  -0.0011264544  0.003053  0.003053  0.004320  0.000043
               *** Restarting incremental Fock matrix formation ***
  7  -4707.05732854  -0.0003802458  0.002218  0.015964  0.004299  0.000052
  8  -4707.05768223  -0.0003536874  0.000638  0.015892  0.005015  0.000066
  9  -4707.05769272  -0.0000104923  0.000784  0.004984  0.001799  0.000024
 10  -4707.05779666  -0.0001039377  0.000211  0.001288  0.001158  0.000010
 11  -4707.05779455   0.0000021071  0.000169  0.000815  0.000692  0.000006
 12  -4707.05780235  -0.0000077958  0.000033  0.000213  0.000300  0.000003
 13  -4707.05780251  -0.0000001596  0.000047  0.000090  0.000178  0.000001
 14  -4707.05780276  -0.0000002586  0.000009  0.000054  0.000080  0.000001
 15  -4707.05780276   0.0000000012  0.000015  0.000035  0.000059  0.000000
 16  -4707.05780281  -0.0000000449  0.000003  0.000018  0.000020  0.000000
 17  -4707.05780281  -0.0000000048  0.000003  0.000008  0.000010  0.000000
                  ***Gradient check signals convergence***
              ***Rediagonalizing the Fockian in SOSCF/NRSCF***

               *****************************************************
               *                     SUCCESS                       *
               *           SCF CONVERGED AFTER  18 CYCLES          *
               *****************************************************

Setting up the final grid:

General Integration Accuracy     IntAcc      ...  5.010
Radial Grid Type                 RadialGrid  ... Gauss-Chebyshev
Angular Grid (max. acc.)         AngularGrid ... Lebedev-434
Angular grid pruning method      GridPruning ... 3 (G Style)
Weight generation scheme         WeightScheme... Becke
Basis function cutoff            BFCut       ...    1.0000e-11
Integration weight cutoff        WCut        ...    1.0000e-14
Grids for H and He will be reduced by one unit

# of grid points (after initial pruning)     ... 992370 (   1.6 sec)
# of grid points (after weights+screening)   ... 835102 (  46.3 sec)
nearest neighbour list constructed           ...    0.0 sec
Grid point re-assignment to atoms done       ...    0.1 sec
Grid point division into batches done        ...    5.5 sec
Reduced shell lists constructed in   18.2 sec

Total number of grid points                  ...   835102
Total number of batches                      ...    13099
Average number of points per batch           ...       63
Average number of grid points per atom       ...     8030
Average number of shells per batch           ...   102.50 (19.02%)
Average number of basis functions per batch  ...   209.44 (17.56%)
Average number of large shells per batch     ...    58.89 (57.46%)
Average number of large basis fcns per batch ...   122.49 (58.48%)
Maximum spatial batch extension              ...  20.17, 23.03, 22.26 au
Average spatial batch extension              ...   1.69,  1.72,  1.73 au

Final grid set up in   66.2 sec
Final integration                            ... done (  22.1 sec)
Change in XC energy                          ...    -0.000035263
Integrated number of electrons               ...   533.999894182
Previous integrated no of electrons          ...   533.999436996
Old exchange energy                            =   -138.306490083 Eh
New exchange energy                            =   -138.304656930 Eh
Exchange energy change after final integration =      0.001833154 Eh
Total energy after final integration           =  -4707.056004963 Eh
Final COS-X integration done in                =   433.978 sec

----------------
TOTAL SCF ENERGY
----------------

Total Energy       :        -4707.05600496 Eh         -128085.50564 eV

Components:
Nuclear Repulsion  :        11928.52871583 Eh          324591.76828 eV
Electronic Energy  :       -16635.58472079 Eh         -452677.27392 eV
One Electron Energy:       -30209.64425231 Eh         -822046.21213 eV
Two Electron Energy:        13574.05953153 Eh          369368.93821 eV

Virial components:
Potential Energy   :        -9382.66388866 Eh         -255315.26439 eV
Kinetic Energy     :         4675.60788370 Eh          127229.75875 eV
Virial Ratio       :            2.00672600


DFT components:
N(Alpha)           :      266.999947091066 electrons
N(Beta)            :      266.999947091066 electrons
N(Total)           :      533.999894182132 electrons
E(XC)              :     -388.713787366159 Eh       
DFET-embed. en.    :        0.000000000000 Eh       

---------------
SCF CONVERGENCE
---------------

  Last Energy change         ...   -4.0585e-08  Tolerance :   1.0000e-08
  Last MAX-Density change    ...    7.1054e-15  Tolerance :   1.0000e-07
  Last RMS-Density change    ...    3.4754e-17  Tolerance :   5.0000e-09
  Last Orbital Gradient      ...    8.9112e-07  Tolerance :   1.0000e-05
  Last Orbital Rotation      ...    5.3526e-06  Tolerance :   1.0000e-05

             **** THE GBW FILE WAS UPDATED (Y11.gbw) ****
             **** DENSITY FILE WAS UPDATED (Y11.scfp) ****
             **** ENERGY FILE WAS UPDATED (Y11.en.tmp) ****
             **** THE GBW FILE WAS UPDATED (Y11.gbw) ****
             **** DENSITY FILE WAS UPDATED (Y11.scfp) ****
----------------
ORBITAL ENERGIES
----------------

  NO   OCC          E(Eh)            E(eV) 
   0   2.0000     -88.979599     -2421.2580 
   1   2.0000     -88.972665     -2421.0693 
   2   2.0000     -88.960402     -2420.7356 
   3   2.0000     -88.910391     -2419.3747 
   4   2.0000     -24.812962      -675.1950 
   5   2.0000     -24.806569      -675.0211 
   6   2.0000     -24.803664      -674.9420 
   7   2.0000     -24.803536      -674.9385 
   8   2.0000     -19.226355      -523.1757 
   9   2.0000     -19.220091      -523.0053 
  10   2.0000     -14.528436      -395.3388 
  11   2.0000     -14.499745      -394.5581 
  12   2.0000     -14.494759      -394.4224 
  13   2.0000     -14.449049      -393.1786 
  14   2.0000     -14.446351      -393.1052 
  15   2.0000     -14.425988      -392.5511 
  16   2.0000     -14.424977      -392.5236 
  17   2.0000     -14.422133      -392.4462 
  18   2.0000     -14.418139      -392.3375 
  19   2.0000     -10.392109      -282.7837 
  20   2.0000     -10.391164      -282.7580 
  21   2.0000     -10.389547      -282.7139 
  22   2.0000     -10.388648      -282.6895 
  23   2.0000     -10.379425      -282.4385 
  24   2.0000     -10.372461      -282.2490 
  25   2.0000     -10.357582      -281.8441 
  26   2.0000     -10.354050      -281.7480 
  27   2.0000     -10.348179      -281.5883 
  28   2.0000     -10.347800      -281.5780 
  29   2.0000     -10.347571      -281.5717 
  30   2.0000     -10.346817      -281.5512 
  31   2.0000     -10.344797      -281.4962 
  32   2.0000     -10.341102      -281.3957 
  33   2.0000     -10.340288      -281.3736 
  34   2.0000     -10.336635      -281.2741 
  35   2.0000     -10.332377      -281.1583 
  36   2.0000     -10.331827      -281.1433 
  37   2.0000     -10.327636      -281.0293 
  38   2.0000     -10.326574      -281.0004 
  39   2.0000     -10.326177      -280.9896 
  40   2.0000     -10.324873      -280.9541 
  41   2.0000     -10.322241      -280.8825 
  42   2.0000     -10.322203      -280.8814 
  43   2.0000     -10.321645      -280.8662 
  44   2.0000     -10.321247      -280.8554 
  45   2.0000     -10.320987      -280.8483 
  46   2.0000     -10.320206      -280.8271 
  47   2.0000     -10.319548      -280.8092 
  48   2.0000     -10.318645      -280.7846 
  49   2.0000     -10.318024      -280.7677 
  50   2.0000     -10.317630      -280.7570 
  51   2.0000     -10.316546      -280.7275 
  52   2.0000     -10.315573      -280.7010 
  53   2.0000     -10.313958      -280.6571 
  54   2.0000     -10.312147      -280.6078 
  55   2.0000     -10.311861      -280.6000 
  56   2.0000     -10.311221      -280.5826 
  57   2.0000     -10.310792      -280.5709 
  58   2.0000     -10.310695      -280.5683 
  59   2.0000     -10.308060      -280.4966 
  60   2.0000     -10.307994      -280.4948 
  61   2.0000     -10.305660      -280.4313 
  62   2.0000     -10.302174      -280.3364 
  63   2.0000     -10.300664      -280.2953 
  64   2.0000     -10.298083      -280.2251 
  65   2.0000     -10.292143      -280.0634 
  66   2.0000     -10.288771      -279.9717 
  67   2.0000     -10.284801      -279.8637 
  68   2.0000     -10.283271      -279.8220 
  69   2.0000     -10.272692      -279.5342 
  70   2.0000     -10.270140      -279.4647 
  71   2.0000     -10.268024      -279.4071 
  72   2.0000     -10.260410      -279.2000 
  73   2.0000      -8.073634      -219.6947 
  74   2.0000      -8.066833      -219.5097 
  75   2.0000      -8.052498      -219.1196 
  76   2.0000      -8.006182      -217.8593 
  77   2.0000      -6.043304      -164.4467 
  78   2.0000      -6.039241      -164.3361 
  79   2.0000      -6.036699      -164.2669 
  80   2.0000      -6.035087      -164.2231 
  81   2.0000      -6.032770      -164.1600 
  82   2.0000      -6.027729      -164.0228 
  83   2.0000      -6.023209      -163.8998 
  84   2.0000      -6.019286      -163.7931 
  85   2.0000      -6.011941      -163.5932 
  86   2.0000      -5.975212      -162.5938 
  87   2.0000      -5.974618      -162.5776 
  88   2.0000      -5.965304      -162.3242 
  89   2.0000      -1.332775       -36.2666 
  90   2.0000      -1.327265       -36.1167 
  91   2.0000      -1.316742       -35.8304 
  92   2.0000      -1.312024       -35.7020 
  93   2.0000      -1.216001       -33.0891 
  94   2.0000      -1.143726       -31.1224 
  95   2.0000      -1.135661       -30.9029 
  96   2.0000      -1.131900       -30.8006 
  97   2.0000      -1.117120       -30.3984 
  98   2.0000      -1.030269       -28.0350 
  99   2.0000      -1.028315       -27.9819 
 100   2.0000      -1.020749       -27.7760 
 101   2.0000      -1.011181       -27.5156 
 102   2.0000      -1.007779       -27.4231 
 103   2.0000      -1.006448       -27.3868 
 104   2.0000      -1.003629       -27.3101 
 105   2.0000      -0.998660       -27.1749 
 106   2.0000      -0.991482       -26.9796 
 107   2.0000      -0.980664       -26.6852 
 108   2.0000      -0.971010       -26.4225 
 109   2.0000      -0.967620       -26.3303 
 110   2.0000      -0.957108       -26.0442 
 111   2.0000      -0.954184       -25.9647 
 112   2.0000      -0.936608       -25.4864 
 113   2.0000      -0.924238       -25.1498 
 114   2.0000      -0.912553       -24.8318 
 115   2.0000      -0.908781       -24.7292 
 116   2.0000      -0.907139       -24.6845 
 117   2.0000      -0.891148       -24.2494 
 118   2.0000      -0.886714       -24.1287 
 119   2.0000      -0.882786       -24.0218 
 120   2.0000      -0.879974       -23.9453 
 121   2.0000      -0.878026       -23.8923 
 122   2.0000      -0.869460       -23.6592 
 123   2.0000      -0.852078       -23.1862 
 124   2.0000      -0.846456       -23.0332 
 125   2.0000      -0.842714       -22.9314 
 126   2.0000      -0.828199       -22.5364 
 127   2.0000      -0.815024       -22.1779 
 128   2.0000      -0.811509       -22.0823 
 129   2.0000      -0.808396       -21.9976 
 130   2.0000      -0.796044       -21.6615 
 131   2.0000      -0.786066       -21.3900 
 132   2.0000      -0.780502       -21.2386 
 133   2.0000      -0.775465       -21.1015 
 134   2.0000      -0.774184       -21.0666 
 135   2.0000      -0.767279       -20.8787 
 136   2.0000      -0.753792       -20.5117 
 137   2.0000      -0.739264       -20.1164 
 138   2.0000      -0.736054       -20.0290 
 139   2.0000      -0.732622       -19.9357 
 140   2.0000      -0.724702       -19.7201 
 141   2.0000      -0.719732       -19.5849 
 142   2.0000      -0.713996       -19.4288 
 143   2.0000      -0.711803       -19.3691 
 144   2.0000      -0.705987       -19.2109 
 145   2.0000      -0.703408       -19.1407 
 146   2.0000      -0.696933       -18.9645 
 147   2.0000      -0.691155       -18.8073 
 148   2.0000      -0.685531       -18.6543 
 149   2.0000      -0.674356       -18.3502 
 150   2.0000      -0.668765       -18.1980 
 151   2.0000      -0.662034       -18.0149 
 152   2.0000      -0.658244       -17.9117 
 153   2.0000      -0.653663       -17.7871 
 154   2.0000      -0.650141       -17.6912 
 155   2.0000      -0.645335       -17.5604 
 156   2.0000      -0.641443       -17.4546 
 157   2.0000      -0.637295       -17.3417 
 158   2.0000      -0.634385       -17.2625 
 159   2.0000      -0.627035       -17.0625 
 160   2.0000      -0.622248       -16.9322 
 161   2.0000      -0.614595       -16.7240 
 162   2.0000      -0.611598       -16.6424 
 163   2.0000      -0.609490       -16.5851 
 164   2.0000      -0.603891       -16.4327 
 165   2.0000      -0.601296       -16.3621 
 166   2.0000      -0.600115       -16.3300 
 167   2.0000      -0.597880       -16.2691 
 168   2.0000      -0.594367       -16.1735 
 169   2.0000      -0.592286       -16.1169 
 170   2.0000      -0.589363       -16.0374 
 171   2.0000      -0.579974       -15.7819 
 172   2.0000      -0.578765       -15.7490 
 173   2.0000      -0.572261       -15.5720 
 174   2.0000      -0.565381       -15.3848 
 175   2.0000      -0.562240       -15.2993 
 176   2.0000      -0.559386       -15.2217 
 177   2.0000      -0.558268       -15.1913 
 178   2.0000      -0.556696       -15.1485 
 179   2.0000      -0.555621       -15.1192 
 180   2.0000      -0.552590       -15.0367 
 181   2.0000      -0.552282       -15.0284 
 182   2.0000      -0.547249       -14.8914 
 183   2.0000      -0.544584       -14.8189 
 184   2.0000      -0.542271       -14.7559 
 185   2.0000      -0.540327       -14.7030 
 186   2.0000      -0.539524       -14.6812 
 187   2.0000      -0.537389       -14.6231 
 188   2.0000      -0.536018       -14.5858 
 189   2.0000      -0.533133       -14.5073 
 190   2.0000      -0.531939       -14.4748 
 191   2.0000      -0.529126       -14.3983 
 192   2.0000      -0.527913       -14.3652 
 193   2.0000      -0.521759       -14.1978 
 194   2.0000      -0.520160       -14.1543 
 195   2.0000      -0.517138       -14.0720 
 196   2.0000      -0.512794       -13.9538 
 197   2.0000      -0.508925       -13.8485 
 198   2.0000      -0.506410       -13.7801 
 199   2.0000      -0.501998       -13.6600 
 200   2.0000      -0.501770       -13.6539 
 201   2.0000      -0.501312       -13.6414 
 202   2.0000      -0.498392       -13.5619 
 203   2.0000      -0.497244       -13.5307 
 204   2.0000      -0.495041       -13.4708 
 205   2.0000      -0.493558       -13.4304 
 206   2.0000      -0.487531       -13.2664 
 207   2.0000      -0.484805       -13.1922 
 208   2.0000      -0.483117       -13.1463 
 209   2.0000      -0.479924       -13.0594 
 210   2.0000      -0.476962       -12.9788 
 211   2.0000      -0.476163       -12.9571 
 212   2.0000      -0.471403       -12.8275 
 213   2.0000      -0.469416       -12.7735 
 214   2.0000      -0.466384       -12.6910 
 215   2.0000      -0.465122       -12.6566 
 216   2.0000      -0.464228       -12.6323 
 217   2.0000      -0.463421       -12.6103 
 218   2.0000      -0.460347       -12.5267 
 219   2.0000      -0.460092       -12.5197 
 220   2.0000      -0.457074       -12.4376 
 221   2.0000      -0.456472       -12.4212 
 222   2.0000      -0.455374       -12.3914 
 223   2.0000      -0.454317       -12.3626 
 224   2.0000      -0.452990       -12.3265 
 225   2.0000      -0.451630       -12.2895 
 226   2.0000      -0.450070       -12.2470 
 227   2.0000      -0.447962       -12.1897 
 228   2.0000      -0.445722       -12.1287 
 229   2.0000      -0.441606       -12.0167 
 230   2.0000      -0.438447       -11.9308 
 231   2.0000      -0.436014       -11.8646 
 232   2.0000      -0.435412       -11.8482 
 233   2.0000      -0.434332       -11.8188 
 234   2.0000      -0.433744       -11.8028 
 235   2.0000      -0.430958       -11.7270 
 236   2.0000      -0.430264       -11.7081 
 237   2.0000      -0.428017       -11.6469 
 238   2.0000      -0.426246       -11.5987 
 239   2.0000      -0.424535       -11.5522 
 240   2.0000      -0.419970       -11.4280 
 241   2.0000      -0.416357       -11.3297 
 242   2.0000      -0.413652       -11.2560 
 243   2.0000      -0.408366       -11.1122 
 244   2.0000      -0.404149       -10.9975 
 245   2.0000      -0.398368       -10.8401 
 246   2.0000      -0.393794       -10.7157 
 247   2.0000      -0.390293       -10.6204 
 248   2.0000      -0.385351       -10.4859 
 249   2.0000      -0.379151       -10.3172 
 250   2.0000      -0.372173       -10.1273 
[...]
  35   4.302     288.2   0.151280   0.136157  -18.646900  -2.678095     0.13 (  89->  96)    0.11 (  83->  96)    0.07 (  90->  98)
  36   4.382     282.9   0.120420   0.107019  -153.477733  -106.975143     0.34 (  80->  96)    0.21 (  87->  98)    0.07 (  90->  98)
  37   4.392     282.3   0.019893   0.017679  31.509944  28.530826     0.22 (  93-> 100)    0.17 (  80->  96)    0.12 (  90-> 100)
  38   4.457     278.2   0.302325   0.265591  567.309342  525.158390     0.26 (  95-> 102)    0.21 (  87->  98)    0.04 (  95-> 103)
  39   4.481     276.7   0.380791   0.333940  -549.817142  -561.574313     0.20 (  95-> 102)    0.14 (  87->  98)    0.12 (  80->  96)
  40   4.490     276.1   0.068927   0.062103  173.679179  164.250377     0.22 (  84->  97)    0.16 (  85->  97)    0.09 (  81->  97)
  41   4.511     274.9   0.076072   0.070115  34.085931  30.900604     0.13 (  92->  98)    0.09 (  95-> 102)    0.08 (  93-> 100)
  42   4.549     272.5   0.036208   0.030672  70.353447  54.365209     0.29 (  93-> 100)    0.11 (  95-> 103)    0.08 (  92->  98)
  43   4.572     271.2   0.003274   0.003364  15.474664  14.358585     0.38 (  95-> 103)    0.10 (  92->  98)    0.04 (  92-> 101)
  44   4.589     270.2   0.068530   0.056974  -70.449779  -68.587114     0.16 (  82->  97)    0.13 (  95-> 102)    0.12 (  84->  97)
  45   4.636     267.5   0.041981   0.033252  55.544357  47.480502     0.16 (  92-> 101)    0.13 (  94-> 101)    0.10 (  95-> 103)
  46   4.687     264.6   0.182396   0.149626  -381.509841  -348.578191     0.34 (  88->  99)    0.17 (  82->  97)    0.05 (  89->  99)
  47   4.725     262.4   0.087023   0.070163  190.226989  160.587024     0.21 (  87-> 100)    0.12 (  86->  98)    0.07 (  83->  98)
  48   4.757     260.6   0.039709   0.030522  -26.415732  -18.121033     0.15 (  81->  97)    0.12 (  90->  99)    0.07 (  89->  99)
  49   4.814     257.5   0.058043   0.047838  -83.485296  -67.600436     0.12 (  88->  96)    0.12 (  86->  98)    0.09 (  83->  98)
  50   4.821     257.2   0.001903   0.001449  -5.196687  -3.505419     0.44 (  87->  97)    0.07 (  90->  97)    0.05 (  89->  97)
  51   4.822     257.1   0.144109   0.122782  55.109834  43.993361     0.08 (  83->  98)    0.07 (  95-> 110)    0.06 (  86-> 100)
  52   4.840     256.2   0.098105   0.083276  67.085022  75.819334     0.15 (  83->  98)    0.10 (  86-> 100)    0.09 (  80->  98)
  53   4.885     253.8   0.145114   0.115254  -111.791000  -97.498821     0.15 (  87-> 100)    0.14 (  88->  96)    0.08 (  86-> 100)
  54   4.917     252.1   0.016370   0.013596  71.965738  64.960494     0.13 (  95-> 106)    0.08 (  94->  99)    0.07 (  92->  99)
  55   4.955     250.2   0.008232   0.007201  -0.935539  -0.997619     0.28 (  88->  96)    0.09 (  82->  96)    0.08 (  89->  98)
  56   4.976     249.2   0.004390   0.004306  -20.036321  -19.021028     0.08 (  89-> 101)    0.07 (  86->  97)    0.06 (  95-> 111)
  57   4.992     248.3   0.013911   0.011144   7.001523   7.320090     0.13 (  89->  98)    0.11 (  92-> 100)    0.08 (  90->  98)

-----------------------------------------------------------------------------
         ABSORPTION SPECTRUM VIA TRANSITION ELECTRIC DIPOLE MOMENTS
-----------------------------------------------------------------------------
State   Energy  Wavelength   fosc         T2         TX        TY        TZ  
        (cm-1)    (nm)                  (au**2)     (au)      (au)      (au) 
-----------------------------------------------------------------------------
   0   14200.9    704.2   0.003031339   0.07027  -0.24815  -0.03045  -0.08814
   1   15705.3    636.7   1.027212066  21.53227   3.41287  -2.51738   1.88346
   2   17393.0    574.9   0.015833736   0.29970   0.26697   0.47085  -0.08202
   3   20182.6    495.5   0.028801597   0.46980  -0.64672  -0.04195   0.22314
   4   20842.0    479.8   0.040070679   0.63294  -0.77920   0.16056  -0.00405
   5   22060.1    453.3   0.138487345   2.06670  -1.30729  -0.58507   0.12403
   6   23258.2    430.0   0.080703960   1.14233  -0.02924   0.87410  -0.61435
   7   23479.7    425.9   0.095681784   1.34157  -0.78693   0.84292  -0.10860
   8   23862.8    419.1   0.032997230   0.45523  -0.54079   0.29708   0.27298
   9   24431.6    409.3   0.318822976   4.29608  -1.56352   0.77479  -1.11856
  10   25320.5    394.9   0.009547319   0.12413   0.09366   0.08417   0.32905
  11   25976.5    385.0   0.056429210   0.71515  -0.59973   0.49946   0.32562
  12   27131.1    368.6   0.013048070   0.15833   0.28557   0.27683   0.01198
  13   27352.9    365.6   0.216820915   2.60959   1.19754   1.08379  -0.02972
  14   27978.1    357.4   0.044341604   0.52176  -0.23654   0.52419   0.43707
  15   28117.9    355.6   0.101127649   1.18403  -0.94935   0.21633   0.48576
  16   28798.1    347.2   0.008484425   0.09699   0.27390   0.14572  -0.02709
  17   29379.1    340.4   0.042750821   0.47905   0.18881  -0.24930  -0.61746
  18   29444.0    339.6   0.078447196   0.87711  -0.29749  -0.78459   0.41597
  19   29552.1    338.4   0.141089681   1.57175  -0.64974   0.47421  -0.96162
  20   30248.0    330.6   0.001148068   0.01250  -0.10483   0.02289   0.03134
  21   30915.9    323.5   0.112526212   1.19825  -0.51690  -0.95545  -0.13487
  22   31267.4    319.8   0.046536470   0.48998  -0.01874   0.21744  -0.66509
  23   31788.9    314.6   0.041802432   0.43291   0.55626   0.00564   0.35137
  24   31895.7    313.5   0.047208252   0.48726   0.25349  -0.00019   0.65039
  25   32190.7    310.6   0.124132628   1.26949  -0.62541   0.12019  -0.92947
  26   32661.0    306.2   0.068684200   0.69231  -0.25853   0.37890  -0.69420
  27   32890.1    304.0   0.043395267   0.43436   0.11898  -0.52675   0.37781
  28   33078.9    302.3   0.077978345   0.77607   0.42106   0.68556  -0.35885
  29   33181.5    301.4   0.030679648   0.30439  -0.13246   0.01890  -0.53524
  30   33615.4    297.5   0.063385886   0.62077  -0.12438  -0.64164   0.44000
  31   33806.5    295.8   0.024190233   0.23557   0.01713   0.33211  -0.35352
  32   33984.7    294.2   0.037767466   0.36586   0.00778  -0.42666  -0.42867
  33   34082.4    293.4   0.031053643   0.29996  -0.43064   0.32555  -0.09233
  34   34464.4    290.2   0.198927692   1.90020   1.14241  -0.66047   0.39859
  35   34695.8    288.2   0.151279695   1.43542  -0.42529  -1.10569  -0.17889
  36   35343.1    282.9   0.120420471   1.12168  -0.22681  -0.81176  -0.64131
  37   35426.6    282.3   0.019893406   0.18487   0.18485  -0.36495   0.13231
  38   35944.3    278.2   0.302324513   2.76897  -1.56205   0.47834   0.31650
  39   36140.5    276.7   0.380790606   3.46870  -0.43825  -0.33808   1.77830
  40   36213.3    276.1   0.068926724   0.62661  -0.77470  -0.06546  -0.14886
  41   36382.1    274.9   0.076071812   0.68835   0.16166   0.06653   0.81104
  42   36691.2    272.5   0.036208131   0.32488   0.12356  -0.53975  -0.13522
  43   36873.0    271.2   0.003274406   0.02923  -0.14038  -0.08590   0.04637
  44   37016.4    270.2   0.068530051   0.60948   0.07138   0.03598   0.77659
  45   37389.6    267.5   0.041980578   0.36964   0.55362   0.21646   0.12761
  46   37799.2    264.6   0.182395654   1.58857   0.37920   0.31731   1.15935
  47   38106.8    262.4   0.087023427   0.75181  -0.67332  -0.46364   0.28894
  48   38369.0    260.6   0.039709004   0.34071  -0.48902  -0.20591  -0.24325
  49   38827.7    257.5   0.058042760   0.49213  -0.38288  -0.35666  -0.46726
  50   38882.3    257.2   0.001903072   0.01611   0.08793   0.09149  -0.00307
  51   38891.0    257.1   0.144109076   1.21988  -0.73161   0.00409   0.82742
  52   39036.8    256.2   0.098105078   0.82736  -0.67718   0.13600   0.59186
  53   39404.1    253.8   0.145113951   1.21239   1.08961   0.10753   0.11651
  54   39659.6    252.1   0.016369934   0.13589   0.18076   0.16307  -0.27680
  55   39963.8    250.2   0.008231737   0.06781   0.08471  -0.19574   0.14940
  56   40133.3    249.2   0.004390109   0.03601  -0.11606  -0.13369   0.06833
  57   40267.2    248.3   0.013910833   0.11373   0.23326  -0.17370   0.17073

-----------------------------------------------------------------------------
         ABSORPTION SPECTRUM VIA TRANSITION VELOCITY DIPOLE MOMENTS
-----------------------------------------------------------------------------
State   Energy  Wavelength   fosc         P2         PX        PY        PZ  
        (cm-1)    (nm)                  (au**2)     (au)      (au)      (au) 
-----------------------------------------------------------------------------
   0   14200.9    704.2   0.003598550   0.00035  -0.01635  -0.00166  -0.00889
   1   15705.3    636.7   1.302504461   0.13981   0.27487  -0.20107   0.15435
   2   17393.0    574.9   0.018281743   0.00217   0.02530   0.03878  -0.00538
   3   20182.6    495.5   0.030825937   0.00425  -0.06009  -0.00860   0.02381
   4   20842.0    479.8   0.037581217   0.00535  -0.07128   0.01650   0.00084
   5   22060.1    453.3   0.169743738   0.02559  -0.14348  -0.07010   0.00951
   6   23258.2    430.0   0.078074067   0.01241  -0.00738   0.09268  -0.06137
   7   23479.7    425.9   0.094257724   0.01513  -0.08303   0.09012  -0.01049
   8   23862.8    419.1   0.032333419   0.00527  -0.05513   0.03082   0.03584
   9   24431.6    409.3   0.331035350   0.05528  -0.17912   0.08725  -0.12481
  10   25320.5    394.9   0.006936830   0.00120   0.00266   0.00866   0.03344
  11   25976.5    385.0   0.052636772   0.00934  -0.06339   0.06024   0.04119
  12   27131.1    368.6   0.013617658   0.00253   0.03668   0.03434   0.00075
  13   27352.9    365.6   0.228041948   0.04263   0.15307   0.13827  -0.00900
  14   27978.1    357.4   0.046265824   0.00885  -0.02030   0.07147   0.05768
  15   28117.9    355.6   0.102733065   0.01974  -0.12217   0.02675   0.06405
  16   28798.1    347.2   0.008445959   0.00166   0.03733   0.01638  -0.00084
  17   29379.1    340.4   0.041352221   0.00830   0.02302  -0.03333  -0.08162
  18   29444.0    339.6   0.072935843   0.01468  -0.03799  -0.10341   0.05040
  19   29552.1    338.4   0.134225721   0.02711  -0.08591   0.06098  -0.12653
  20   30248.0    330.6   0.001191290   0.00025  -0.01511   0.00258   0.00336
  21   30915.9    323.5   0.102428091   0.02164  -0.06424  -0.13138  -0.01595
  22   31267.4    319.8   0.044154391   0.00944   0.00181   0.03127  -0.09195
  23   31788.9    314.6   0.036982634   0.00803   0.07774   0.00407   0.04444
  24   31895.7    313.5   0.041153037   0.00897   0.02916  -0.00339   0.09005
  25   32190.7    310.6   0.118396975   0.02605  -0.08964   0.01715  -0.13311
  26   32661.0    306.2   0.061235152   0.01367  -0.03940   0.05354  -0.09618
  27   32890.1    304.0   0.039397526   0.00886   0.01607  -0.07493   0.05462
  28   33078.9    302.3   0.072131665   0.01631   0.06368   0.10043  -0.04653
  29   33181.5    301.4   0.029798388   0.00676  -0.01709   0.00307  -0.08035
  30   33615.4    297.5   0.061952070   0.01423  -0.02343  -0.09774   0.06427
  31   33806.5    295.8   0.022472991   0.00519   0.00362   0.04913  -0.05258
  32   33984.7    294.2   0.033721307   0.00783   0.00665  -0.06001  -0.06471
  33   34082.4    293.4   0.028070603   0.00654  -0.06532   0.04638  -0.01101
  34   34464.4    290.2   0.174338304   0.04106   0.16768  -0.09833   0.05727
  35   34695.8    288.2   0.136156839   0.03229  -0.06395  -0.16543  -0.02881
  36   35343.1    282.9   0.107018597   0.02585  -0.02873  -0.12218  -0.10048
  37   35426.6    282.3   0.017678674   0.00428   0.02203  -0.05701   0.02335
  38   35944.3    278.2   0.265590568   0.06525  -0.23923   0.07417   0.05013
  39   36140.5    276.7   0.333940417   0.08248  -0.06382  -0.04892   0.27571
  40   36213.3    276.1   0.062102923   0.01537  -0.12102  -0.01062  -0.02473
  41   36382.1    274.9   0.070114761   0.01743   0.03009   0.01082   0.12811
  42   36691.2    272.5   0.030672212   0.00769   0.01897  -0.08379  -0.01762
  43   36873.0    271.2   0.003363975   0.00085  -0.02460  -0.01348   0.00779
  44   37016.4    270.2   0.056973701   0.01441   0.00784   0.00523   0.11969
  45   37389.6    267.5   0.033252405   0.00850   0.08229   0.03605   0.02066
  46   37799.2    264.6   0.149626199   0.03865   0.05563   0.04824   0.18230
  47   38106.8    262.4   0.070162583   0.01827  -0.10440  -0.07163   0.04736
  48   38369.0    260.6   0.030521550   0.00800  -0.07627  -0.02974  -0.03607
  49   38827.7    257.5   0.047837605   0.01269  -0.05989  -0.05657  -0.07686
  50   38882.3    257.2   0.001449064   0.00039   0.01301   0.01469   0.00019
  51   38891.0    257.1   0.122781666   0.03264  -0.11860   0.00151   0.13627
  52   39036.8    256.2   0.083276192   0.02222  -0.11073   0.01932   0.09789
  53   39404.1    253.8   0.115253671   0.03104   0.17439   0.01383   0.02083
  54   39659.6    252.1   0.013596163   0.00369   0.02833   0.02813  -0.04573
  55   39963.8    250.2   0.007200674   0.00197   0.01311  -0.03369   0.02569
  56   40133.3    249.2   0.004306199   0.00118  -0.01771  -0.02803   0.00906
  57   40267.2    248.3   0.011143519   0.00307   0.03687  -0.03024   0.02816

-------------------------------------------------------------------
                             CD SPECTRUM
-------------------------------------------------------------------
State   Energy Wavelength       R         MX        MY        MZ   
        (cm-1)   (nm)       (1e40*cgs)   (au)      (au)      (au)  
-------------------------------------------------------------------
   0   14200.9    704.2    -10.51496  -0.23943  -0.07994   0.19563
   1   15705.3    636.7    -203.23114  -0.14654   0.60015   1.52544
   2   17393.0    574.9    -71.32270   0.84620  -0.15193  -1.80694
   3   20182.6    495.5      2.95328  -0.05128   0.60042  -0.09188
   4   20842.0    479.8      2.93166   0.11561   0.47518  -0.33283
   5   22060.1    453.3    110.01787   0.23773   0.28047   0.06572
   6   23258.2    430.0    -61.33834   0.40786  -0.99831  -1.86336
   7   23479.7    425.9    -43.85519   0.39111   0.40123  -1.43297
   8   23862.8    419.1    -16.10192   0.60317   1.31872   0.01000
   9   24431.6    409.3      7.89230  -0.06549  -0.69064  -0.35690
  10   25320.5    394.9    -12.74761  -0.22015   0.23699   0.16638
  11   25976.5    385.0     62.30667   0.44966   1.40029  -2.13144
  12   27131.1    368.6    -19.96964   0.17301   0.13024  -0.06193
  13   27352.9    365.6     28.98166   0.00796  -0.15722  -1.27551
  14   27978.1    357.4     26.05266   0.76333   1.83044  -2.03507
  15   28117.9    355.6    149.30399   1.16809   2.64136  -0.19732
  16   28798.1    347.2     12.79730  -0.05173  -0.27305   0.01223
  17   29379.1    340.4    214.01905  -0.05789  -0.83755   1.79090
  18   29444.0    339.6    -226.36111  -0.23025   0.54614   3.17396
  19   29552.1    338.4     42.36493   0.50778  -1.13189  -0.71437
  20   30248.0    330.6      8.17907   0.34778   0.12672  -0.03641
  21   30915.9    323.5    -31.29946  -1.19000  -0.05808   3.98785
  22   31267.4    319.8    -28.56921   0.69888  -0.86925  -0.48612
  23   31788.9    314.6     52.67487  -0.04462  -0.09742  -0.56378
  24   31895.7    313.5    -249.79756   1.26617   2.50661   1.13660
  25   32190.7    310.6    129.56633   1.15817  -0.69457  -0.27774
  26   32661.0    306.2     23.92888   0.23124  -0.89537  -0.42858
  27   32890.1    304.0    -21.97591  -0.12002   0.96402   1.62865
  28   33078.9    302.3     91.07282  -0.53788  -2.41547  -4.16910
  29   33181.5    301.4    -49.83522   0.13024  -0.92295  -0.45981
  30   33615.4    297.5    -43.28606  -0.13587   1.30218   2.27784
  31   33806.5    295.8     -1.60781   0.33831  -0.19604  -0.18707
  32   33984.7    294.2    -56.71050  -1.53520  -2.01403   1.41546
  33   34082.4    293.4     -9.27463   0.62367   0.59751  -1.22824
  34   34464.4    290.2     81.14647  -0.99200  -0.08506   1.83858
  35   34695.8    288.2    -18.64690  -1.49180  -0.33144   5.15296
  36   35343.1    282.9    -153.47773  -2.09627  -2.93205   3.43746
  37   35426.6    282.3     31.50994   0.27679   0.94382   1.20631
  38   35944.3    278.2    567.30934   2.81438   4.20638  -0.07128
  39   36140.5    276.7    -549.81714   1.43557   7.07531   3.01055
  40   36213.3    276.1    173.67918   0.95187   0.49139  -0.22024
  41   36382.1    274.9     34.08593   0.12471   1.74134  -0.34599
  42   36691.2    272.5     70.35345  -0.69458  -0.17308   2.26343
  43   36873.0    271.2     15.47466   0.25365   1.11805   1.42313
  44   37016.4    270.2    -70.44978  -1.07748   1.22153   0.42729
  45   37389.6    267.5     55.54436  -0.48959   0.23885  -0.12766
  46   37799.2    264.6    -381.50984  -1.32664   3.09867   0.98183
  47   38106.8    262.4    190.22699   0.76245   2.16796   2.46254
  48   38369.0    260.6    -26.41573   0.65068  -0.92754  -0.98361
  49   38827.7    257.5    -83.48530  -1.40404  -1.51567   1.54946
  50   38882.3    257.2     -5.19669   0.34264  -0.11411  -0.76622
  51   38891.0    257.1     55.10983   1.28169   3.58084   0.83302
  52   39036.8    256.2     67.08502   2.04425   4.01170   0.93627
  53   39404.1    253.8    -111.79100   0.44536   0.26650  -0.34052
  54   39659.6    252.1     71.96574  -0.72311  -0.39334   0.39902
  55   39963.8    250.2     -0.93554  -0.07423   0.69578   0.98024
  56   40133.3    249.2    -20.03632  -0.39130  -0.25028   0.08965
  57   40267.2    248.3      7.00152  -0.12111   0.62609   0.62849

sTD-DFT done

Total run time:        4.259 sec

           *** ORCA-CIS/TD-DFT FINISHED WITHOUT ERROR ***

-------------------------   --------------------
FINAL SINGLE POINT ENERGY     -4707.056004962707
-------------------------   --------------------


                            ***************************************
                            *     ORCA property calculations      *
                            ***************************************

                                    ---------------------
                                    Active property flags
                                    ---------------------
   (+) Dipole Moment


------------------------------------------------------------------------------
                       ORCA ELECTRIC PROPERTIES CALCULATION
------------------------------------------------------------------------------

Dipole Moment Calculation                       ... on
Quadrupole Moment Calculation                   ... off
Polarizability Calculation                      ... off
GBWName                                         ... Y11.gbw
Electron density file                           ... Y11.scfp
The origin for moment calculation is the CENTER OF MASS  = (19.565116, -3.690547  3.502843)

-------------
DIPOLE MOMENT
-------------
                                X             Y             Z
Electronic contribution:     -9.50816     -18.04999     -28.24865
Nuclear contribution   :      8.04970      19.04710      28.89578
                        -----------------------------------------
Total Dipole Moment    :     -1.45847       0.99710       0.64713
                        -----------------------------------------
Magnitude (a.u.)       :      1.88152
Magnitude (Debye)      :      4.78244



--------------------
Rotational spectrum 
--------------------
 
Rotational constants in cm-1:     0.001577     0.000361     0.000329 
Rotational constants in MHz :    47.277269    10.809043     9.864132 

 Dipole components along the rotational axes: 
x,y,z [a.u.] :    -1.416014     0.843751    -0.907247 
x,y,z [Debye]:    -3.599223     2.144645    -2.306039 

 

Timings for individual modules:

Sum of individual times         ...     4494.396 sec (=  74.907 min)
GTO integral calculation        ...        3.151 sec (=   0.053 min)   0.1 %
SCF iterations                  ...     4486.929 sec (=  74.782 min)  99.8 %
CIS module                      ...        4.316 sec (=   0.072 min)   0.1 %
                             ****ORCA TERMINATED NORMALLY****
TOTAL RUN TIME: 0 days 1 hours 14 minutes 54 seconds 919 msec
