
                                 *****************
                                 * O   R   C   A *
                                 *****************

           --- An Ab Initio, DFT and Semiempirical electronic structure package ---

                  #######################################################
                  #                        -***-                        #
                  #          Department of theory and spectroscopy      #
                  #               Directorship: Frank Neese             #
                  #        Max Planck Institute fuer Kohlenforschung    #
                  #                Kaiser Wilhelm Platz 1               #
                  #                 D-45470 Muelheim/Ruhr               #
                  #                      Germany                        #
                  #                                                     #
                  #                  All rights reserved                #
                  #                        -***-                        #
                  #######################################################


                         Program Version 4.2.0 -  RELEASE  -


 With contributions from (in alphabetic order):
   Daniel Aravena         : Magnetic Suceptibility
   Michael Atanasov       : Ab Initio Ligand Field Theory (pilot matlab implementation)
   Alexander A. Auer      : GIAO ZORA, VPT2
   Ute Becker             : Parallelization
   Giovanni Bistoni       : ED, misc. LED, open-shell LED, HFLED
   Martin Brehm           : Molecular dynamics
   Dmytro Bykov           : SCF Hessian
   Vijay G. Chilkuri      : MRCI spin determinant printing, contributions to CSF-ICE
   Dipayan Datta          : RHF DLPNO-CCSD density
   Achintya Kumar Dutta   : EOM-CC, STEOM-CC
   Dmitry Ganyushin       : Spin-Orbit,Spin-Spin,Magnetic field MRCI
   Miquel Garcia          : C-PCM Hessian, Gaussian charge scheme
   Yang Guo               : DLPNO-NEVPT2, CIM, IAO-localization
   Andreas Hansen         : Spin unrestricted coupled pair/coupled cluster methods
   Benjamin Helmich-Paris : CASSCF linear response (MC-RPA)
   Lee Huntington         : MR-EOM, pCC
   Robert Izsak           : Overlap fitted RIJCOSX, COSX-SCS-MP3, EOM
   Christian Kollmar      : KDIIS, OOCD, Brueckner-CCSD(T), CCSD density
   Simone Kossmann        : Meta GGA functionals, TD-DFT gradient, OOMP2, MP2 Hessian
   Martin Krupicka        : AUTO-CI
   Lucas Lang             : DCDCAS
   Dagmar Lenk            : GEPOL surface, SMD
   Dimitrios Liakos       : Extrapolation schemes; Compound Job, initial MDCI parallelization
   Dimitrios Manganas     : Further ROCIS development; embedding schemes
   Dimitrios Pantazis     : SARC Basis sets
   Taras Petrenko         : DFT Hessian,TD-DFT gradient, ASA, ECA, R-Raman, ABS, FL, XAS/XES, NRVS
   Peter Pinski           : DLPNO-MP2, DLPNO-MP2 Gradient
   Christoph Reimann      : Effective Core Potentials
   Marius Retegan         : Local ZFS, SOC
   Christoph Riplinger    : Optimizer, TS searches, QM/MM, DLPNO-CCSD(T), (RO)-DLPNO pert. Triples
   Tobias Risthaus        : Range-separated hybrids, TD-DFT gradient, RPA, STAB
   Michael Roemelt        : Original ROCIS implementation
   Masaaki Saitow         : Open-shell DLPNO-CCSD energy and density
   Barbara Sandhoefer     : DKH picture change effects
   Avijit Sen             : IP-ROCIS
   Kantharuban Sivalingam : CASSCF convergence, NEVPT2, FIC-MRCI
   Bernardo de Souza      : ESD, SOC TD-DFT
   Georgi Stoychev        : AutoAux, RI-MP2 NMR
   Willem Van den Heuvel  : Paramagnetic NMR
   Boris Wezisla          : Elementary symmetry handling
   Frank Wennmohs         : Technical directorship


 We gratefully acknowledge several colleagues who have allowed us to
 interface, adapt or use parts of their codes:
   Stefan Grimme, W. Hujo, H. Kruse,             : VdW corrections, initial TS optimization,
                  C. Bannwarth                     DFT functionals, gCP, sTDA/sTD-DF
   Ed Valeev, F. Pavosevic, A. Kumar             : LibInt (2-el integral package), F12 methods
   Garnet Chan, S. Sharma, J. Yang, R. Olivares  : DMRG
   Ulf Ekstrom                                   : XCFun DFT Library
   Mihaly Kallay                                 : mrcc  (arbitrary order and MRCC methods)
   Andreas Klamt, Michael Diedenhofen            : otool_cosmo (COSMO solvation model)
   Jiri Pittner, Ondrej Demel                    : Mk-CCSD
   Frank Weinhold                                : gennbo (NPA and NBO analysis)
   Christopher J. Cramer and Donald G. Truhlar   : smd solvation model
   Lars Goerigk                                  : TD-DFT with DH, B97 family of functionals
   V. Asgeirsson, H. Jonsson                     : NEB implementation
   FAccTs GmbH                                   : IRC, NEB, NEB-TS, Multilevel, MM, QM/MM, CI optimization
   S Lehtola, MJT Oliveira, MAL Marques          : LibXC Library


 Your calculation uses the libint2 library for the computation of 2-el integrals
 For citations please refer to: http://libint.valeyev.net

 Your ORCA version has been built with support for libXC version: 4.2.3
 For citations please refer to: https://tddft.org/programs/libxc/

 This ORCA versions uses:
   CBLAS   interface :  Fast vector & matrix operations
   LAPACKE interface :  Fast linear algebra routines
   SCALAPACK package :  Parallel linear algebra routines


XCFun DFT library Copyright 2009-2010 Ulf Ekstrom and contributors.
See http://admol.org/xcfun for more information. This is free soft-
ware; see the source code for copying conditions. There is ABSOLUTELY
NO WARRANTY; not even for MERCHANTABILITY or FITNESS FOR A PARTICULAR
PURPOSE. For details see the documentation. Scientific users of this 
library should cite U. Ekstrom, L. Visscher, R. Bast, A. J. Thorvald-
sen and K. Ruud; J.Chem.Theor.Comp. 2010, DOI: 10.1021/ct100117s
XCFun Version 0.99 
----- Orbital basis set information -----
Your calculation utilizes the basis: def2-SVP
   F. Weigend and R. Ahlrichs, Phys. Chem. Chem. Phys. 7, 3297 (2005).

----- AuxJ basis set information -----
Your calculation utilizes the auxiliary basis: def2/J
   F. Weigend, Phys. Chem. Chem. Phys. 8, 1057 (2006).

================================================================================
                                        WARNINGS
                       Please study these warnings very carefully!
================================================================================

INFO   : Checking CIS options ...

WARNING: CIS/ROCIS methods need fully converged wavefunctions
  ===> : Setting SCFConvForced true
         You can overwrite this default with %scf ConvForced false 


INFO   : the flag for use of LIBINT has been found!

================================================================================
                                       INPUT FILE
================================================================================
NAME = Y14.inp
|  1> # ORCA input file
|  2> # Y14.out: Geometry 33
|  3> ! CAM-B3LYP def2-SVP def2/J RIJCOSX Grid4 TightSCF
|  4> %maxcore 5000
|  5> %tddft
|  6>     Mode sTDDFT
|  7>     Ethresh 5.0
|  8>     maxcore 5000
|  9> end
| 10> * xyz 0 1
| 11>    C        0.07812        -2.84523        -1.00073
| 12>    O       -0.56363        -3.85769        -1.22758
| 13>    C        1.38276        -2.49451        -1.62240
| 14>    C        2.12213        -3.25056        -2.52124
| 15>    C        3.33128        -2.70508        -2.95162
| 16>    C        3.78017        -1.45624        -2.51274
| 17>    C        3.02096        -0.71008        -1.60707
| 18>    C        1.80550        -1.23773        -1.14603
| 19>    C        0.79889        -0.73226        -0.17850
| 20>    C        0.88930         0.48523         0.48011
| 21>    C        1.94407         1.42115         0.24694
| 22>    N        2.78039         2.20796         0.06610
| 23>    C       -0.06363         0.94412         1.44153
| 24>    N       -0.82014         1.33971         2.23168
| 25>    C       -0.26062        -1.73911        -0.07902
| 26>    C       -1.38018        -1.66747         0.73314
| 27>    C       -2.50063        -2.49819         0.95498
| 28>    S       -2.85244        -4.04066         0.12953
| 29>    C       -4.31234        -4.21328         1.03787
| 30>    C       -4.51208        -3.14573         1.93927
| 31>    C       -3.50999        -2.16532         1.90319
| 32>    C       -3.53199        -0.96437         2.80951
| 33>    C       -3.24191        -1.33473         4.27277
| 34>    S       -5.98352        -3.31577         2.90743
| 35>    C       -6.31432        -4.82657         2.09351
| 36>    C       -5.35061        -5.16393         1.13246
| 37>    N       -5.70635        -6.33791         0.49451
| 38>    C       -5.12083        -6.64501        -0.80831
| 39>    C       -6.04890        -6.43438        -2.01688
| 40>    C       -6.90962        -6.78179         1.06056
| 41>    C       -7.30969        -5.82338         2.05406
| 42>    C       -8.57264        -5.95103         2.69815
| 43>    N       -9.18257        -5.17305         3.60441
| 44>    N      -10.35693        -5.76987         3.77858
| 45>    C      -11.39502        -5.16722         4.60294
| 46>    C      -12.32883        -4.28478         3.78008
| 47>    N      -10.58612        -6.86063         3.05639
| 48>    C       -9.45307        -7.01018         2.35182
| 49>    C       -9.03592        -8.01430         1.42874
| 50>    C       -7.74308        -7.92373         0.80693
| 51>    N       -7.55921        -9.07121         0.02090
| 52>    C       -6.31514        -9.67833        -0.44393
| 53>    C       -5.34338       -10.14282         0.65542
| 54>    C       -8.70172        -9.84201         0.12915
| 55>    C       -9.62419        -9.21681         0.98037
| 56>    S      -11.08889       -10.14113         1.20905
| 57>    C      -10.45181       -11.39272         0.13553
| 58>    C       -9.17647       -11.07402        -0.37506
| 59>    S       -8.64020       -12.26963        -1.49901
| 60>    C      -10.12409       -13.22101        -1.26026
| 61>    C      -10.99934       -12.60571        -0.34343
| 62>    C      -12.39473       -13.05434        -0.00478
| 63>    C      -12.61286       -13.32704         1.49097
| 64>    C      -10.29040       -14.32870        -2.14188
| 65>    C      -11.04420       -15.47960        -2.10681
| 66>    C      -11.71079       -16.23985        -1.06054
| 67>    C      -11.36624       -16.25981         0.27947
| 68>    C      -12.06790       -17.05043         1.23953
| 69>    N      -12.65954       -17.67166         2.02378
| 70>    C      -10.22393       -15.56312         0.77533
| 71>    N       -9.28614       -15.01712         1.19128
| 72>    C      -12.64590       -17.18335        -1.72055
| 73>    C      -13.63219       -18.04202        -1.21557
| 74>    C      -14.32418       -18.87185        -2.10319
| 75>    C      -14.01906       -18.85638        -3.46910
| 76>    C      -13.04406       -18.01100        -3.99912
| 77>    C      -12.38348       -17.17833        -3.10742
| 78>    C      -11.33527       -16.16472        -3.41241
| 79>    O      -10.85264       -15.91878        -4.49821
| 80>    F      -14.68573       -19.67434        -4.28728
| 81>    F        4.09185        -3.39544        -3.80503
| 82>    C       -5.95523       -11.20484         1.59872
| 83>    C       -6.70404       -10.65452         2.81469
| 84>    C       -4.07457       -10.66585        -0.03114
| 85>    C       -6.56152        -4.98295        -2.17040
| 86>    C       -7.78484        -4.59639        -1.33764
| 87>    C       -5.28575        -6.86438        -3.27589
| 88>    H        1.77582        -4.22240        -2.87450
| 89>    H        4.73005        -1.07804        -2.89382
| 90>    H        3.39590         0.25450        -1.27494
| 91>    H       -1.43351        -0.77807         1.35540
| 92>    H       -4.53652        -0.51153         2.74212
| 93>    H       -2.82688        -0.18949         2.48270
| 94>    H       -3.95482        -2.08432         4.64714
| 95>    H       -3.31472        -0.44267         4.91230
| 96>    H       -2.22991        -1.75605         4.37734
| 97>    H       -4.70734        -7.65994        -0.80146
| 98>    H       -4.25085        -5.98459        -0.91942
| 99>    H       -6.92604        -7.09446        -1.89384
|100>    H      -10.87108        -4.58793         5.37480
|101>    H      -11.94014        -5.99057         5.08516
|102>    H      -11.75632        -3.50116         3.26175
|103>    H      -13.06868        -3.80004         4.43534
|104>    H      -12.86518        -4.88364         3.02881
|105>    H       -5.81363        -9.00165        -1.13973
|106>    H       -6.60397       -10.54919        -1.04825
|107>    H       -5.06508        -9.25845         1.25649
|108>    H      -12.66080       -13.93707        -0.59730
|109>    H      -13.08483       -12.25303        -0.32506
|110>    H      -13.63667       -13.68796         1.67180
|111>    H      -12.46379       -12.41480         2.08747
|112>    H      -11.91269       -14.07740         1.87690
|113>    H       -9.76520       -14.22493        -3.10205
|114>    H      -13.87988       -18.07433        -0.15577
|115>    H      -15.10394       -19.54690        -1.74606
|116>    H      -12.80578       -18.00598        -5.06417
|117>    H       -5.13865       -11.85036         1.96323
|118>    H       -6.61532       -11.87188         1.01704
|119>    H       -6.02672       -10.07248         3.46087
|120>    H       -7.11875       -11.47659         3.41834
|121>    H       -7.54151        -9.99987         2.54022
|122>    H       -4.29688       -11.54759        -0.65501
|123>    H       -3.32337       -10.96707         0.71372
|124>    H       -3.61404        -9.90425        -0.68187
|125>    H       -6.81968        -4.83970        -3.23371
|126>    H       -5.72912        -4.28445        -1.97232
|127>    H       -8.59622        -5.33225        -1.46461
|128>    H       -8.17352        -3.61891        -1.66401
|129>    H       -7.57092        -4.51891        -0.26381
|130>    H       -4.43519        -6.18920        -3.46322
|131>    H       -5.94011        -6.83055        -4.15947
|132>    H       -4.88373        -7.88753        -3.19336
|133> *
|134> 
|135>                          ****END OF INPUT****
================================================================================

                       ****************************
                       * Single Point Calculation *
                       ****************************

---------------------------------
CARTESIAN COORDINATES (ANGSTROEM)
---------------------------------
  C      0.078120   -2.845230   -1.000730
  O     -0.563630   -3.857690   -1.227580
  C      1.382760   -2.494510   -1.622400
  C      2.122130   -3.250560   -2.521240
  C      3.331280   -2.705080   -2.951620
  C      3.780170   -1.456240   -2.512740
  C      3.020960   -0.710080   -1.607070
  C      1.805500   -1.237730   -1.146030
  C      0.798890   -0.732260   -0.178500
  C      0.889300    0.485230    0.480110
  C      1.944070    1.421150    0.246940
  N      2.780390    2.207960    0.066100
  C     -0.063630    0.944120    1.441530
  N     -0.820140    1.339710    2.231680
  C     -0.260620   -1.739110   -0.079020
  C     -1.380180   -1.667470    0.733140
  C     -2.500630   -2.498190    0.954980
  S     -2.852440   -4.040660    0.129530
  C     -4.312340   -4.213280    1.037870
  C     -4.512080   -3.145730    1.939270
  C     -3.509990   -2.165320    1.903190
  C     -3.531990   -0.964370    2.809510
  C     -3.241910   -1.334730    4.272770
  S     -5.983520   -3.315770    2.907430
  C     -6.314320   -4.826570    2.093510
  C     -5.350610   -5.163930    1.132460
  N     -5.706350   -6.337910    0.494510
  C     -5.120830   -6.645010   -0.808310
  C     -6.048900   -6.434380   -2.016880
  C     -6.909620   -6.781790    1.060560
  C     -7.309690   -5.823380    2.054060
  C     -8.572640   -5.951030    2.698150
  N     -9.182570   -5.173050    3.604410
  N    -10.356930   -5.769870    3.778580
  C    -11.395020   -5.167220    4.602940
  C    -12.328830   -4.284780    3.780080
  N    -10.586120   -6.860630    3.056390
  C     -9.453070   -7.010180    2.351820
  C     -9.035920   -8.014300    1.428740
  C     -7.743080   -7.923730    0.806930
  N     -7.559210   -9.071210    0.020900
  C     -6.315140   -9.678330   -0.443930
  C     -5.343380  -10.142820    0.655420
  C     -8.701720   -9.842010    0.129150
  C     -9.624190   -9.216810    0.980370
  S    -11.088890  -10.141130    1.209050
  C    -10.451810  -11.392720    0.135530
  C     -9.176470  -11.074020   -0.375060
  S     -8.640200  -12.269630   -1.499010
  C    -10.124090  -13.221010   -1.260260
  C    -10.999340  -12.605710   -0.343430
  C    -12.394730  -13.054340   -0.004780
  C    -12.612860  -13.327040    1.490970
  C    -10.290400  -14.328700   -2.141880
  C    -11.044200  -15.479600   -2.106810
  C    -11.710790  -16.239850   -1.060540
  C    -11.366240  -16.259810    0.279470
  C    -12.067900  -17.050430    1.239530
  N    -12.659540  -17.671660    2.023780
  C    -10.223930  -15.563120    0.775330
  N     -9.286140  -15.017120    1.191280
  C    -12.645900  -17.183350   -1.720550
  C    -13.632190  -18.042020   -1.215570
  C    -14.324180  -18.871850   -2.103190
  C    -14.019060  -18.856380   -3.469100
  C    -13.044060  -18.011000   -3.999120
  C    -12.383480  -17.178330   -3.107420
  C    -11.335270  -16.164720   -3.412410
  O    -10.852640  -15.918780   -4.498210
  F    -14.685730  -19.674340   -4.287280
  F      4.091850   -3.395440   -3.805030
  C     -5.955230  -11.204840    1.598720
  C     -6.704040  -10.654520    2.814690
  C     -4.074570  -10.665850   -0.031140
  C     -6.561520   -4.982950   -2.170400
  C     -7.784840   -4.596390   -1.337640
  C     -5.285750   -6.864380   -3.275890
  H      1.775820   -4.222400   -2.874500
  H      4.730050   -1.078040   -2.893820
  H      3.395900    0.254500   -1.274940
  H     -1.433510   -0.778070    1.355400
  H     -4.536520   -0.511530    2.742120
  H     -2.826880   -0.189490    2.482700
  H     -3.954820   -2.084320    4.647140
  H     -3.314720   -0.442670    4.912300
  H     -2.229910   -1.756050    4.377340
  H     -4.707340   -7.659940   -0.801460
  H     -4.250850   -5.984590   -0.919420
  H     -6.926040   -7.094460   -1.893840
  H    -10.871080   -4.587930    5.374800
  H    -11.940140   -5.990570    5.085160
  H    -11.756320   -3.501160    3.261750
  H    -13.068680   -3.800040    4.435340
  H    -12.865180   -4.883640    3.028810
  H     -5.813630   -9.001650   -1.139730
  H     -6.603970  -10.549190   -1.048250
  H     -5.065080   -9.258450    1.256490
  H    -12.660800  -13.937070   -0.597300
  H    -13.084830  -12.253030   -0.325060
  H    -13.636670  -13.687960    1.671800
  H    -12.463790  -12.414800    2.087470
  H    -11.912690  -14.077400    1.876900
  H     -9.765200  -14.224930   -3.102050
  H    -13.879880  -18.074330   -0.155770
  H    -15.103940  -19.546900   -1.746060
  H    -12.805780  -18.005980   -5.064170
  H     -5.138650  -11.850360    1.963230
  H     -6.615320  -11.871880    1.017040
  H     -6.026720  -10.072480    3.460870
  H     -7.118750  -11.476590    3.418340
  H     -7.541510   -9.999870    2.540220
  H     -4.296880  -11.547590   -0.655010
  H     -3.323370  -10.967070    0.713720
  H     -3.614040   -9.904250   -0.681870
  H     -6.819680   -4.839700   -3.233710
  H     -5.729120   -4.284450   -1.972320
  H     -8.596220   -5.332250   -1.464610
  H     -8.173520   -3.618910   -1.664010
  H     -7.570920   -4.518910   -0.263810
  H     -4.435190   -6.189200   -3.463220
  H     -5.940110   -6.830550   -4.159470
  H     -4.883730   -7.887530   -3.193360

----------------------------
CARTESIAN COORDINATES (A.U.)
----------------------------
  NO LB      ZA    FRAG     MASS         X           Y           Z
   0 C     6.0000    0    12.011    0.147625   -5.376705   -1.891106
   1 O     8.0000    0    15.999   -1.065106   -7.289978   -2.319790
   2 C     6.0000    0    12.011    2.613038   -4.713941   -3.065892
   3 C     6.0000    0    12.011    4.010245   -6.142668   -4.764453
   4 C     6.0000    0    12.011    6.295207   -5.111860   -5.577753
   5 C     6.0000    0    12.011    7.143486   -2.751895   -4.748390
   6 C     6.0000    0    12.011    5.708787   -1.341857   -3.036922
   7 C     6.0000    0    12.011    3.411901   -2.338971   -2.165683
   8 C     6.0000    0    12.011    1.509683   -1.383771   -0.337316
   9 C     6.0000    0    12.011    1.680533    0.916952    0.907276
  10 C     6.0000    0    12.011    3.673760    2.685584    0.466649
  11 N     7.0000    0    14.007    5.254176    4.172440    0.124911
  12 C     6.0000    0    12.011   -0.120243    1.784128    2.724097
  13 N     7.0000    0    14.007   -1.549840    2.531685    4.217264
  14 C     6.0000    0    12.011   -0.492500   -3.286442   -0.149326
  15 C     6.0000    0    12.011   -2.608162   -3.151062    1.385434
  16 C     6.0000    0    12.011   -4.725506   -4.720895    1.804651
  17 S    16.0000    0    32.060   -5.390330   -7.635741    0.244776
  18 C     6.0000    0    12.011   -8.149142   -7.961945    1.961290
  19 C     6.0000    0    12.011   -8.526595   -5.944568    3.664689
  20 C     6.0000    0    12.011   -6.632920   -4.091862    3.596508
  21 C     6.0000    0    12.011   -6.674494   -1.822395    5.309204
  22 C     6.0000    0    12.011   -6.126322   -2.522274    8.074365
  23 S    16.0000    0    32.060  -11.307214   -6.265897    5.494246
  24 C     6.0000    0    12.011  -11.932336   -9.120895    3.956161
  25 C     6.0000    0    12.011  -10.111188   -9.758413    2.140039
  26 N     7.0000    0    14.007  -10.783439  -11.976914    0.934488
  27 C     6.0000    0    12.011   -9.676966  -12.557249   -1.527485
  28 C     6.0000    0    12.011  -11.430764  -12.159216   -3.811351
  29 C     6.0000    0    12.011  -13.057289  -12.815726    2.004168
  30 C     6.0000    0    12.011  -13.813312  -11.004593    3.881611
  31 C     6.0000    0    12.011  -16.199942  -11.245817    5.098765
  32 N     7.0000    0    14.007  -17.352543   -9.775648    6.811348
  33 N     7.0000    0    14.007  -19.571761  -10.903474    7.140481
  34 C     6.0000    0    12.011  -21.533467   -9.764631    8.698296
  35 C     6.0000    0    12.011  -23.298112   -8.097061    7.143316
  36 N     7.0000    0    14.007  -20.004868  -12.964712    5.775740
  37 C     6.0000    0    12.011  -17.863713  -13.247320    4.444296
  38 C     6.0000    0    12.011  -17.075414  -15.144832    2.699927
  39 C     6.0000    0    12.011  -14.632301  -14.973680    1.524877
  40 N     7.0000    0    14.007  -14.284837  -17.142103    0.039495
  41 C     6.0000    0    12.011  -11.933885  -18.289393   -0.838906
  42 C     6.0000    0    12.011  -10.097525  -19.167152    1.238564
  43 C     6.0000    0    12.011  -16.443868  -18.598704    0.244058
  44 C     6.0000    0    12.011  -18.187083  -17.417247    1.852631
  45 S    16.0000    0    32.060  -20.954965  -19.163958    2.284773
  46 C     6.0000    0    12.011  -19.751059  -21.529121    0.256115
  47 C     6.0000    0    12.011  -17.341015  -20.926865   -0.708761
  48 S    16.0000    0    32.060  -16.327612  -23.186240   -2.832718
  49 C     6.0000    0    12.011  -19.131757  -24.984088   -2.381546
  50 C     6.0000    0    12.011  -20.785740  -23.821340   -0.648989
  51 C     6.0000    0    12.011  -23.422645  -24.669127   -0.009033
  52 C     6.0000    0    12.011  -23.834851  -25.184456    2.817525
  53 C     6.0000    0    12.011  -19.446038  -27.077319   -4.047567
  54 C     6.0000    0    12.011  -20.870513  -29.252205   -3.981294
  55 C     6.0000    0    12.011  -22.130186  -30.688869   -2.004130
  56 C     6.0000    0    12.011  -21.479081  -30.726588    0.528122
  57 C     6.0000    0    12.011  -22.805026  -32.220643    2.342372
  58 N     7.0000    0    14.007  -23.923064  -33.394598    3.824390
  59 C     6.0000    0    12.011  -19.320428  -29.410035    1.465161
  60 N     7.0000    0    14.007  -17.548261  -28.378244    2.251193
  61 C     6.0000    0    12.011  -23.897288  -32.471826   -3.251368
  62 C     6.0000    0    12.011  -25.761106  -34.094477   -2.297094
  63 C     6.0000    0    12.011  -27.068777  -35.662628   -3.974453
  64 C     6.0000    0    12.011  -26.492184  -35.633394   -6.555649
  65 C     6.0000    0    12.011  -24.649701  -34.035857   -7.557242
  66 C     6.0000    0    12.011  -23.401386  -32.462339   -5.872173
  67 C     6.0000    0    12.011  -21.420556  -30.546894   -6.448520
  68 O     8.0000    0    15.999  -20.508517  -30.082135   -8.500385
  69 F     9.0000    0    18.998  -27.752008  -37.179114   -8.101785
  70 F     9.0000    0    18.998    7.732476   -6.416452   -7.190465
  71 C     6.0000    0    12.011  -11.253754  -21.174079    3.021143
  72 C     6.0000    0    12.011  -12.668800  -20.134125    5.318993
  73 C     6.0000    0    12.011   -7.699821  -20.155535   -0.058846
  74 C     6.0000    0    12.011  -12.399476   -9.416411   -4.101462
  75 C     6.0000    0    12.011  -14.711216   -8.685918   -2.527773
  76 C     6.0000    0    12.011   -9.988620  -12.971798   -6.190535
  77 H     1.0000    0     1.008    3.355813   -7.979180   -5.432018
  78 H     1.0000    0     1.008    8.938499   -2.037200   -5.468527
  79 H     1.0000    0     1.008    6.417321    0.480935   -2.409287
  80 H     1.0000    0     1.008   -2.708941   -1.470339    2.561335
  81 H     1.0000    0     1.008   -8.572780   -0.966652    5.181856
  82 H     1.0000    0     1.008   -5.342029   -0.358084    4.691623
  83 H     1.0000    0     1.008   -7.473527   -3.938794    8.781822
  84 H     1.0000    0     1.008   -6.263913   -0.836525    9.282902
  85 H     1.0000    0     1.008   -4.213919   -3.318454    8.271974
  86 H     1.0000    0     1.008   -8.895583  -14.475189   -1.514540
  87 H     1.0000    0     1.008   -8.032942  -11.309236   -1.737452
  88 H     1.0000    0     1.008  -13.088319  -13.406586   -3.578839
  89 H     1.0000    0     1.008  -20.543364   -8.669931   10.156900
  90 H     1.0000    0     1.008  -22.563595  -11.320537    9.609560
  91 H     1.0000    0     1.008  -22.216225   -6.616234    6.163814
  92 H     1.0000    0     1.008  -24.696226   -7.181035    8.381578
  93 H     1.0000    0     1.008  -24.311667   -9.228742    5.723621
  94 H     1.0000    0     1.008  -10.986169  -17.010653   -2.153778
  95 H     1.0000    0     1.008  -12.479695  -19.935080   -1.980905
  96 H     1.0000    0     1.008   -9.571614  -17.495935    2.374422
  97 H     1.0000    0     1.008  -23.925445  -26.337245   -1.128733
  98 H     1.0000    0     1.008  -24.726745  -23.154871   -0.614274
  99 H     1.0000    0     1.008  -25.769572  -25.866496    3.159244
 100 H     1.0000    0     1.008  -23.553150  -23.460572    3.944747
 101 H     1.0000    0     1.008  -22.511722  -26.602431    3.546827
 102 H     1.0000    0     1.008  -18.453554  -26.881222   -5.862025
 103 H     1.0000    0     1.008  -26.229172  -34.155534   -0.294363
 104 H     1.0000    0     1.008  -28.542310  -36.938288   -3.299575
 105 H     1.0000    0     1.008  -24.199417  -34.026371   -9.569894
 106 H     1.0000    0     1.008   -9.710641  -22.393935    3.709967
 107 H     1.0000    0     1.008  -12.501143  -22.434602    1.921927
 108 H     1.0000    0     1.008  -11.388850  -19.034229    6.540096
 109 H     1.0000    0     1.008  -13.452488  -21.687612    6.459726
 110 H     1.0000    0     1.008  -14.251389  -18.897016    4.800320
 111 H     1.0000    0     1.008   -8.119926  -21.821783   -1.237790
 112 H     1.0000    0     1.008   -6.280259  -20.724759    1.348735
 113 H     1.0000    0     1.008   -6.829546  -18.716320   -1.288548
 114 H     1.0000    0     1.008  -12.887328   -9.145708   -6.110826
 115 H     1.0000    0     1.008  -10.826468   -8.096437   -3.727145
 116 H     1.0000    0     1.008  -16.244502  -10.076492   -2.767712
 117 H     1.0000    0     1.008  -15.445714   -6.838749   -3.144523
 118 H     1.0000    0     1.008  -14.306965   -8.539502   -0.498529
 119 H     1.0000    0     1.008   -8.381294  -11.695893   -6.544537
 120 H     1.0000    0     1.008  -11.225181  -12.907869   -7.860259
 121 H     1.0000    0     1.008   -9.228912  -14.905272   -6.034576

--------------------------------
INTERNAL COORDINATES (ANGSTROEM)
--------------------------------
 C      0   0   0     0.000000000000     0.00000000     0.00000000
 O      1   0   0     1.219991490380     0.00000000     0.00000000
 C      1   2   0     1.487132689742   125.41291250     0.00000000
 C      3   1   2     1.387873533504   127.56221380   357.72346273
 C      4   3   1     1.394567709830   116.65998795   180.68663859
 C      5   4   3     1.397755068708   122.07471711   359.56615633
 C      6   5   4     1.397638264573   120.39822660     0.45750907
 C      7   6   5     1.402966648107   118.86625485     0.14334865
 C      8   7   6     1.484883131395   132.32995487   178.22909884
 C      9   8   7     1.387163653034   124.32979214     1.46372593
 C     10   9   8     1.429284523179   123.04954604     3.02194681
 N     11  10   9     1.162413103892   178.29433920   151.80376320
 C     10   9   8     1.429329924615   123.89620811   182.06026183
 N     13  10   9     1.163243676407   178.51340568   168.42068216
 C      9   8   7     1.464993048789   107.49150468   181.14313278
 C     15   9   8     1.384973194253   126.07842624   178.89238847
 C     16  15   9     1.412344471614   134.66646925   178.78269890
 S     17  16  15     1.784475183212   126.31075663   358.38502270
 C     18  17  16     1.728058803976    90.55889311   180.37756260
 C     19  18  17     1.411411006794   112.31532617   359.44304081
 C     20  19  18     1.402387215643   114.28183228     0.83676390
 C     21  20  19     1.504719523665   122.14233134   181.26159529
 C     22  21  20     1.537023995779   112.23076854    70.67513090
 S     20  19  18     1.769571434218   113.22926100   181.23968261
 C     24  20  19     1.747687342290    89.17821523     0.18452479
 C     25  24  20     1.402200355227   113.39623765   359.60644636
 N     26  25  24     1.382664164033   110.10150074   182.44914469
 C     27  26  25     1.460987348611   119.13072069   159.80974938
 C     28  27  26     1.538284878265   115.46961609   255.89984403
 C     27  26  25     1.401891846684   107.66043640   359.19019090
 C     25  24  20     1.409236642832   139.30518055   183.35126221
 C     31  25  24     1.423442711562   132.64443363     3.11731718
 N     32  31  25     1.341109493255   131.09165692   356.40315105
 N     33  32  31     1.328777901269   103.29503149   177.19689779
 C     34  33  32     1.456154964350   121.22294580   186.01396206
 C     35  34  33     1.525712964256   111.73862763    91.33168007
 N     34  33  32     1.328097823882   116.75164441   359.08829720
 C     37  34  33     1.342604331104   103.36831993     0.84293957
 C     38  37  34     1.426305641614   131.67196145   177.30611651
 C     30  27  26     1.436318457759   132.72622462   179.95371788
 N     40  30  27     1.402983138958   132.30990779     9.06694935
 C     41  40  30     1.460264287107   129.05293310    22.19988470
 C     42  41  40     1.539038297184   115.85064822    60.38838061
 C     41  40  30     1.382454267815   107.68840786   180.75408956
 C     44  41  40     1.402284361069   110.03565210   359.66818075
 S     45  44  41     1.746999740927   113.27225529   181.41985725
 C     46  45  44     1.767708585967    89.59639080   359.86136750
 C     47  46  45     1.410235424920   112.69304837   359.13202084
 S     48  47  46     1.726363920933   111.10813380   183.84029570
 C     49  48  47     1.778779075377    91.36909062   358.99729574
 C     50  49  48     1.408983286416   111.83781692     0.55394035
 C     51  50  49     1.504349012530   126.33102646   173.59900275
 C     52  51  50     1.535973323141   113.82183659   123.34151711
 C     50  49  48     1.425443782336   115.46372491   172.23758653
 C     54  50  49     1.376232231457   134.26638771   159.99470292
 C     55  54  50     1.454992509775   134.92817707   340.59644713
 C     56  55  54     1.383741270686   126.14455622   334.53664930
 C     57  56  55     1.427978271403   122.45996673   180.78417938
 N     58  57  56     1.162330703802   178.49975864   275.61589044
 C     57  56  55     1.426928951210   121.92504338   356.21682464
 N     60  57  56     1.162144778674   178.73301285   229.94697928
 C     56  55  54     1.483319305544   107.53043777   165.35052382
 C     62  56  55     1.401815584662   132.28997989   187.86519102
 C     63  62  56     1.398333741780   118.88295891   182.94924020
 C     64  63  62     1.399659838461   120.33304239     0.97115111
 C     65  64  63     1.395067577145   121.99303382   358.91042550
 C     66  65  64     1.387383924983   116.88952486     0.00000000
 C     67  66  65     1.489687328368   127.72049778   181.70829278
 O     68  67  66     1.213416598082   126.94030447   357.87908550
 F     65  64  63     1.335262507112   118.83975716   179.08792394
 F      5   4   3     1.335429624728   119.26318573   179.24209121
 C     43  42  41     1.546629171101   113.14854361    59.73111517
 C     72  43  42     1.530408951686   115.54624451   271.34315858
 C     43  42  41     1.534537008547   107.77929209   183.44385422
 C     29  28  27     1.546931381704   113.97687419    59.69242335
 C     75  29  28     1.529519425702   116.62416478   276.51835119
 C     29  28  27     1.533754903040   107.83906274   182.47606818
 H      4   3   1     1.090502741537   121.74191713     0.71947444
 H      6   5   4     1.091113752457   118.65978932   180.65069652
 H      7   6   5     1.086878519845   118.97484542   179.50329710
 H     16  15   9     1.086776866013   114.69337805   358.64083161
 H     22  21  20     1.103941120984   107.69366478   310.46946930
 H     22  21  20     1.097462483459   112.01010313   194.21421963
 H     23  22  21     1.100126689568   111.45969768   302.88760587
 H     23  22  21     1.100032254345   110.21706940   182.76814892
 H     23  22  21     1.101176383374   110.85734706    62.73155222
 H     28  27  26     1.095948816095   109.89477599   129.34015306
 H     28  27  26     1.097891255498   106.34247469    16.20802473
 H     29  28  27     1.104635246405   108.04315366   299.68762761
 H     35  34  33     1.098115607438   106.02800788   329.69669318
 H     35  34  33     1.098907259645   106.97631890   213.61801428
 H     36  35  34     1.100224519541   110.33711092   302.78460039
 H     36  35  34     1.100779976971   110.18279252   183.05473866
 H     36  35  34     1.100323241143   110.59698063    63.01283212
 H     42  41  40     1.092495191065   109.65184778   294.34617255
 H     42  41  40     1.098645789552   106.30076434   181.17130742
 H     43  42  41     1.104919151703   107.82149143   299.72426554
 H     52  51  50     1.095940440079   110.10184563   358.74124433
 H     52  51  50     1.104950227160   107.32521720   243.79360576
 H     53  52  51     1.100522444751   110.50875349   182.18456113
 H     53  52  51     1.100098146758   111.19583975    62.26332700
 H     53  52  51     1.096457989802   111.93630095   302.81648201
 H     54  50  49     1.099331470395   114.27419038   334.52447953
 H     63  62  56     1.088838974413   121.92799211     3.50292145
 H     64  63  62     1.091448577350   120.85606920   180.50286956
 H     66  65  64     1.091390883827   121.74425665   179.67715522
 H     72  43  42     1.102890070179   108.09409601   150.15870578
 H     72  43  42     1.104089123260   109.27139570    36.10880167
 H     73  72  43     1.102307369294   110.79277155   298.40237935
 H     73  72  43     1.100989006076   110.57520570   179.04780528
 H     73  72  43     1.097841702751   112.89408685    59.01197081
 H     74  43  42     1.102769667972   111.03578575   296.72454332
 H     74  43  42     1.099932428834   110.79657419   177.25453039
 H     74  43  42     1.102529806309   111.96216187    57.03525049
 H     75  29  28     1.103537631529   107.15406216   155.75840906
 H     75  29  28     1.104548639219   109.01504242    42.05910337
 H     76  75  29     1.102700695973   110.92591979   309.48202228
 H     76  75  29     1.101388518961   110.19489519   190.72356694
 H     76  75  29     1.097668340484   113.24120742    70.64210462
 H     77  29  28     1.102004026717   110.59795818   293.54716688
 H     77  29  28     1.100020497491   110.77789303   174.22872394
 H     77  29  28     1.102391583694   112.34637867    53.60603449

---------------------------
INTERNAL COORDINATES (A.U.)
---------------------------
 C      0   0   0     0.000000000000     0.00000000     0.00000000
 O      1   0   0     2.305449802533     0.00000000     0.00000000
 C      1   2   0     2.810273508415   125.41291250     0.00000000
 C      3   1   2     2.622700886840   127.56221380   357.72346273
 C      4   3   1     2.635351046788   116.65998795   180.68663859
 C      5   4   3     2.641374282159   122.07471711   359.56615633
 C      6   5   4     2.641153554333   120.39822660     0.45750907
 C      7   6   5     2.651222739947   118.86625485     0.14334865
 C      8   7   6     2.806022459215   132.32995487   178.22909884
 C      9   8   7     2.621359407165   124.32979214     1.46372593
 C     10   9   8     2.700956316261   123.04954604     3.02194681
 N     11  10   9     2.196642420837   178.29433920   151.80376320
 C     10   9   8     2.701042112541   123.89620811   182.06026183
 N     13  10   9     2.198211975424   178.51340568   168.42068216
 C      9   8   7     2.768435650309   107.49150468   181.14313278
 C     15   9   8     2.617220039961   126.07842624   178.89238847
 C     16  15   9     2.668944258109   134.66646925   178.78269890
 S     17  16  15     3.372169389050   126.31075663   358.38502270
 C     18  17  16     3.265557882827    90.55889311   180.37756260
 C     19  18  17     2.667180265243   112.31532617   359.44304081
 C     20  19  18     2.650127771278   114.28183228     0.83676390
 C     21  20  19     2.843507808092   122.14233134   181.26159529
 C     22  21  20     2.904554413287   112.23076854    70.67513090
 S     20  19  18     3.344005385082   113.22926100   181.23968261
 C     24  20  19     3.302650444648    89.17821523     0.18452479
 C     25  24  20     2.649774656267   113.39623765   359.60644636
 N     26  25  24     2.612856605209   110.10150074   182.44914469
 C     27  26  25     2.760865973998   119.13072069   159.80974938
 C     28  27  26     2.906937135874   115.46961609   255.89984403
 C     27  26  25     2.649191659611   107.66043640   359.19019090
 C     25  24  20     2.663071312839   139.30518055   183.35126221
 C     31  25  24     2.689916892179   132.64443363     3.11731718
 N     32  31  25     2.534329657855   131.09165692   356.40315105
 N     33  32  31     2.511026326204   103.29503149   177.19689779
 C     34  33  32     2.751734091171   121.22294580   186.01396206
 C     35  34  33     2.883179661418   111.73862763    91.33168007
 N     34  33  32     2.509741166194   116.75164441   359.08829720
 C     37  34  33     2.537154492004   103.36831993     0.84293957
 C     38  37  34     2.695327045917   131.67196145   177.30611651
 C     30  27  26     2.714248526261   132.72622462   179.95371788
 N     40  30  27     2.651253903140   132.30990779     9.06694935
 C     41  40  30     2.759499585778   129.05293310    22.19988470
 C     42  41  40     2.908360891295   115.85064822    60.38838061
 C     41  40  30     2.612459958841   107.68840786   180.75408956
 C     44  41  40     2.649933404302   110.03565210   359.66818075
 S     45  44  41     3.301351066384   113.27225529   181.41985725
 C     46  45  44     3.340485112058    89.59639080   359.86136750
 C     47  46  45     2.664958737453   112.69304837   359.13202084
 S     48  47  46     3.262355018046   111.10813380   183.84029570
 C     49  48  47     3.361405305213    91.36909062   358.99729574
 C     50  49  48     2.662592538599   111.83781692     0.55394035
 C     51  50  49     2.842807643517   126.33102646   173.59900275
 C     52  51  50     2.902568929745   113.82183659   123.34151711
 C     50  49  48     2.693698367916   115.46372491   172.23758653
 C     54  50  49     2.600702014128   134.26638771   159.99470292
 C     55  54  50     2.749537370381   134.92817707   340.59644713
 C     56  55  54     2.614892041801   126.14455622   334.53664930
 C     57  56  55     2.698487858143   122.45996673   180.78417938
 N     58  57  56     2.196486707233   178.49975864   275.61589044
 C     57  56  55     2.696504930350   121.92504338   356.21682464
 N     60  57  56     2.196135359661   178.73301285   229.94697928
 C     56  55  54     2.803067256637   107.53043777   165.35052382
 C     62  56  55     2.649047545273   132.28997989   187.86519102
 C     63  62  56     2.642467815785   118.88295891   182.94924020
 C     64  63  62     2.644973775339   120.33304239     0.97115111
 C     65  64  63     2.636295659116   121.99303382   358.91042550
 C     66  65  64     2.621775660822   116.88952486     0.00000000
 C     67  66  65     2.815101075788   127.72049778   181.70829278
 O     68  67  66     2.293025056729   126.94030447   357.87908550
 F     65  64  63     2.523280455335   118.83975716   179.08792394
 F      5   4   3     2.523596261860   119.26318573   179.24209121
 C     43  42  41     2.922705564114   113.14854361    59.73111517
 C     72  43  42     2.892053791588   115.54624451   271.34315858
 C     43  42  41     2.899854688520   107.77929209   183.44385422
 C     29  28  27     2.923276659389   113.97687419    59.69242335
 C     75  29  28     2.890372831089   116.62416478   276.51835119
 C     29  28  27     2.898376723305   107.83906274   182.47606818
 H      4   3   1     2.060751529795   121.74191713     0.71947444
 H      6   5   4     2.061906173098   118.65978932   180.65069652
 H      7   6   5     2.053902743348   118.97484542   179.50329710
 H     16  15   9     2.053710645445   114.69337805   358.64083161
 H     22  21  20     2.086146386634   107.69366478   310.46946930
 H     22  21  20     2.073903535991   112.01010313   194.21421963
 H     23  22  21     2.078938155901   111.45969768   302.88760587
 H     23  22  21     2.078759699193   110.21706940   182.76814892
 H     23  22  21     2.080921789718   110.85734706    62.73155222
 H     28  27  26     2.071043119215   109.89477599   129.34015306
 H     28  27  26     2.074713797719   106.34247469    16.20802473
 H     29  28  27     2.087458093582   108.04315366   299.68762761
 H     35  34  33     2.075137761443   106.02800788   329.69669318
 H     35  34  33     2.076633767307   106.97631890   213.61801428
 H     36  35  34     2.079123027758   110.33711092   302.78460039
 H     36  35  34     2.080172690179   110.18279252   183.05473866
 H     36  35  34     2.079309584549   110.59698063    63.01283212
 H     42  41  40     2.064516713739   109.65184778   294.34617255
 H     42  41  40     2.076139660439   106.30076434   181.17130742
 H     43  42  41     2.087994596843   107.82149143   299.72426554
 H     52  51  50     2.071027290838   110.10184563   358.74124433
 H     52  51  50     2.088053320946   107.32521720   243.79360576
 H     53  52  51     2.079686024812   110.50875349   182.18456113
 H     53  52  51     2.078884217807   111.19583975    62.26332700
 H     53  52  51     2.072005318075   111.93630095   302.81648201
 H     54  50  49     2.077435409447   114.27419038   334.52447953
 H     63  62  56     2.057607465580   121.92799211     3.50292145
 H     64  63  62     2.062538900450   120.85606920   180.50286956
 H     66  65  64     2.062429875491   121.74425665   179.67715522
 H     72  43  42     2.084160188460   108.09409601   150.15870578
 H     72  43  42     2.086426070402   109.27139570    36.10880167
 H     73  72  43     2.083059043369   110.79277155   298.40237935
 H     73  72  43     2.080567697942   110.57520570   179.04780528
 H     73  72  43     2.074620156598   112.89408685    59.01197081
 H     74  43  42     2.083932661263   111.03578575   296.72454332
 H     74  43  42     2.078571056315   110.79657419   177.25453039
 H     74  43  42     2.083479388409   111.96216187    57.03525049
 H     75  29  28     2.085383902065   107.15406216   155.75840906
 H     75  29  28     2.087294429719   109.01504242    42.05910337
 H     76  75  29     2.083802323074   110.92591979   309.48202228
 H     76  75  29     2.081322667882   110.19489519   190.72356694
 H     76  75  29     2.074292549390   113.24120742    70.64210462
 H     77  29  28     2.082485808973   110.59795818   293.54716688
 H     77  29  28     2.078737481958   110.77789303   174.22872394
 H     77  29  28     2.083218185522   112.34637867    53.60603449

---------------------
BASIS SET INFORMATION
---------------------
There are 6 groups of distinct atoms

 Group   1 Type C   : 7s4p1d contracted to 3s2p1d pattern {511/31/1}
 Group   2 Type O   : 7s4p1d contracted to 3s2p1d pattern {511/31/1}
 Group   3 Type N   : 7s4p1d contracted to 3s2p1d pattern {511/31/1}
 Group   4 Type S   : 10s7p1d contracted to 4s3p1d pattern {5311/511/1}
 Group   5 Type F   : 7s4p1d contracted to 3s2p1d pattern {511/31/1}
 Group   6 Type H   : 4s1p contracted to 2s1p pattern {31/1}

Atom   0C    basis set group =>   1
Atom   1O    basis set group =>   2
Atom   2C    basis set group =>   1
Atom   3C    basis set group =>   1
Atom   4C    basis set group =>   1
Atom   5C    basis set group =>   1
Atom   6C    basis set group =>   1
Atom   7C    basis set group =>   1
Atom   8C    basis set group =>   1
Atom   9C    basis set group =>   1
Atom  10C    basis set group =>   1
Atom  11N    basis set group =>   3
Atom  12C    basis set group =>   1
Atom  13N    basis set group =>   3
Atom  14C    basis set group =>   1
Atom  15C    basis set group =>   1
Atom  16C    basis set group =>   1
Atom  17S    basis set group =>   4
Atom  18C    basis set group =>   1
Atom  19C    basis set group =>   1
Atom  20C    basis set group =>   1
Atom  21C    basis set group =>   1
Atom  22C    basis set group =>   1
Atom  23S    basis set group =>   4
Atom  24C    basis set group =>   1
Atom  25C    basis set group =>   1
Atom  26N    basis set group =>   3
Atom  27C    basis set group =>   1
Atom  28C    basis set group =>   1
Atom  29C    basis set group =>   1
Atom  30C    basis set group =>   1
Atom  31C    basis set group =>   1
Atom  32N    basis set group =>   3
Atom  33N    basis set group =>   3
Atom  34C    basis set group =>   1
Atom  35C    basis set group =>   1
Atom  36N    basis set group =>   3
Atom  37C    basis set group =>   1
Atom  38C    basis set group =>   1
Atom  39C    basis set group =>   1
Atom  40N    basis set group =>   3
Atom  41C    basis set group =>   1
Atom  42C    basis set group =>   1
Atom  43C    basis set group =>   1
Atom  44C    basis set group =>   1
Atom  45S    basis set group =>   4
Atom  46C    basis set group =>   1
Atom  47C    basis set group =>   1
Atom  48S    basis set group =>   4
Atom  49C    basis set group =>   1
Atom  50C    basis set group =>   1
Atom  51C    basis set group =>   1
Atom  52C    basis set group =>   1
Atom  53C    basis set group =>   1
Atom  54C    basis set group =>   1
Atom  55C    basis set group =>   1
Atom  56C    basis set group =>   1
Atom  57C    basis set group =>   1
Atom  58N    basis set group =>   3
Atom  59C    basis set group =>   1
Atom  60N    basis set group =>   3
Atom  61C    basis set group =>   1
Atom  62C    basis set group =>   1
Atom  63C    basis set group =>   1
Atom  64C    basis set group =>   1
Atom  65C    basis set group =>   1
Atom  66C    basis set group =>   1
Atom  67C    basis set group =>   1
Atom  68O    basis set group =>   2
Atom  69F    basis set group =>   5
Atom  70F    basis set group =>   5
Atom  71C    basis set group =>   1
Atom  72C    basis set group =>   1
Atom  73C    basis set group =>   1
Atom  74C    basis set group =>   1
Atom  75C    basis set group =>   1
Atom  76C    basis set group =>   1
Atom  77H    basis set group =>   6
Atom  78H    basis set group =>   6
Atom  79H    basis set group =>   6
Atom  80H    basis set group =>   6
Atom  81H    basis set group =>   6
Atom  82H    basis set group =>   6
Atom  83H    basis set group =>   6
Atom  84H    basis set group =>   6
Atom  85H    basis set group =>   6
Atom  86H    basis set group =>   6
Atom  87H    basis set group =>   6
Atom  88H    basis set group =>   6
Atom  89H    basis set group =>   6
Atom  90H    basis set group =>   6
Atom  91H    basis set group =>   6
Atom  92H    basis set group =>   6
Atom  93H    basis set group =>   6
Atom  94H    basis set group =>   6
Atom  95H    basis set group =>   6
Atom  96H    basis set group =>   6
Atom  97H    basis set group =>   6
Atom  98H    basis set group =>   6
Atom  99H    basis set group =>   6
Atom 100H    basis set group =>   6
Atom 101H    basis set group =>   6
Atom 102H    basis set group =>   6
Atom 103H    basis set group =>   6
Atom 104H    basis set group =>   6
Atom 105H    basis set group =>   6
Atom 106H    basis set group =>   6
Atom 107H    basis set group =>   6
Atom 108H    basis set group =>   6
Atom 109H    basis set group =>   6
Atom 110H    basis set group =>   6
Atom 111H    basis set group =>   6
Atom 112H    basis set group =>   6
Atom 113H    basis set group =>   6
Atom 114H    basis set group =>   6
Atom 115H    basis set group =>   6
Atom 116H    basis set group =>   6
Atom 117H    basis set group =>   6
Atom 118H    basis set group =>   6
Atom 119H    basis set group =>   6
Atom 120H    basis set group =>   6
Atom 121H    basis set group =>   6
---------------------------------
AUXILIARY/J BASIS SET INFORMATION
---------------------------------
There are 6 groups of distinct atoms

 Group   1 Type C   : 12s5p4d2f1g contracted to 6s4p3d1f1g pattern {711111/2111/211/2/1}
 Group   2 Type O   : 12s5p4d2f1g contracted to 6s4p3d1f1g pattern {711111/2111/211/2/1}
 Group   3 Type N   : 12s5p4d2f1g contracted to 6s4p3d1f1g pattern {711111/2111/211/2/1}
 Group   4 Type S   : 14s5p5d2f1g contracted to 8s4p3d1f1g pattern {71111111/2111/311/2/1}
 Group   5 Type F   : 12s5p4d2f1g contracted to 6s4p3d1f1g pattern {711111/2111/211/2/1}
 Group   6 Type H   : 5s2p1d contracted to 3s1p1d pattern {311/2/1}

Atom   0C    basis set group =>   1
Atom   1O    basis set group =>   2
Atom   2C    basis set group =>   1
Atom   3C    basis set group =>   1
Atom   4C    basis set group =>   1
Atom   5C    basis set group =>   1
Atom   6C    basis set group =>   1
Atom   7C    basis set group =>   1
Atom   8C    basis set group =>   1
Atom   9C    basis set group =>   1
Atom  10C    basis set group =>   1
Atom  11N    basis set group =>   3
Atom  12C    basis set group =>   1
Atom  13N    basis set group =>   3
Atom  14C    basis set group =>   1
Atom  15C    basis set group =>   1
Atom  16C    basis set group =>   1
Atom  17S    basis set group =>   4
Atom  18C    basis set group =>   1
Atom  19C    basis set group =>   1
Atom  20C    basis set group =>   1
Atom  21C    basis set group =>   1
Atom  22C    basis set group =>   1
Atom  23S    basis set group =>   4
Atom  24C    basis set group =>   1
Atom  25C    basis set group =>   1
Atom  26N    basis set group =>   3
Atom  27C    basis set group =>   1
Atom  28C    basis set group =>   1
Atom  29C    basis set group =>   1
Atom  30C    basis set group =>   1
Atom  31C    basis set group =>   1
Atom  32N    basis set group =>   3
Atom  33N    basis set group =>   3
Atom  34C    basis set group =>   1
Atom  35C    basis set group =>   1
Atom  36N    basis set group =>   3
Atom  37C    basis set group =>   1
Atom  38C    basis set group =>   1
Atom  39C    basis set group =>   1
Atom  40N    basis set group =>   3
Atom  41C    basis set group =>   1
Atom  42C    basis set group =>   1
Atom  43C    basis set group =>   1
Atom  44C    basis set group =>   1
Atom  45S    basis set group =>   4
Atom  46C    basis set group =>   1
Atom  47C    basis set group =>   1
Atom  48S    basis set group =>   4
Atom  49C    basis set group =>   1
Atom  50C    basis set group =>   1
Atom  51C    basis set group =>   1
Atom  52C    basis set group =>   1
Atom  53C    basis set group =>   1
Atom  54C    basis set group =>   1
Atom  55C    basis set group =>   1
Atom  56C    basis set group =>   1
Atom  57C    basis set group =>   1
Atom  58N    basis set group =>   3
Atom  59C    basis set group =>   1
Atom  60N    basis set group =>   3
Atom  61C    basis set group =>   1
Atom  62C    basis set group =>   1
Atom  63C    basis set group =>   1
Atom  64C    basis set group =>   1
Atom  65C    basis set group =>   1
Atom  66C    basis set group =>   1
Atom  67C    basis set group =>   1
Atom  68O    basis set group =>   2
Atom  69F    basis set group =>   5
Atom  70F    basis set group =>   5
Atom  71C    basis set group =>   1
Atom  72C    basis set group =>   1
Atom  73C    basis set group =>   1
Atom  74C    basis set group =>   1
Atom  75C    basis set group =>   1
Atom  76C    basis set group =>   1
Atom  77H    basis set group =>   6
Atom  78H    basis set group =>   6
Atom  79H    basis set group =>   6
Atom  80H    basis set group =>   6
Atom  81H    basis set group =>   6
Atom  82H    basis set group =>   6
Atom  83H    basis set group =>   6
Atom  84H    basis set group =>   6
Atom  85H    basis set group =>   6
Atom  86H    basis set group =>   6
Atom  87H    basis set group =>   6
Atom  88H    basis set group =>   6
Atom  89H    basis set group =>   6
Atom  90H    basis set group =>   6
Atom  91H    basis set group =>   6
Atom  92H    basis set group =>   6
Atom  93H    basis set group =>   6
Atom  94H    basis set group =>   6
Atom  95H    basis set group =>   6
Atom  96H    basis set group =>   6
Atom  97H    basis set group =>   6
Atom  98H    basis set group =>   6
Atom  99H    basis set group =>   6
Atom 100H    basis set group =>   6
Atom 101H    basis set group =>   6
Atom 102H    basis set group =>   6
Atom 103H    basis set group =>   6
Atom 104H    basis set group =>   6
Atom 105H    basis set group =>   6
Atom 106H    basis set group =>   6
Atom 107H    basis set group =>   6
Atom 108H    basis set group =>   6
Atom 109H    basis set group =>   6
Atom 110H    basis set group =>   6
Atom 111H    basis set group =>   6
Atom 112H    basis set group =>   6
Atom 113H    basis set group =>   6
Atom 114H    basis set group =>   6
Atom 115H    basis set group =>   6
Atom 116H    basis set group =>   6
Atom 117H    basis set group =>   6
Atom 118H    basis set group =>   6
Atom 119H    basis set group =>   6
Atom 120H    basis set group =>   6
Atom 121H    basis set group =>   6
------------------------------------------------------------------------------
                           ORCA GTO INTEGRAL CALCULATION
                           -- RI-GTO INTEGRALS CHOSEN --
------------------------------------------------------------------------------

                         BASIS SET STATISTICS AND STARTUP INFO

Gaussian basis set:
 # of primitive gaussian shells          ... 1173
 # of primitive gaussian functions       ... 2211
 # of contracted shells                  ...  605
 # of contracted basis functions         ... 1319
 Highest angular momentum                ...    2
 Maximum contraction depth               ...    5
Auxiliary gaussian basis set:
 # of primitive gaussian shells          ... 2220
 # of primitive gaussian functions       ... 6138
 # of contracted shells                  ... 1388
 # of contracted aux-basis functions     ... 4276
 Highest angular momentum                ...    4
 Maximum contraction depth               ...    7
Ratio of auxiliary to basis functions    ...  3.24
Integral package used                  ... LIBINT
 One Electron integrals                  ... done
 Ordering auxiliary basis shells         ... done
 Integral threshhold             Thresh  ...  2.500e-11
 Primitive cut-off               TCut    ...  2.500e-12
 Pre-screening matrix                    ... done
 Shell pair data                         ... 
 Ordering of the shell pairs             ... done (   0.013 sec) 63839 of 183315 pairs
 Determination of significant pairs      ... done (   0.000 sec)
 Creation of shell pair data             ... done (   0.009 sec)
 Storage of shell pair data              ... done (   0.013 sec)
 Shell pair data done in (   0.036 sec)
 Computing two index integrals           ... done
 Cholesky decomposition of the V-matrix  ... done


Timings:
 Total evaluation time                   ...   3.234 sec (  0.054 min)
 One electron matrix time                ...   0.813 sec (  0.014 min) = 25.1%
 Schwartz matrix evaluation time         ...   0.778 sec (  0.013 min) = 24.1%
 Two index repulsion integral time       ...   0.475 sec (  0.008 min) = 14.7%
 Cholesky decomposition of V             ...   1.116 sec (  0.019 min) = 34.5%
 Three index repulsion integral time     ...   0.000 sec (  0.000 min) =  0.0%

-------------------------------------------------------------------------------
                                 ORCA SCF
-------------------------------------------------------------------------------

------------
SCF SETTINGS
------------
Hamiltonian:
 Density Functional     Method          .... DFT(GTOs)
 Exchange Functional    Exchange        .... WB88
 Correlation Functional Correlation     .... LYP
 LDA part of GGA corr.  LDAOpt          .... VWN-5
 Gradients option       PostSCFGGA      .... off
 Hybrid DFT is turned on
   Fraction HF Exchange ScalHFX         ....  0.190000
   Scaling of DF-GGA-X  ScalDFX         ....  0.350000
   Scaling of DF-GGA-C  ScalDFC         ....  0.810000
   Scaling of DF-LDA-C  ScalLDAC        ....  1.000000
   Perturbative correction              ....  0.000000
   Density functional embedding theory  .... OFF
 Long-range corrected/Screened/Range-Separated Hybrid DFT is turned on
   Amount of maximum screened exact exchange              ....  0.460000
   Range separation parameter mu (erf(mu*r12)/r12)        ....  0.330000
 RI-approximation to the Coulomb term is turned on
   Number of auxiliary basis functions  .... 4276
   RIJ-COSX (HFX calculated with COS-X)).... on


General Settings:
 Integral files         IntName         .... Y14
 Hartree-Fock type      HFTyp           .... RHF
 Total Charge           Charge          ....    0
 Multiplicity           Mult            ....    1
 Number of Electrons    NEL             ....  566
 Basis Dimension        Dim             .... 1319
 Nuclear Repulsion      ENuc            ....  12664.9821391120 Eh

Convergence Acceleration:
 DIIS                   CNVDIIS         .... on
   Start iteration      DIISMaxIt       ....    12
   Startup error        DIISStart       ....  0.200000
   # of expansion vecs  DIISMaxEq       ....     5
   Bias factor          DIISBfac        ....   1.050
   Max. coefficient     DIISMaxC        ....  10.000
 Newton-Raphson         CNVNR           .... off
 SOSCF                  CNVSOSCF        .... on
   Start iteration      SOSCFMaxIt      ....   150
   Startup grad/error   SOSCFStart      ....  0.003300
 Level Shifting         CNVShift        .... on
   Level shift para.    LevelShift      ....    0.2500
   Turn off err/grad.   ShiftErr        ....    0.0010
 Zerner damping         CNVZerner       .... off
 Static damping         CNVDamp         .... on
   Fraction old density DampFac         ....    0.7000
   Max. Damping (<1)    DampMax         ....    0.9800
   Min. Damping (>=0)   DampMin         ....    0.0000
   Turn off err/grad.   DampErr         ....    0.1000
 Fernandez-Rico         CNVRico         .... off

SCF Procedure:
 Maximum # iterations   MaxIter         ....   125
 SCF integral mode      SCFMode         .... Direct
   Integral package                     .... LIBINT
 Reset frequency        DirectResetFreq ....    20
 Integral Threshold     Thresh          ....  2.500e-11 Eh
 Primitive CutOff       TCut            ....  2.500e-12 Eh

Convergence Tolerance:
 Convergence Check Mode ConvCheckMode   .... Total+1el-Energy
 Convergence forced     ConvForced      .... 1
 Energy Change          TolE            ....  1.000e-08 Eh
 1-El. energy change                    ....  1.000e-05 Eh
 Orbital Gradient       TolG            ....  1.000e-05
 Orbital Rotation angle TolX            ....  1.000e-05
 DIIS Error             TolErr          ....  5.000e-07


Diagonalization of the overlap matrix:
Smallest eigenvalue                        ... 8.443e-05
Time for diagonalization                   ...    0.396 sec
Threshold for overlap eigenvalues          ... 1.000e-08
Number of eigenvalues below threshold      ... 0
Time for construction of square roots      ...    0.176 sec
Total time needed                          ...    0.577 sec

-------------------
DFT GRID GENERATION
-------------------

General Integration Accuracy     IntAcc      ...  4.670
Radial Grid Type                 RadialGrid  ... Gauss-Chebyshev
Angular Grid (max. acc.)         AngularGrid ... Lebedev-302
Angular grid pruning method      GridPruning ... 3 (G Style)
Weight generation scheme         WeightScheme... Becke
Basis function cutoff            BFCut       ...    1.0000e-11
Integration weight cutoff        WCut        ...    1.0000e-14
Grids for H and He will be reduced by one unit

# of grid points (after initial pruning)     ... 633710 (   1.4 sec)
# of grid points (after weights+screening)   ... 533761 (  33.8 sec)
nearest neighbour list constructed           ...    0.0 sec
Grid point re-assignment to atoms done       ...    0.1 sec
Grid point division into batches done        ...    1.8 sec
Reduced shell lists constructed in    9.8 sec

Total number of grid points                  ...   533761
Total number of batches                      ...     8403
Average number of points per batch           ...       63
Average number of grid points per atom       ...     4375
Average number of shells per batch           ...   110.57 (18.28%)
Average number of basis functions per batch  ...   220.74 (16.74%)
Average number of large shells per batch     ...    63.40 (57.34%)
Average number of large basis fcns per batch ...   129.02 (58.45%)
Maximum spatial batch extension              ...  20.82, 21.25, 20.72 au
Average spatial batch extension              ...   2.11,  2.08,  2.14 au

Time for grid setup =   45.125 sec

------------------------------
INITIAL GUESS: MODEL POTENTIAL
------------------------------
Loading Hartree-Fock densities                     ... done
Calculating cut-offs                               ... done
Setting up the integral package                    ... done
Initializing the effective Hamiltonian             ... done
Starting the Coulomb interaction                   ... done (  12.2 sec)
Reading the grid                                   ... done
Mapping shells                                     ... done
Starting the XC term evaluation                    ... done (   9.7 sec)
  promolecular density results
     # of electrons  =    565.978852537
     EX              =   -514.940035755
     EC              =    -19.514126829
     EX+EC           =   -534.454162584
Transforming the Hamiltonian                       ... done (   0.1 sec)
Diagonalizing the Hamiltonian                      ... done (   0.4 sec)
Back transforming the eigenvectors                 ... done (   0.1 sec)
Now organizing SCF variables                       ... done
                      ------------------
                      INITIAL GUESS DONE (  67.9 sec)
                      ------------------
--------------------
COSX GRID GENERATION
--------------------

General Integration Accuracy     IntAcc      ...  3.340
Radial Grid Type                 RadialGrid  ... Gauss-Chebyshev
Angular Grid (max. acc.)         AngularGrid ... Lebedev-50
Angular grid pruning method      GridPruning ... 3 (G Style)
Weight generation scheme         WeightScheme... Becke
Basis function cutoff            BFCut       ...    1.0000e-11
Integration weight cutoff        WCut        ...    1.0000e-14
Grids for H and He will be reduced by one unit

# of grid points (after initial pruning)     ...  59438 (   0.1 sec)
# of grid points (after weights+screening)   ...  52329 (   3.1 sec)
nearest neighbour list constructed           ...    0.0 sec
Grid point re-assignment to atoms done       ...    0.0 sec
Grid point division into batches done        ...    0.0 sec
Reduced shell lists constructed in    1.1 sec

Total number of grid points                  ...    52329
Total number of batches                      ...      880
Average number of points per batch           ...       59
Average number of grid points per atom       ...      429
Average number of shells per batch           ...   134.63 (22.25%)
Average number of basis functions per batch  ...   271.98 (20.62%)
Average number of large shells per batch     ...    77.36 (57.46%)
Average number of large basis fcns per batch ...   159.54 (58.66%)
Maximum spatial batch extension              ...  22.14, 19.12, 24.49 au
Average spatial batch extension              ...   4.45,  4.37,  4.57 au

Overlap Fitting                  UseSFitting ... on
Constructing numerical overlap ... done (      0.7 sec)
Inverting numerical overlap    ... done (      0.0 sec)
Obtaining analytic overlap     ... done (      0.0 sec)
Final contraction and storage  ... done (      0.1 sec)


General Integration Accuracy     IntAcc      ...  3.670
Radial Grid Type                 RadialGrid  ... Gauss-Chebyshev
Angular Grid (max. acc.)         AngularGrid ... Lebedev-50
Angular grid pruning method      GridPruning ... 3 (G Style)
Weight generation scheme         WeightScheme... Becke
Basis function cutoff            BFCut       ...    1.0000e-11
Integration weight cutoff        WCut        ...    1.0000e-14
Grids for H and He will be reduced by one unit

# of grid points (after initial pruning)     ...  74686 (   0.1 sec)
# of grid points (after weights+screening)   ...  65461 (   4.0 sec)
nearest neighbour list constructed           ...    0.0 sec
Grid point re-assignment to atoms done       ...    0.0 sec
Grid point division into batches done        ...    0.0 sec
Reduced shell lists constructed in    1.2 sec

Total number of grid points                  ...    65461
Total number of batches                      ...     1088
Average number of points per batch           ...       60
Average number of grid points per atom       ...      537
Average number of shells per batch           ...   131.35 (21.71%)
Average number of basis functions per batch  ...   264.89 (20.08%)
Average number of large shells per batch     ...    75.59 (57.55%)
Average number of large basis fcns per batch ...   155.63 (58.75%)
Maximum spatial batch extension              ...  24.23, 18.57, 25.59 au
Average spatial batch extension              ...   4.10,  3.99,  4.21 au

Overlap Fitting                  UseSFitting ... on
Constructing numerical overlap ... done (      0.7 sec)
Inverting numerical overlap    ... done (      0.0 sec)
Obtaining analytic overlap     ... done (      0.0 sec)
Final contraction and storage  ... done (      0.1 sec)


General Integration Accuracy     IntAcc      ...  4.010
Radial Grid Type                 RadialGrid  ... Gauss-Chebyshev
Angular Grid (max. acc.)         AngularGrid ... Lebedev-110
Angular grid pruning method      GridPruning ... 3 (G Style)
Weight generation scheme         WeightScheme... Becke
Basis function cutoff            BFCut       ...    1.0000e-11
Integration weight cutoff        WCut        ...    1.0000e-14
Grids for H and He will be reduced by one unit

# of grid points (after initial pruning)     ... 143616 (   0.2 sec)
# of grid points (after weights+screening)   ... 125064 (   7.6 sec)
nearest neighbour list constructed           ...    0.0 sec
Grid point re-assignment to atoms done       ...    0.0 sec
Grid point division into batches done        ...    0.1 sec
Reduced shell lists constructed in    2.3 sec

Total number of grid points                  ...   125064
Total number of batches                      ...     2020
Average number of points per batch           ...       61
Average number of grid points per atom       ...     1025
Average number of shells per batch           ...   124.69 (20.61%)
Average number of basis functions per batch  ...   251.00 (19.03%)
Average number of large shells per batch     ...    72.14 (57.85%)
Average number of large basis fcns per batch ...   148.12 (59.01%)
Maximum spatial batch extension              ...  19.81, 21.36, 24.06 au
Average spatial batch extension              ...   3.41,  3.35,  3.55 au

Overlap Fitting                  UseSFitting ... on
Constructing numerical overlap ... done (      1.3 sec)
Inverting numerical overlap    ... done (      0.0 sec)
Obtaining analytic overlap     ... done (      0.0 sec)
Final contraction and storage  ... done (      0.1 sec)

Time for X-Grid setup             =   22.782 sec
--------------
SCF ITERATIONS
--------------
ITER       Energy         Delta-E        Max-DP      RMS-DP      [F,P]     Damp
               ***  Starting incremental Fock matrix formation  ***
  0  -4743.3050003776   0.000000000000 0.07763009  0.00083440  0.2233699 0.7000
  1  -4743.8969268949  -0.591926517271 0.04312632  0.00059241  0.0955592 0.7000
                               ***Turning on DIIS***
  2  -4744.1531603731  -0.256233478194 0.06883147  0.00109567  0.0404097 0.0000
  3  -4744.5815012438  -0.428340870731 0.04139348  0.00041321  0.0488091 0.0000
  4  -4744.6535416760  -0.072040432186 0.01604090  0.00013071  0.0237191 0.0000
  5  -4744.6593956534  -0.005853977411 0.00621968  0.00005198  0.0074394 0.0000
                      *** Initiating the SOSCF procedure ***
                           *** Shutting down DIIS ***
                      *** Re-Reading the Fockian *** 
                      *** Removing any level shift *** 
ITER      Energy       Delta-E        Grad      Rot      Max-DP    RMS-DP
  6  -4744.66033664  -0.0009409846  0.003205  0.003205  0.002330  0.000028
               *** Restarting incremental Fock matrix formation ***
  7  -4744.66053612  -0.0001994811  0.002163  0.014014  0.001760  0.000032
  8  -4744.66075069  -0.0002145698  0.000733  0.014066  0.002313  0.000036
  9  -4744.66075687  -0.0000061830  0.000978  0.004963  0.001557  0.000014
 10  -4744.66081342  -0.0000565509  0.000253  0.001632  0.000943  0.000007
 11  -4744.66081133   0.0000020951  0.000208  0.001184  0.000567  0.000004
 12  -4744.66081712  -0.0000057914  0.000021  0.000092  0.000111  0.000001
 13  -4744.66081707   0.0000000453  0.000028  0.000078  0.000078  0.000001
 14  -4744.66081724  -0.0000001638  0.000006  0.000043  0.000027  0.000000
 15  -4744.66081721   0.0000000269  0.000007  0.000010  0.000016  0.000000
                  ***Gradient check signals convergence***
              ***Rediagonalizing the Fockian in SOSCF/NRSCF***

               *****************************************************
               *                     SUCCESS                       *
               *           SCF CONVERGED AFTER  16 CYCLES          *
               *****************************************************

Setting up the final grid:

General Integration Accuracy     IntAcc      ...  5.010
Radial Grid Type                 RadialGrid  ... Gauss-Chebyshev
Angular Grid (max. acc.)         AngularGrid ... Lebedev-434
Angular grid pruning method      GridPruning ... 3 (G Style)
Weight generation scheme         WeightScheme... Becke
Basis function cutoff            BFCut       ...    1.0000e-11
Integration weight cutoff        WCut        ...    1.0000e-14
Grids for H and He will be reduced by one unit

# of grid points (after initial pruning)     ... 1128610 (   2.1 sec)
# of grid points (after weights+screening)   ... 947120 (  60.3 sec)
nearest neighbour list constructed           ...    0.0 sec
Grid point re-assignment to atoms done       ...    0.1 sec
Grid point division into batches done        ...    5.8 sec
Reduced shell lists constructed in   18.7 sec

Total number of grid points                  ...   947120
Total number of batches                      ...    14862
Average number of points per batch           ...       63
Average number of grid points per atom       ...     7763
Average number of shells per batch           ...   106.45 (17.59%)
Average number of basis functions per batch  ...   211.80 (16.06%)
Average number of large shells per batch     ...    60.90 (57.21%)
Average number of large basis fcns per batch ...   123.50 (58.31%)
Maximum spatial batch extension              ...  22.27, 20.43, 22.85 au
Average spatial batch extension              ...   1.71,  1.69,  1.72 au

Final grid set up in   81.1 sec
Final integration                            ... done (  22.3 sec)
Change in XC energy                          ...     0.000012493
Integrated number of electrons               ...   565.999749827
Previous integrated no of electrons          ...   566.000104281
Old exchange energy                            =   -143.644477103 Eh
New exchange energy                            =   -143.641822629 Eh
Exchange energy change after final integration =      0.002654474 Eh
Total energy after final integration           =  -4744.658150236 Eh
Final COS-X integration done in                =   513.935 sec

----------------
TOTAL SCF ENERGY
----------------

Total Energy       :        -4744.65815024 Eh         -129108.71203 eV

Components:
Nuclear Repulsion  :        12664.98213911 Eh          344631.68474 eV
Electronic Energy  :       -17409.64028935 Eh         -473740.39677 eV
One Electron Energy:       -31719.75213628 Eh         -863138.33673 eV
Two Electron Energy:        14310.11184693 Eh          389397.93996 eV

Virial components:
Potential Energy   :        -9452.85080526 Eh         -257225.14748 eV
Kinetic Energy     :         4708.19265502 Eh          128116.43546 eV
Virial Ratio       :            2.00774512


DFT components:
N(Alpha)           :      282.999874913430 electrons
N(Beta)            :      282.999874913430 electrons
N(Total)           :      565.999749826859 electrons
E(XC)              :     -399.664148504382 Eh       
DFET-embed. en.    :        0.000000000000 Eh       

---------------
SCF CONVERGENCE
---------------

  Last Energy change         ...    8.5838e-09  Tolerance :   1.0000e-08
  Last MAX-Density change    ...    8.4377e-15  Tolerance :   1.0000e-07
  Last RMS-Density change    ...    3.3740e-17  Tolerance :   5.0000e-09
  Last Orbital Gradient      ...    1.2302e-06  Tolerance :   1.0000e-05
  Last Orbital Rotation      ...    7.4303e-06  Tolerance :   1.0000e-05

             **** THE GBW FILE WAS UPDATED (Y14.gbw) ****
             **** DENSITY FILE WAS UPDATED (Y14.scfp) ****
             **** ENERGY FILE WAS UPDATED (Y14.en.tmp) ****
             **** THE GBW FILE WAS UPDATED (Y14.gbw) ****
             **** DENSITY FILE WAS UPDATED (Y14.scfp) ****
----------------
ORBITAL ENERGIES
----------------

  NO   OCC          E(Eh)            E(eV) 
   0   2.0000     -88.973396     -2421.0892 
   1   2.0000     -88.969556     -2420.9847 
   2   2.0000     -88.966198     -2420.8933 
   3   2.0000     -88.965277     -2420.8683 
   4   2.0000     -24.795798      -674.7280 
   5   2.0000     -24.793371      -674.6619 
   6   2.0000     -19.220385      -523.0133 
   7   2.0000     -19.219498      -522.9891 
   8   2.0000     -14.525422      -395.2568 
   9   2.0000     -14.481369      -394.0581 
  10   2.0000     -14.481302      -394.0563 
  11   2.0000     -14.441817      -392.9818 
  12   2.0000     -14.441604      -392.9760 
  13   2.0000     -14.422368      -392.4526 
  14   2.0000     -14.421362      -392.4252 
  15   2.0000     -14.419360      -392.3707 
  16   2.0000     -14.415389      -392.2627 
  17   2.0000     -10.381701      -282.5004 
  18   2.0000     -10.378418      -282.4111 
  19   2.0000     -10.372027      -282.2372 
  20   2.0000     -10.369314      -282.1634 
  21   2.0000     -10.348875      -281.6072 
  22   2.0000     -10.348293      -281.5914 
  23   2.0000     -10.345994      -281.5288 
  24   2.0000     -10.343607      -281.4639 
  25   2.0000     -10.338727      -281.3311 
  26   2.0000     -10.337837      -281.3068 
  27   2.0000     -10.327466      -281.0246 
  28   2.0000     -10.327260      -281.0190 
  29   2.0000     -10.326350      -280.9943 
  30   2.0000     -10.326162      -280.9891 
  31   2.0000     -10.325465      -280.9702 
  32   2.0000     -10.325104      -280.9604 
  33   2.0000     -10.325016      -280.9580 
  34   2.0000     -10.323570      -280.9186 
  35   2.0000     -10.322478      -280.8889 
  36   2.0000     -10.322445      -280.8880 
  37   2.0000     -10.322413      -280.8871 
  38   2.0000     -10.321684      -280.8673 
  39   2.0000     -10.321363      -280.8586 
  40   2.0000     -10.320231      -280.8278 
  41   2.0000     -10.319780      -280.8155 
  42   2.0000     -10.315702      -280.7045 
  43   2.0000     -10.314251      -280.6650 
  44   2.0000     -10.313614      -280.6477 
  45   2.0000     -10.312715      -280.6232 
  46   2.0000     -10.309754      -280.5427 
  47   2.0000     -10.308697      -280.5139 
  48   2.0000     -10.308664      -280.5130 
  49   2.0000     -10.308318      -280.5036 
  50   2.0000     -10.307362      -280.4776 
  51   2.0000     -10.304282      -280.3938 
  52   2.0000     -10.304173      -280.3908 
  53   2.0000     -10.304097      -280.3887 
  54   2.0000     -10.304064      -280.3878 
  55   2.0000     -10.303664      -280.3770 
  56   2.0000     -10.303219      -280.3649 
  57   2.0000     -10.301891      -280.3287 
  58   2.0000     -10.300716      -280.2967 
  59   2.0000     -10.299704      -280.2692 
  60   2.0000     -10.299619      -280.2669 
  61   2.0000     -10.296728      -280.1882 
  62   2.0000     -10.296353      -280.1780 
  63   2.0000     -10.295207      -280.1468 
  64   2.0000     -10.288676      -279.9691 
  65   2.0000     -10.287321      -279.9322 
  66   2.0000     -10.284227      -279.8481 
  67   2.0000     -10.282925      -279.8126 
  68   2.0000     -10.274573      -279.5853 
  69   2.0000     -10.272939      -279.5409 
  70   2.0000     -10.271459      -279.5006 
  71   2.0000     -10.270016      -279.4614 
  72   2.0000     -10.268584      -279.4224 
  73   2.0000     -10.265777      -279.3460 
  74   2.0000     -10.264311      -279.3061 
  75   2.0000     -10.256784      -279.1013 
  76   2.0000     -10.251866      -278.9675 
  77   2.0000      -8.067481      -219.5273 
  78   2.0000      -8.061903      -219.3755 
  79   2.0000      -8.059477      -219.3095 
  80   2.0000      -8.058615      -219.2861 
  81   2.0000      -6.037194      -164.2804 
  82   2.0000      -6.033076      -164.1683 
  83   2.0000      -6.031729      -164.1317 
  84   2.0000      -6.029474      -164.0703 
  85   2.0000      -6.028945      -164.0559 
  86   2.0000      -6.028629      -164.0473 
  87   2.0000      -6.027321      -164.0117 
  88   2.0000      -6.025434      -163.9604 
  89   2.0000      -6.024609      -163.9380 
  90   2.0000      -6.023467      -163.9069 
  91   2.0000      -6.020394      -163.8233 
  92   2.0000      -6.019475      -163.7982 
  93   2.0000      -1.313686       -35.7472 
  94   2.0000      -1.311244       -35.6808 
  95   2.0000      -1.196476       -32.5578 
  96   2.0000      -1.132255       -30.8102 
  97   2.0000      -1.130455       -30.7612 
  98   2.0000      -1.101566       -29.9751 
  99   2.0000      -1.089880       -29.6571 
 100   2.0000      -1.014411       -27.6035 
 101   2.0000      -1.011569       -27.5262 
 102   2.0000      -1.007189       -27.4070 
 103   2.0000      -1.004802       -27.3421 
[...]
   0.565   0.660   0.643   0.669   0.479   0.542   0.537   0.560   0.630   0.665
   0.656   0.651   0.522   0.593   0.508   0.495   0.616   0.621   0.667   0.677
   0.633   0.631   0.645   0.674   0.619   0.634   0.668   0.676   0.641   0.641
   0.643   0.674

Number of electrons in sTDA:  212.000

ax(DF)   :  0.3800
s^k      :  2.0000
beta  (J):  1.8600
alpha (K):  0.9000

hardness table read
setting up gammas ...
computing q(ij,n)
memory needed for q data:            13.7 MB 
memory available for q data:       2476.3 MB 

CSF included by energy:           33 
CSF considered in PT2:          9719 

ordered frontier orbitals
           eV         # centers 
  95      -9.243       6.9
  96      -9.184       2.7
  97      -9.017      17.2
  98      -8.617      29.6
  99      -8.522      35.1
 100      -8.431      28.6
 101      -8.268      27.0
 102      -7.834      10.5
 103      -7.548      22.4
 104      -7.347      16.6
 105      -6.516      21.2

 106      -2.580      25.6
 107      -2.319      22.7
 108      -1.734      20.9
 109      -1.655      18.9
 110      -0.739      35.7
 111      -0.206      25.2
 112       0.069      21.5
 113       0.615      20.8
 114       0.850      21.9
 115       0.953       6.0
 116       1.014      11.5

           eV        nm       excitation i->a                     eV 
   0      2.35     527.2   105 -> 106      gap,J,K:    3.936     1.862     0.139
   1      2.77     447.2   105 -> 107      gap,J,K:    4.198     1.765     0.170
   2      3.21     386.2   104 -> 106      gap,J,K:    4.766     1.774     0.109
   3      3.37     367.4   105 -> 108      gap,J,K:    4.782     1.541     0.067
   4      3.41     363.1   105 -> 109      gap,J,K:    4.861     1.618     0.086
   5      3.46     358.0   104 -> 107      gap,J,K:    5.028     1.644     0.040
   6      3.51     353.6   103 -> 106      gap,J,K:    4.967     1.888     0.213
   7      3.66     339.0   102 -> 106      gap,J,K:    5.254     1.822     0.113
   8      3.76     329.3   103 -> 107      gap,J,K:    5.229     1.848     0.192
   9      3.93     315.2   102 -> 107      gap,J,K:    5.515     1.704     0.061
  10      4.22     294.0   105 -> 110      gap,J,K:    5.778     2.045     0.242
  11      4.27     290.2   104 -> 108      gap,J,K:    5.613     1.400     0.030
  12      4.28     289.4   104 -> 109      gap,J,K:    5.691     1.443     0.018
  13      4.29     288.8   101 -> 106      gap,J,K:    5.687     1.806     0.206
  14      4.36     284.7   100 -> 106      gap,J,K:    5.851     1.786     0.145
  15      4.38     283.3   103 -> 108      gap,J,K:    5.814     1.652     0.108
  16      4.39     282.4   103 -> 109      gap,J,K:    5.892     1.773     0.135
  17      4.46     277.8    99 -> 106      gap,J,K:    5.941     1.735     0.128
  18      4.58     270.6   101 -> 107      gap,J,K:    5.949     1.803     0.218
  19      4.60     269.6    98 -> 106      gap,J,K:    6.037     1.715     0.139
  20      4.65     266.4   100 -> 107      gap,J,K:    6.112     1.721     0.131
  21      4.69     264.2   102 -> 108      gap,J,K:    6.100     1.462     0.027
  22      4.72     262.6   102 -> 109      gap,J,K:    6.179     1.507     0.025
  23      4.75     261.0    99 -> 107      gap,J,K:    6.203     1.717     0.133
  24      4.79     258.6    96 -> 109      gap,J,K:    7.529     2.736     0.000

average / max PT2 energy lowering (eV):       0.046       0.092

CSF included by PT:                   169 
total number of CSF included:         202 
 
sTD-DFT procedure...
setting up A+B and A-B matrices...  done
estimated time (min):    0.000
calculating (A-B)^0.5 ... done
calculating (A+B)*(A-B)^0.5 ... done
calculating (A-B)^0.5 *(A+B)*(A-B)^0.5 ... done
diagonalizing ...using LAPACKE_ssyevr ...done

   34 roots found, lowest/highest eigenvalue :     2.108     4.865

excitation energies, transition moments and amplitudes

molecular weight: 1090.317
state   eV        nm        fL         fV        Rl        RV
   0   2.108     588.2   2.295307   2.607923  536.780351  582.660567     0.89 ( 105-> 106)    0.08 ( 103-> 107)    0.00 ( 103-> 106)
   1   2.491     497.7   0.335066   0.371895  -592.137713  -622.874384     0.83 ( 105-> 107)    0.12 ( 103-> 106)    0.01 ( 103-> 108)
   2   2.957     419.3   0.058754   0.052801  24.612077  16.263233     0.82 ( 104-> 106)    0.11 ( 102-> 107)    0.01 ( 103-> 106)
   3   3.045     407.2   0.055479   0.051779  -124.755071  -120.311743     0.54 ( 105-> 108)    0.21 ( 105-> 109)    0.14 ( 103-> 109)
   4   3.111     398.5   0.056293   0.050116  18.720281  19.257060     0.54 ( 104-> 107)    0.37 ( 102-> 106)    0.02 ( 104-> 109)
   5   3.136     395.3   0.219845   0.211289  108.172999  104.199063     0.55 ( 105-> 109)    0.20 ( 105-> 108)    0.14 ( 103-> 108)
   6   3.331     372.2   0.096356   0.093012  -241.470450  -234.889952     0.72 ( 103-> 106)    0.12 ( 105-> 107)    0.08 ( 101-> 107)
   7   3.572     347.1   0.083980   0.099204  111.681054  119.359603     0.50 ( 103-> 107)    0.20 ( 101-> 106)    0.07 ( 102-> 106)
   8   3.664     338.4   0.022842   0.023134  -35.668252  -48.246609     0.45 ( 102-> 107)    0.25 ( 100-> 106)    0.07 ( 104-> 106)
   9   3.691     335.9   0.021014   0.021011  -39.085237  -35.945820     0.35 ( 102-> 106)    0.29 ( 104-> 107)    0.09 ( 100-> 107)
  10   3.753     330.4   0.079421   0.078196  43.082701  56.778827     0.14 (  99-> 106)    0.09 (  98-> 106)    0.06 (  95-> 108)
  11   3.786     327.5   0.001703   0.001891   9.276473   9.739898     0.41 (  96-> 109)    0.26 (  96-> 106)    0.16 (  96-> 107)
  12   3.887     319.0   0.178175   0.162390  -1.965467  -1.394990     0.12 (  98-> 106)    0.11 (  99-> 107)    0.10 (  99-> 106)
  13   3.936     315.0   0.326510   0.291532  167.736607  166.339640     0.53 ( 105-> 110)    0.05 (  95-> 106)    0.04 (  98-> 107)
  14   3.982     311.4   0.025480   0.022727  -35.305152  -37.436264     0.16 ( 105-> 110)    0.14 (  95-> 106)    0.08 (  95-> 108)
  15   4.029     307.7   0.008211   0.006867  -4.711487  -3.710238     0.27 (  96-> 107)    0.24 (  96-> 109)    0.22 (  96-> 106)
  16   4.069     304.7   0.035819   0.029808  -37.396584  -35.010739     0.41 ( 104-> 109)    0.14 ( 102-> 108)    0.06 ( 102-> 109)
  17   4.075     304.2   0.073250   0.066574  143.423966  151.303425     0.43 ( 104-> 108)    0.12 ( 102-> 109)    0.05 (  95-> 108)
  18   4.108     301.8   0.034591   0.030088  78.580703  70.408738     0.18 (  95-> 108)    0.13 ( 104-> 108)    0.13 (  95-> 107)
  19   4.188     296.0   0.228901   0.199907  333.438005  309.624406     0.38 ( 103-> 108)    0.15 ( 103-> 109)    0.13 ( 105-> 109)
  20   4.227     293.3   0.080263   0.069819  -151.175678  -138.855957     0.18 (  97-> 106)    0.15 (  99-> 107)    0.09 ( 104-> 109)
  21   4.263     290.9   0.023995   0.020165  -0.070609  -4.200826     0.25 ( 102-> 107)    0.25 ( 100-> 106)    0.17 (  99-> 106)
  22   4.290     289.0   0.021334   0.022578  -106.477931  -94.888709     0.21 ( 101-> 106)    0.18 ( 103-> 109)    0.10 ( 103-> 107)
  23   4.355     284.7   0.025936   0.022258  -80.089987  -72.649650     0.17 ( 103-> 109)    0.12 (  98-> 106)    0.12 ( 100-> 107)
  24   4.478     276.9   0.258819   0.222089  399.445836  369.710165     0.15 (  98-> 109)    0.13 ( 105-> 111)    0.12 ( 101-> 107)
  25   4.534     273.5   0.176580   0.151964  -2125.303802  -1975.720017     0.14 (  98-> 108)    0.10 (  99-> 109)    0.09 ( 101-> 108)
  26   4.547     272.7   0.810727   0.680121  1641.723195  1528.877784     0.22 ( 104-> 110)    0.20 ( 100-> 108)    0.09 ( 102-> 109)
  27   4.597     269.7   0.254482   0.208998  348.870473  305.693831     0.21 ( 101-> 107)    0.18 (  98-> 107)    0.08 ( 103-> 108)
  28   4.659     266.1   0.093535   0.080872  -307.498255  -307.662254     0.24 ( 105-> 111)    0.24 ( 105-> 112)    0.06 ( 105-> 113)
  29   4.690     264.4   0.078026   0.066424  -103.487040  -97.965602     0.32 ( 105-> 111)    0.22 ( 105-> 112)    0.10 ( 102-> 108)
  30   4.705     263.5   0.025846   0.020559  -27.146531  -28.499396     0.27 ( 102-> 108)    0.19 ( 104-> 109)    0.17 ( 105-> 112)
  31   4.773     259.8   0.070479   0.059538   3.782385   8.372243     0.19 ( 104-> 110)    0.15 (  97-> 107)    0.12 ( 104-> 108)
  32   4.806     258.0   0.012862   0.011286  -12.888629  -12.329525     0.38 (  97-> 106)    0.23 ( 100-> 107)    0.10 (  99-> 107)
  33   4.865     254.8   0.108463   0.088150  -12.776288  -13.904919     0.20 (  97-> 107)    0.15 (  94-> 106)    0.10 ( 102-> 109)

-----------------------------------------------------------------------------
         ABSORPTION SPECTRUM VIA TRANSITION ELECTRIC DIPOLE MOMENTS
-----------------------------------------------------------------------------
State   Energy  Wavelength   fosc         T2         TX        TY        TZ  
        (cm-1)    (nm)                  (au**2)     (au)      (au)      (au) 
-----------------------------------------------------------------------------
   0   16999.8    588.2   2.295306949  44.45020   4.12027   5.23607   0.23902
   1   20090.8    497.7   0.335066267   5.49046   2.10827  -0.21043  -1.00069
   2   23846.7    419.3   0.058754189   0.81112   0.59612  -0.28189  -0.61343
   3   24560.3    407.2   0.055478712   0.74365   0.76743   0.38284   0.09023
   4   25093.6    398.5   0.056292806   0.73853   0.52586   0.67924   0.02520
   5   25295.5    395.3   0.219845033   2.86121  -0.26810   1.06456   1.28688
   6   26866.4    372.2   0.096355905   1.18071  -0.73477   0.60973   0.51870
   7   28808.9    347.1   0.083980225   0.95968   0.42722   0.72294  -0.50449
   8   29553.8    338.4   0.022841812   0.25444  -0.44857  -0.19259  -0.12704
   9   29769.7    335.9   0.021014312   0.23239   0.02960   0.02402   0.48056
  10   30267.7    330.4   0.079421387   0.86384  -0.42130  -0.56689  -0.60414
  11   30534.6    327.5   0.001702585   0.01836  -0.12975  -0.03365   0.01975
  12   31351.1    319.0   0.178175187   1.87099  -1.15097   0.01832   0.73886
  13   31745.5    315.0   0.326510001   3.38602  -0.51687  -1.45927  -0.99468
  14   32115.1    311.4   0.025480141   0.26120   0.32384  -0.18545   0.34919
  15   32498.0    307.7   0.008210980   0.08318  -0.25457  -0.01791   0.13436
  16   32816.4    304.7   0.035818576   0.35933  -0.55848  -0.17836   0.12498
  17   32869.7    304.2   0.073250450   0.73365   0.23992   0.45281   0.68634
  18   33133.6    301.8   0.034590833   0.34369  -0.33861  -0.15718   0.45203
  19   33779.3    296.0   0.228900980   2.23086   0.40166  -0.86510  -1.14941
  20   34094.4    293.3   0.080262843   0.77501  -0.77159  -0.38794  -0.17077
  21   34381.8    290.9   0.023994949   0.22976  -0.36484   0.03569   0.30883
  22   34601.3    289.0   0.021334174   0.20298   0.34981   0.10763   0.26275
  23   35123.4    284.7   0.025936231   0.24310  -0.45154   0.08419   0.17922
  24   36117.5    276.9   0.258818644   2.35914  -0.00305   1.16581   1.00001
  25   36568.9    273.5   0.176579962   1.58966  -0.95066   0.81668  -0.13761
  26   36675.6    272.7   0.810727056   7.27734  -0.29712   1.19656   2.39944
  27   37079.4    269.7   0.254482401   2.25944  -0.58191  -0.94166  -1.01691
  28   37579.9    266.1   0.093534508   0.81939  -0.67081   0.59939   0.10070
  29   37827.7    264.4   0.078026362   0.67906   0.78018   0.24282  -0.10688
  30   37949.9    263.5   0.025846046   0.22421   0.21462   0.39732  -0.14245
  31   38496.2    259.8   0.070479251   0.60272   0.63357  -0.02682  -0.44788
  32   38763.1    258.0   0.012861981   0.10924  -0.20640   0.15981   0.20272
  33   39240.0    254.8   0.108463258   0.90997   0.55734  -0.49709  -0.59350

-----------------------------------------------------------------------------
         ABSORPTION SPECTRUM VIA TRANSITION VELOCITY DIPOLE MOMENTS
-----------------------------------------------------------------------------
State   Energy  Wavelength   fosc         P2         PX        PY        PZ  
        (cm-1)    (nm)                  (au**2)     (au)      (au)      (au) 
-----------------------------------------------------------------------------
   0   16999.8    588.2   2.607922685   0.30300   0.33969   0.43274   0.01880
   1   20090.8    497.7   0.371894780   0.05107   0.20348  -0.01961  -0.09631
   2   23846.7    419.3   0.052800770   0.00861   0.06057  -0.02840  -0.06426
   3   24560.3    407.2   0.051778556   0.00869   0.08258   0.04163   0.01182
   4   25093.6    398.5   0.050116259   0.00860   0.05664   0.07340  -0.00060
   5   25295.5    395.3   0.211288536   0.03653  -0.03238   0.11826   0.14661
   6   26866.4    372.2   0.093011565   0.01708  -0.09104   0.07073   0.06154
   7   28808.9    347.1   0.099203979   0.01953   0.06576   0.10497  -0.06473
   8   29553.8    338.4   0.023134481   0.00467  -0.06353  -0.02127  -0.01358
   9   29769.7    335.9   0.021011438   0.00428   0.00075   0.00029   0.06538
  10   30267.7    330.4   0.078195628   0.01618  -0.05373  -0.07853  -0.08439
  11   30534.6    327.5   0.001890564   0.00039  -0.01908  -0.00475   0.00283
  12   31351.1    319.0   0.162389809   0.03480  -0.15719   0.00094   0.10042
  13   31745.5    315.0   0.291531649   0.06325  -0.06831  -0.19936  -0.13727
  14   32115.1    311.4   0.022726736   0.00499   0.04477  -0.02684   0.04758
  15   32498.0    307.7   0.006866601   0.00153  -0.03429  -0.00117   0.01866
  16   32816.4    304.7   0.029807866   0.00669  -0.07648  -0.02364   0.01664
  17   32869.7    304.2   0.066574095   0.01496   0.03004   0.06394   0.09982
  18   33133.6    301.8   0.030088451   0.00681  -0.04587  -0.02039   0.06552
  19   33779.3    296.0   0.199906645   0.04615   0.05725  -0.12426  -0.16563
  20   34094.4    293.3   0.069818946   0.01627  -0.11139  -0.05712  -0.02444
  21   34381.8    290.9   0.020164712   0.00474  -0.05044   0.00670   0.04636
  22   34601.3    289.0   0.022577598   0.00534   0.05558   0.02339   0.04127
  23   35123.4    284.7   0.022258486   0.00534  -0.06830   0.00909   0.02440
  24   36117.5    276.9   0.222088809   0.05482  -0.00004   0.17724   0.15300
  25   36568.9    273.5   0.151964385   0.03798  -0.14878   0.12442  -0.01914
  26   36675.6    272.7   0.680121178   0.17048  -0.04632   0.18483   0.36629
  27   37079.4    269.7   0.208998147   0.05296  -0.09095  -0.14423  -0.15456
  28   37579.9    266.1   0.080871521   0.02077  -0.10482   0.09668   0.02091
  29   37827.7    264.4   0.066423828   0.01717   0.12366   0.03937  -0.01820
  30   37949.9    263.5   0.020559125   0.00533   0.03144   0.06284  -0.01986
  31   38496.2    259.8   0.059538092   0.01566   0.10196  -0.00715  -0.07224
  32   38763.1    258.0   0.011285623   0.00299  -0.03429   0.02580   0.03389
  33   39240.0    254.8   0.088150441   0.02364   0.08982  -0.07941  -0.09626

-------------------------------------------------------------------
                             CD SPECTRUM
-------------------------------------------------------------------
State   Energy Wavelength       R         MX        MY        MZ   
        (cm-1)   (nm)       (1e40*cgs)   (au)      (au)      (au)  
-------------------------------------------------------------------
   0   16999.8    588.2    536.78035   1.12997  -1.43489   2.42754
   1   20090.8    497.7    -592.13771  -0.00173   0.17332  -2.55037
   2   23846.7    419.3     24.61208  -1.23896   0.99303  -1.49012
   3   24560.3    407.2    -124.75507   1.15182  -0.99298   0.28217
   4   25093.6    398.5     18.72028  -0.21289   0.03897   0.24059
   5   25295.5    395.3    108.17300   2.52798  -1.97544   1.80423
   6   26866.4    372.2    -241.47045  -0.05185  -0.15474   2.08338
   7   28808.9    347.1    111.68105  -1.53659   0.91149   0.94405
   8   29553.8    338.4    -35.66825  -0.75402   0.53110   0.66622
   9   29769.7    335.9    -39.08524   1.98380  -1.55361   0.30050
  10   30267.7    330.4     43.08270  -1.66246   1.23990   0.29841
  11   30534.6    327.5      9.27647   0.27117   0.29243   0.28712
  12   31351.1    319.0     -1.96547   0.07440   0.14941   0.12348
  13   31745.5    315.0    167.73661  -2.44007   1.72396  -0.54584
  14   32115.1    311.4    -35.30515   1.88905  -1.02009  -1.86472
  15   32498.0    307.7     -4.71149  -0.10501  -0.25284  -0.08390
  16   32816.4    304.7    -37.39658  -0.47811   0.61088   0.00473
  17   32869.7    304.2    143.42397   2.06469  -1.24664  -0.78581
  18   33133.6    301.8     78.58070   1.89160  -1.18851   0.26624
  19   33779.3    296.0    333.43800  -1.88301   1.22684  -0.35073
  20   34094.4    293.3    -151.17568  -1.48063   1.06647   0.51168
  21   34381.8    290.9     -0.07061   0.87101  -0.76886   1.11881
  22   34601.3    289.0    -106.47793   1.68195  -1.31918   0.02031
  23   35123.4    284.7    -80.08999  -0.69400   0.70435  -0.18360
  24   36117.5    276.9    399.44584   1.17622  -0.58631  -1.00745
  25   36568.9    273.5    -2125.30380  -5.66910   4.49540   0.32386
  26   36675.6    272.7    1641.72319   8.15904  -5.89002   1.04498
  27   37079.4    269.7    348.87047  -3.39889   2.38745   1.18956
  28   37579.9    266.1    -307.49825  -0.97808   0.49175   3.51162
  29   37827.7    264.4    -103.48704   0.37801  -0.17334  -1.74221
  30   37949.9    263.5    -27.14653  -1.11076   0.87808  -0.03284
  31   38496.2    259.8      3.78238  -1.64967   1.42229  -2.38292
  32   38763.1    258.0    -12.88863   0.13598  -0.07505   0.46734
  33   39240.0    254.8    -12.77629  -1.17303   0.90260  -1.94885

sTD-DFT done

Total run time:        5.535 sec

           *** ORCA-CIS/TD-DFT FINISHED WITHOUT ERROR ***

-------------------------   --------------------
FINAL SINGLE POINT ENERGY     -4744.658150235578
-------------------------   --------------------


                            ***************************************
                            *     ORCA property calculations      *
                            ***************************************

                                    ---------------------
                                    Active property flags
                                    ---------------------
   (+) Dipole Moment


------------------------------------------------------------------------------
                       ORCA ELECTRIC PROPERTIES CALCULATION
------------------------------------------------------------------------------

Dipole Moment Calculation                       ... on
Quadrupole Moment Calculation                   ... off
Polarizability Calculation                      ... off
GBWName                                         ... Y14.gbw
Electron density file                           ... Y14.scfp
The origin for moment calculation is the CENTER OF MASS  = (-12.456260, -15.207278  0.113473)

-------------
DIPOLE MOMENT
-------------
                                X             Y             Z
Electronic contribution:     16.44161     -17.78073     -21.92945
Nuclear contribution   :    -18.07379      17.27343      21.06537
                        -----------------------------------------
Total Dipole Moment    :     -1.63218      -0.50729      -0.86407
                        -----------------------------------------
Magnitude (a.u.)       :      1.91520
Magnitude (Debye)      :      4.86804



--------------------
Rotational spectrum 
--------------------
 
Rotational constants in cm-1:     0.001606     0.000272     0.000244 
Rotational constants in MHz :    48.157021     8.166577     7.301503 

 Dipole components along the rotational axes: 
x,y,z [a.u.] :    -1.485299     0.150850    -1.199626 
x,y,z [Debye]:    -3.775331     0.383430    -3.049207 

 

Timings for individual modules:

Sum of individual times         ...     4635.460 sec (=  77.258 min)
GTO integral calculation        ...        3.371 sec (=   0.056 min)   0.1 %
SCF iterations                  ...     4626.485 sec (=  77.108 min)  99.8 %
CIS module                      ...        5.604 sec (=   0.093 min)   0.1 %
                             ****ORCA TERMINATED NORMALLY****
TOTAL RUN TIME: 0 days 1 hours 17 minutes 16 seconds 64 msec
