
                                 *****************
                                 * O   R   C   A *
                                 *****************

           --- An Ab Initio, DFT and Semiempirical electronic structure package ---

                  #######################################################
                  #                        -***-                        #
                  #          Department of theory and spectroscopy      #
                  #               Directorship: Frank Neese             #
                  #        Max Planck Institute fuer Kohlenforschung    #
                  #                Kaiser Wilhelm Platz 1               #
                  #                 D-45470 Muelheim/Ruhr               #
                  #                      Germany                        #
                  #                                                     #
                  #                  All rights reserved                #
                  #                        -***-                        #
                  #######################################################


                         Program Version 4.2.0 -  RELEASE  -


 With contributions from (in alphabetic order):
   Daniel Aravena         : Magnetic Suceptibility
   Michael Atanasov       : Ab Initio Ligand Field Theory (pilot matlab implementation)
   Alexander A. Auer      : GIAO ZORA, VPT2
   Ute Becker             : Parallelization
   Giovanni Bistoni       : ED, misc. LED, open-shell LED, HFLED
   Martin Brehm           : Molecular dynamics
   Dmytro Bykov           : SCF Hessian
   Vijay G. Chilkuri      : MRCI spin determinant printing, contributions to CSF-ICE
   Dipayan Datta          : RHF DLPNO-CCSD density
   Achintya Kumar Dutta   : EOM-CC, STEOM-CC
   Dmitry Ganyushin       : Spin-Orbit,Spin-Spin,Magnetic field MRCI
   Miquel Garcia          : C-PCM Hessian, Gaussian charge scheme
   Yang Guo               : DLPNO-NEVPT2, CIM, IAO-localization
   Andreas Hansen         : Spin unrestricted coupled pair/coupled cluster methods
   Benjamin Helmich-Paris : CASSCF linear response (MC-RPA)
   Lee Huntington         : MR-EOM, pCC
   Robert Izsak           : Overlap fitted RIJCOSX, COSX-SCS-MP3, EOM
   Christian Kollmar      : KDIIS, OOCD, Brueckner-CCSD(T), CCSD density
   Simone Kossmann        : Meta GGA functionals, TD-DFT gradient, OOMP2, MP2 Hessian
   Martin Krupicka        : AUTO-CI
   Lucas Lang             : DCDCAS
   Dagmar Lenk            : GEPOL surface, SMD
   Dimitrios Liakos       : Extrapolation schemes; Compound Job, initial MDCI parallelization
   Dimitrios Manganas     : Further ROCIS development; embedding schemes
   Dimitrios Pantazis     : SARC Basis sets
   Taras Petrenko         : DFT Hessian,TD-DFT gradient, ASA, ECA, R-Raman, ABS, FL, XAS/XES, NRVS
   Peter Pinski           : DLPNO-MP2, DLPNO-MP2 Gradient
   Christoph Reimann      : Effective Core Potentials
   Marius Retegan         : Local ZFS, SOC
   Christoph Riplinger    : Optimizer, TS searches, QM/MM, DLPNO-CCSD(T), (RO)-DLPNO pert. Triples
   Tobias Risthaus        : Range-separated hybrids, TD-DFT gradient, RPA, STAB
   Michael Roemelt        : Original ROCIS implementation
   Masaaki Saitow         : Open-shell DLPNO-CCSD energy and density
   Barbara Sandhoefer     : DKH picture change effects
   Avijit Sen             : IP-ROCIS
   Kantharuban Sivalingam : CASSCF convergence, NEVPT2, FIC-MRCI
   Bernardo de Souza      : ESD, SOC TD-DFT
   Georgi Stoychev        : AutoAux, RI-MP2 NMR
   Willem Van den Heuvel  : Paramagnetic NMR
   Boris Wezisla          : Elementary symmetry handling
   Frank Wennmohs         : Technical directorship


 We gratefully acknowledge several colleagues who have allowed us to
 interface, adapt or use parts of their codes:
   Stefan Grimme, W. Hujo, H. Kruse,             : VdW corrections, initial TS optimization,
                  C. Bannwarth                     DFT functionals, gCP, sTDA/sTD-DF
   Ed Valeev, F. Pavosevic, A. Kumar             : LibInt (2-el integral package), F12 methods
   Garnet Chan, S. Sharma, J. Yang, R. Olivares  : DMRG
   Ulf Ekstrom                                   : XCFun DFT Library
   Mihaly Kallay                                 : mrcc  (arbitrary order and MRCC methods)
   Andreas Klamt, Michael Diedenhofen            : otool_cosmo (COSMO solvation model)
   Jiri Pittner, Ondrej Demel                    : Mk-CCSD
   Frank Weinhold                                : gennbo (NPA and NBO analysis)
   Christopher J. Cramer and Donald G. Truhlar   : smd solvation model
   Lars Goerigk                                  : TD-DFT with DH, B97 family of functionals
   V. Asgeirsson, H. Jonsson                     : NEB implementation
   FAccTs GmbH                                   : IRC, NEB, NEB-TS, Multilevel, MM, QM/MM, CI optimization
   S Lehtola, MJT Oliveira, MAL Marques          : LibXC Library


 Your calculation uses the libint2 library for the computation of 2-el integrals
 For citations please refer to: http://libint.valeyev.net

 Your ORCA version has been built with support for libXC version: 4.2.3
 For citations please refer to: https://tddft.org/programs/libxc/

 This ORCA versions uses:
   CBLAS   interface :  Fast vector & matrix operations
   LAPACKE interface :  Fast linear algebra routines
   SCALAPACK package :  Parallel linear algebra routines


XCFun DFT library Copyright 2009-2010 Ulf Ekstrom and contributors.
See http://admol.org/xcfun for more information. This is free soft-
ware; see the source code for copying conditions. There is ABSOLUTELY
NO WARRANTY; not even for MERCHANTABILITY or FITNESS FOR A PARTICULAR
PURPOSE. For details see the documentation. Scientific users of this 
library should cite U. Ekstrom, L. Visscher, R. Bast, A. J. Thorvald-
sen and K. Ruud; J.Chem.Theor.Comp. 2010, DOI: 10.1021/ct100117s
XCFun Version 0.99 
----- Orbital basis set information -----
Your calculation utilizes the basis: def2-SVP
   F. Weigend and R. Ahlrichs, Phys. Chem. Chem. Phys. 7, 3297 (2005).

----- AuxJ basis set information -----
Your calculation utilizes the auxiliary basis: def2/J
   F. Weigend, Phys. Chem. Chem. Phys. 8, 1057 (2006).

================================================================================
                                        WARNINGS
                       Please study these warnings very carefully!
================================================================================

INFO   : Checking CIS options ...

WARNING: CIS/ROCIS methods need fully converged wavefunctions
  ===> : Setting SCFConvForced true
         You can overwrite this default with %scf ConvForced false 


INFO   : the flag for use of LIBINT has been found!

================================================================================
                                       INPUT FILE
================================================================================
NAME = Y15.inp
|  1> # ORCA input file
|  2> # Y15.out
|  3> ! CAM-B3LYP def2-SVP def2/J RIJCOSX Grid4 TightSCF
|  4> %maxcore 5000
|  5> %tddft
|  6>     Mode sTDDFT
|  7>     Ethresh 5.0
|  8>     maxcore 5000
|  9> end
| 10> * xyz 0 1
| 11>   C      6.505162    4.642651   -0.802168
| 12>   O      7.243091    3.734487   -1.147937
| 13>   C      6.639290    6.067343   -1.195865
| 14>   C      7.615409    6.642251   -1.993429
| 15>   C      7.557499    8.021164   -2.223660
| 16>   Cl     8.774332    8.765951   -3.203398
| 17>   C      6.515369    8.784725   -1.654790
| 18>   Cl     6.422793   10.490648   -1.940033
| 19>   C      5.534382    8.190272   -0.848995
| 20>   C      5.596946    6.815038   -0.614116
| 21>   C      4.738013    5.901858    0.183532
| 22>   C      3.616894    6.300862    0.896792
| 23>   C      2.796740    5.411201    1.659012
| 24>   N      2.110178    4.711510    2.285551
| 25>   C      3.167788    7.657061    0.947235
| 26>   N      2.778228    8.750641    1.009382
| 27>   C      5.311710    4.562858    0.068596
| 28>   C      4.823979    3.416141    0.669929
| 29>   C      5.257166    2.077318    0.745752
| 30>   S      6.752736    1.389216    0.062830
| 31>   C      6.382848   -0.145744    0.770145
| 32>   C      5.148600   -0.135492    1.461257
| 33>   C      4.511247    1.108921    1.475923
| 34>   C      3.195118    1.362325    2.158238
| 35>   C      1.996638    1.337270    1.200609
| 36>   S      4.741350   -1.692013    2.195559
| 37>   C      6.248718   -2.337395    1.592655
| 38>   C      7.008049   -1.405016    0.869942
| 39>   N      8.196804   -1.976892    0.452209
| 40>   C      8.870299   -1.395138   -0.710558
| 41>   C      8.221806   -1.767278   -2.040101
| 42>   C      8.216524   -3.299266    0.924561
| 43>   C      6.982114   -3.541153    1.622506
| 44>   C      6.711449   -4.825541    2.176552
| 45>   N      5.650097   -5.297080    2.849931
| 46>   N      5.981384   -6.558716    3.096263
| 47>   C      5.053011   -7.480674    3.735061
| 48>   C      4.230990   -8.263545    2.717885
| 49>   N      7.156815   -6.970252    2.636788
| 50>   C      7.656131   -5.875595    2.041376
| 51>   C      8.914646   -5.631790    1.419222
| 52>   C      9.220165   -4.326933    0.892575
| 53>   N     10.557943   -4.336810    0.478076
| 54>   C     11.465634   -3.246449    0.133569
| 55>   C     11.784580   -3.170437   -1.358569
| 56>   C     11.064629   -5.600364    0.708543
| 57>   C     10.075227   -6.417272    1.277447
| 58>   S     10.638409   -8.022635    1.669091
| 59>   C     12.246279   -7.575161    1.086412
| 60>   C     12.309298   -6.253066    0.593856
| 61>   S     13.886029   -5.895068    0.000681
| 62>   C     14.484084   -7.519600    0.466727
| 63>   C     13.445360   -8.309523    1.022125
| 64>   C     13.469731   -9.765899    1.383975
| 65>   C     13.838236  -10.685289    0.216615
| 66>   C     15.843192   -7.718078    0.104955
| 67>   C     16.831129   -8.582023    0.543754
| 68>   C     18.154296   -8.750553   -0.070260
| 69>   C     18.626639   -8.198570   -1.249269
| 70>   C     19.954804   -8.419460   -1.731917
| 71>   N     21.030362   -8.578646   -2.143169
| 72>   C     17.850923   -7.353286   -2.103192
| 73>   N     17.249348   -6.662856   -2.819564
| 74>   C     18.937067   -9.663221    0.801116
| 75>   C     20.238518  -10.166124    0.709718
| 76>   C     20.696529  -11.039156    1.706400
| 77>   Cl    22.311333  -11.654895    1.592335
| 78>   C     19.869164  -11.414774    2.786960
| 79>   Cl    20.434423  -12.509149    4.001134
| 80>   C     18.575454  -10.895809    2.888501
| 81>   C     18.136602  -10.034234    1.896672
| 82>   C     16.827647   -9.341028    1.822100
| 83>   O     15.990665   -9.337625    2.707184
| 84>   H      8.410926    6.036363   -2.429230
| 85>   H      4.757928    8.826003   -0.431916
| 86>   H      3.905348    3.551823    1.233860
| 87>   H      3.212173    2.330013    2.681508
| 88>   H      3.059763    0.596987    2.938593
| 89>   H      2.087740    2.119750    0.432236
| 90>   H      1.065790    1.521104    1.757266
| 91>   H      1.916552    0.367103    0.686255
| 92>   H      9.918411   -1.685232   -0.709541
| 93>   H      8.859697   -0.304224   -0.567657
| 94>   H      8.220112   -2.858620   -2.185152
| 95>   H      8.781918   -1.306483   -2.868138
| 96>   H      7.183749   -1.406633   -2.090557
| 97>   H      4.412344   -6.869812    4.385139
| 98>   H      5.656662   -8.152478    4.361359
| 99>   H      3.637189   -7.581538    2.090006
|100>   H      3.542758   -8.946359    3.239774
|101>   H      4.887423   -8.859503    2.065801
|102>   H     12.394614   -3.410227    0.701569
|103>   H     11.045395   -2.314076    0.527371
|104>   H     12.276751   -4.093350   -1.699195
|105>   H     12.468124   -2.332365   -1.563157
|106>   H     10.877780   -3.034403   -1.964910
|107>   H     12.470951  -10.039595    1.759314
|108>   H     14.172701   -9.913756    2.215028
|109>   H     13.149926  -10.547522   -0.631339
|110>   H     13.783138  -11.737198    0.537342
|111>   H     14.858662  -10.492622   -0.147427
|112>   H     16.162175   -7.012829   -0.665592
|113>   H     20.918405   -9.906672   -0.097529
|114>   H     17.927379  -11.164793    3.723483
|115> *
|116> 
|117>                          ****END OF INPUT****
================================================================================

                       ****************************
                       * Single Point Calculation *
                       ****************************

---------------------------------
CARTESIAN COORDINATES (ANGSTROEM)
---------------------------------
  C      6.505162    4.642651   -0.802168
  O      7.243091    3.734487   -1.147937
  C      6.639290    6.067343   -1.195865
  C      7.615409    6.642251   -1.993429
  C      7.557499    8.021164   -2.223660
  Cl     8.774332    8.765951   -3.203398
  C      6.515369    8.784725   -1.654790
  Cl     6.422793   10.490648   -1.940033
  C      5.534382    8.190272   -0.848995
  C      5.596946    6.815038   -0.614116
  C      4.738013    5.901858    0.183532
  C      3.616894    6.300862    0.896792
  C      2.796740    5.411201    1.659012
  N      2.110178    4.711510    2.285551
  C      3.167788    7.657061    0.947235
  N      2.778228    8.750641    1.009382
  C      5.311710    4.562858    0.068596
  C      4.823979    3.416141    0.669929
  C      5.257166    2.077318    0.745752
  S      6.752736    1.389216    0.062830
  C      6.382848   -0.145744    0.770145
  C      5.148600   -0.135492    1.461257
  C      4.511247    1.108921    1.475923
  C      3.195118    1.362325    2.158238
  C      1.996638    1.337270    1.200609
  S      4.741350   -1.692013    2.195559
  C      6.248718   -2.337395    1.592655
  C      7.008049   -1.405016    0.869942
  N      8.196804   -1.976892    0.452209
  C      8.870299   -1.395138   -0.710558
  C      8.221806   -1.767278   -2.040101
  C      8.216524   -3.299266    0.924561
  C      6.982114   -3.541153    1.622506
  C      6.711449   -4.825541    2.176552
  N      5.650097   -5.297080    2.849931
  N      5.981384   -6.558716    3.096263
  C      5.053011   -7.480674    3.735061
  C      4.230990   -8.263545    2.717885
  N      7.156815   -6.970252    2.636788
  C      7.656131   -5.875595    2.041376
  C      8.914646   -5.631790    1.419222
  C      9.220165   -4.326933    0.892575
  N     10.557943   -4.336810    0.478076
  C     11.465634   -3.246449    0.133569
  C     11.784580   -3.170437   -1.358569
  C     11.064629   -5.600364    0.708543
  C     10.075227   -6.417272    1.277447
  S     10.638409   -8.022635    1.669091
  C     12.246279   -7.575161    1.086412
  C     12.309298   -6.253066    0.593856
  S     13.886029   -5.895068    0.000681
  C     14.484084   -7.519600    0.466727
  C     13.445360   -8.309523    1.022125
  C     13.469731   -9.765899    1.383975
  C     13.838236  -10.685289    0.216615
  C     15.843192   -7.718078    0.104955
  C     16.831129   -8.582023    0.543754
  C     18.154296   -8.750553   -0.070260
  C     18.626639   -8.198570   -1.249269
  C     19.954804   -8.419460   -1.731917
  N     21.030362   -8.578646   -2.143169
  C     17.850923   -7.353286   -2.103192
  N     17.249348   -6.662856   -2.819564
  C     18.937067   -9.663221    0.801116
  C     20.238518  -10.166124    0.709718
  C     20.696529  -11.039156    1.706400
  Cl    22.311333  -11.654895    1.592335
  C     19.869164  -11.414774    2.786960
  Cl    20.434423  -12.509149    4.001134
  C     18.575454  -10.895809    2.888501
  C     18.136602  -10.034234    1.896672
  C     16.827647   -9.341028    1.822100
  O     15.990665   -9.337625    2.707184
  H      8.410926    6.036363   -2.429230
  H      4.757928    8.826003   -0.431916
  H      3.905348    3.551823    1.233860
  H      3.212173    2.330013    2.681508
  H      3.059763    0.596987    2.938593
  H      2.087740    2.119750    0.432236
  H      1.065790    1.521104    1.757266
  H      1.916552    0.367103    0.686255
  H      9.918411   -1.685232   -0.709541
  H      8.859697   -0.304224   -0.567657
  H      8.220112   -2.858620   -2.185152
  H      8.781918   -1.306483   -2.868138
  H      7.183749   -1.406633   -2.090557
  H      4.412344   -6.869812    4.385139
  H      5.656662   -8.152478    4.361359
  H      3.637189   -7.581538    2.090006
  H      3.542758   -8.946359    3.239774
  H      4.887423   -8.859503    2.065801
  H     12.394614   -3.410227    0.701569
  H     11.045395   -2.314076    0.527371
  H     12.276751   -4.093350   -1.699195
  H     12.468124   -2.332365   -1.563157
  H     10.877780   -3.034403   -1.964910
  H     12.470951  -10.039595    1.759314
  H     14.172701   -9.913756    2.215028
  H     13.149926  -10.547522   -0.631339
  H     13.783138  -11.737198    0.537342
  H     14.858662  -10.492622   -0.147427
  H     16.162175   -7.012829   -0.665592
  H     20.918405   -9.906672   -0.097529
  H     17.927379  -11.164793    3.723483

----------------------------
CARTESIAN COORDINATES (A.U.)
----------------------------
  NO LB      ZA    FRAG     MASS         X           Y           Z
   0 C     6.0000    0    12.011   12.292975    8.773339   -1.515878
   1 O     8.0000    0    15.999   13.687458    7.057158   -2.169287
   2 C     6.0000    0    12.011   12.546440   11.465617   -2.259857
   3 C     6.0000    0    12.011   14.391037   12.552035   -3.767035
   4 C     6.0000    0    12.011   14.281603   15.157803   -4.202108
   5 Cl   17.0000    0    35.453   16.581084   16.565247   -6.053545
   6 C     6.0000    0    12.011   12.312263   16.600724   -3.127100
   7 Cl   17.0000    0    35.453   12.137320   19.824452   -3.666131
   8 C     6.0000    0    12.011   10.458466   15.477371   -1.604368
   9 C     6.0000    0    12.011   10.576695   12.878555   -1.160511
  10 C     6.0000    0    12.011    8.953547   11.152895    0.346825
  11 C     6.0000    0    12.011    6.834939   11.906904    1.694691
  12 C     6.0000    0    12.011    5.285073   10.225688    3.135078
  13 N     7.0000    0    14.007    3.987659    8.903464    4.319065
  14 C     6.0000    0    12.011    5.986252   14.469748    1.790015
  15 N     7.0000    0    14.007    5.250090   16.536315    1.907456
  16 C     6.0000    0    12.011   10.037677    8.622552    0.129628
  17 C     6.0000    0    12.011    9.115999    6.455571    1.265982
  18 C     6.0000    0    12.011    9.934604    3.925562    1.409267
  19 S    16.0000    0    32.060   12.760822    2.625238    0.118731
  20 C     6.0000    0    12.011   12.061835   -0.275416    1.455363
  21 C     6.0000    0    12.011    9.729444   -0.256043    2.761376
  22 C     6.0000    0    12.011    8.525021    2.095557    2.789090
  23 C     6.0000    0    12.011    6.037898    2.574421    4.078479
  24 C     6.0000    0    12.011    3.773099    2.527074    2.268822
  25 S    16.0000    0    32.060    8.959853   -3.197441    4.149005
  26 C     6.0000    0    12.011   11.808366   -4.417036    3.009682
  27 C     6.0000    0    12.011   13.243293   -2.655095    1.643952
  28 N     7.0000    0    14.007   15.489715   -3.735784    0.854551
  29 C     6.0000    0    12.011   16.762436   -2.636429   -1.342760
  30 C     6.0000    0    12.011   15.536962   -3.339671   -3.855232
  31 C     6.0000    0    12.011   15.526980   -6.234709    1.747167
  32 C     6.0000    0    12.011   13.194283   -6.691809    3.066092
  33 C     6.0000    0    12.011   12.682801   -9.118951    4.113087
  34 N     7.0000    0    14.007   10.677136  -10.010031    5.385589
  35 N     7.0000    0    14.007   11.303178  -12.394177    5.851089
  36 C     6.0000    0    12.011    9.548807  -14.136425    7.058242
  37 C     6.0000    0    12.011    7.995412  -15.615837    5.136058
  38 N     7.0000    0    14.007   13.524420  -13.171867    4.982807
  39 C     6.0000    0    12.011   14.467991  -11.103265    3.857642
  40 C     6.0000    0    12.011   16.846240  -10.642541    2.681941
  41 C     6.0000    0    12.011   17.423587   -8.176718    1.686722
  42 N     7.0000    0    14.007   19.951621   -8.195383    0.903433
  43 C     6.0000    0    12.011   21.666908   -6.134900    0.252409
  44 C     6.0000    0    12.011   22.269629   -5.991258   -2.567323
  45 C     6.0000    0    12.011   20.909119  -10.583154    1.338952
  46 C     6.0000    0    12.011   19.039420  -12.126887    2.414025
  47 S    16.0000    0    32.060   20.103680  -15.160583    3.154125
  48 C     6.0000    0    12.011   23.142113  -14.314980    2.053021
  49 C     6.0000    0    12.011   23.261202  -11.816582    1.122225
  50 S    16.0000    0    32.060   26.240792  -11.140064    0.001287
  51 C     6.0000    0    12.011   27.370952  -14.209985    0.881986
  52 C     6.0000    0    12.011   25.408048  -15.702723    1.931536
  53 C     6.0000    0    12.011   25.454103  -18.454875    2.615334
  54 C     6.0000    0    12.011   26.150476  -20.192270    0.409343
  55 C     6.0000    0    12.011   29.939294  -14.585054    0.198336
  56 C     6.0000    0    12.011   31.806224  -16.217673    1.027546
  57 C     6.0000    0    12.011   34.306648  -16.536149   -0.132772
  58 C     6.0000    0    12.011   35.199247  -15.493052   -2.360776
  59 C     6.0000    0    12.011   37.709115  -15.910474   -3.272849
  60 N     7.0000    0    14.007   39.741625  -16.211292   -4.050002
  61 C     6.0000    0    12.011   33.733356  -13.895697   -3.974457
  62 N     7.0000    0    14.007   32.596544  -12.590973   -5.328204
  63 C     6.0000    0    12.011   35.785870  -18.260841    1.513890
  64 C     6.0000    0    12.011   38.245256  -19.211190    1.341173
  65 C     6.0000    0    12.011   39.110772  -20.860982    3.224629
  66 Cl   17.0000    0    35.453   42.162309  -22.024560    3.009077
  67 C     6.0000    0    12.011   37.547278  -21.570797    5.266591
  68 Cl   17.0000    0    35.453   38.615463  -23.638866    7.561047
  69 C     6.0000    0    12.011   35.102521  -20.590095    5.458476
  70 C     6.0000    0    12.011   34.273211  -18.961954    3.584191
  71 C     6.0000    0    12.011   31.799644  -17.651985    3.443270
  72 O     8.0000    0    15.999   30.217978  -17.645554    5.115836
  73 H     1.0000    0     1.008   15.894347   11.407073   -4.590579
  74 H     1.0000    0     1.008    8.991181   16.678729   -0.816203
  75 H     1.0000    0     1.008    7.380038    6.711973    2.331657
  76 H     1.0000    0     1.008    6.070127    4.403086    5.067316
  77 H     1.0000    0     1.008    5.782114    1.128142    5.553136
  78 H     1.0000    0     1.008    3.945257    4.005747    0.816808
  79 H     1.0000    0     1.008    2.014051    2.874470    3.320751
  80 H     1.0000    0     1.008    3.621758    0.693724    1.296834
  81 H     1.0000    0     1.008   18.743080   -3.184627   -1.340838
  82 H     1.0000    0     1.008   16.742401   -0.574900   -1.072716
  83 H     1.0000    0     1.008   15.533760   -5.402009   -4.129339
  84 H     1.0000    0     1.008   16.595420   -2.468895   -5.419995
  85 H     1.0000    0     1.008   13.575318   -2.658151   -3.950580
  86 H     1.0000    0     1.008    8.338122  -12.982063    8.286712
  87 H     1.0000    0     1.008   10.689542  -15.405951    8.241774
  88 H     1.0000    0     1.008    6.873291  -14.327030    3.949539
  89 H     1.0000    0     1.008    6.694842  -16.906168    6.122286
  90 H     1.0000    0     1.008    9.235891  -16.742034    3.903798
  91 H     1.0000    0     1.008   23.422426   -6.444395    1.325773
  92 H     1.0000    0     1.008   20.872772   -4.372970    0.996587
  93 H     1.0000    0     1.008   23.199697   -7.735310   -3.211013
  94 H     1.0000    0     1.008   23.561340   -4.407531   -2.953939
  95 H     1.0000    0     1.008   20.556025   -5.734191   -3.713142
  96 H     1.0000    0     1.008   23.566682  -18.972085    3.324622
  97 H     1.0000    0     1.008   26.782523  -18.734284    4.185796
  98 H     1.0000    0     1.008   24.849759  -19.931928   -1.193058
  99 H     1.0000    0     1.008   26.046356  -22.180090    1.015429
 100 H     1.0000    0     1.008   28.078802  -19.828182   -0.278597
 101 H     1.0000    0     1.008   30.542084  -13.252326   -1.257787
 102 H     1.0000    0     1.008   39.530057  -18.720897   -0.184303
 103 H     1.0000    0     1.008   33.877837  -21.098401    7.036363

--------------------------------
INTERNAL COORDINATES (ANGSTROEM)
--------------------------------
 C      0   0   0     0.000000000000     0.00000000     0.00000000
 O      1   0   0     1.220187387780     0.00000000     0.00000000
 C      1   2   0     1.484161360182   125.77725409     0.00000000
 C      3   1   2     1.385437059098   127.93142020   358.76636714
 C      4   3   1     1.399200108287   118.32764029   180.78259223
 Cl     5   4   3     1.730686792549   119.21913613   179.38590010
 C      5   4   3     1.411620846588   119.82237510   359.54283293
 Cl     7   5   4     1.732081743670   120.38674671   180.46266453
 C      7   5   4     1.401790086070   121.25883857     0.50590782
 C      9   7   5     1.396549660232   118.87642284   359.82561682
 C     10   9   7     1.485902400157   132.03386816   179.47268499
 C     11  10   9     1.387390295402   124.49570161     0.18410998
 C     12  11  10     1.430079930297   123.95438345   179.88091451
 N     13  12  11     1.163394169594   178.44622684   183.44800949
 C     12  11  10     1.429516149991   123.01475103   359.56662749
 N     15  12  11     1.162556002784   178.34666180   182.90502243
 C     11  10   9     1.461252726911   107.09609896   180.71801741
 C     17  11  10     1.383633905099   125.93425844   179.43373279
 C     18  17  11     1.409200883347   134.62049370   184.13736587
 S     19  18  17     1.782300885201   127.16575062     2.44676254
 C     20  19  18     1.730090703798    90.37115516   176.36093890
 C     21  20  19     1.414605607776   112.32407841     1.75853079
 C     22  21  20     1.398212306030   114.16032982   357.71096267
 C     23  22  21     1.503982344006   123.61521701   180.47760399
 C     24  23  22     1.534286598086   113.43154957   261.35600288
 S     22  21  20     1.768561453030   113.41456508   179.96901622
 C     26  22  21     1.747045919993    89.03496236     0.98332836
 C     27  26  22     1.402935582117   113.53176672   359.85438988
 N     28  27  26     1.383720155483   110.23262541   178.63101902
 C     29  28  27     1.464261017657   118.07837733   156.51564877
 C     30  29  28     1.525357643144   113.55828809   283.54312871
 C     29  28  27     1.404342652696   107.43887386   359.34608269
 C     27  26  22     1.409891519792   139.19271558   178.45285424
 C     33  27  26     1.424738238023   132.77337164     2.86956512
 N     34  33  27     1.342481424105   131.44441414     0.34284917
 N     35  34  33     1.327462213055   103.27367576   179.76453055
 C     36  35  34     1.456003387941   121.60763784   184.59811008
 C     37  36  35     1.524221946456   112.10563424    92.36037042
 N     36  35  34     1.327447622576   116.83360778   359.32045834
 C     39  36  35     1.342425366733   103.30162504     0.60938689
 C     40  39  36     1.424912798373   131.42932849   176.04773941
 C     32  29  28     1.436808207092   132.51759992   185.55603945
 N     42  32  29     1.400555944407   132.75333425     5.98825340
 C     43  42  32     1.459957237336   131.17992672    11.47795068
 C     44  43  42     1.527736949250   113.41752604   250.86072073
 C     43  42  32     1.380729680858   107.91314822   178.26874219
 C     46  43  42     1.403533668739   109.97495049   359.64762658
 S     47  46  43     1.745780441416   113.49971380   182.39235561
 C     48  47  46     1.767765180848    89.23809280     1.11426476
 C     46  43  42     1.410097134361   137.21750709   184.00583707
 S     50  46  43     1.722236857982   137.72320533   354.47352880
 C     51  50  46     1.792755665495    91.57654162   179.26113743
 C     49  48  47     1.407556609865   131.13412983   179.54578926
 C     53  49  48     1.500853231171   120.60313483     5.55767312
 C     54  53  49     1.530948489246   113.75398861   116.22528244
 C     52  51  50     1.420368632480   112.31010617   178.05776086
 C     56  52  51     1.383822619195   133.59872717   158.77737837
 C     57  56  52     1.468395880880   125.61748007   172.13455214
 C     58  57  56     1.384866550978   128.14041972   353.27612888
 C     59  58  57     1.430301979034   122.85042461   178.73005100
 N     60  59  58     1.162451461982   178.61522437   191.42908086
 C     59  58  57     1.430183499849   123.97963774   358.93715223
 N     62  59  58     1.162658551729   178.19204731   178.86087879
 C     58  57  56     1.484920688132   107.46796626   174.09723282
 C     64  58  57     1.398227351762   132.32734669   180.01547524
 C     65  64  58     1.401903690797   118.79034685   180.67176277
 Cl    66  65  64     1.731974970593   118.63165896   180.22919789
 C     66  65  64     1.411818557304   121.22242319     0.13320499
 Cl    68  66  65     1.729564361330   120.93824530   179.16638781
 C     68  66  65     1.397612539299   119.95210677   358.89595152
 C     70  68  66     1.385145235623   118.17830382     1.06034585
 C     71  70  68     1.483057225344   127.32797434   181.87852671
 O     72  71  70     1.218164248281   124.83372321     7.44134354
 H      4   3   1     1.090811659928   120.88581401     0.62642191
 H      9   7   5     1.086733458912   118.19951177   179.66169480
 H     18  17  11     1.086421047314   114.84376482     2.92155768
 H     24  23  22     1.100237443132   110.51120294   138.78382620
 H     24  23  22     1.101370580819   108.17408454    23.12001995
 H     25  24  23     1.100441544078   111.07131540   298.79326079
 H     25  24  23     1.100063613756   110.02383978   179.59785014
 H     25  24  23     1.100998552497   111.27190340    58.94900162
 H     30  29  28     1.087517506833   109.66784801   159.75812848
 H     30  29  28     1.100284714790   106.63967235    45.54594573
 H     31  30  29     1.100940517558   110.93659791   300.36198019
 H     31  30  29     1.100773708779   109.70703487   180.55019288
 H     31  30  29     1.100078615013   111.17197988    61.20682201
 H     37  36  35     1.098275008373   106.22704838   330.37286410
 H     37  36  35     1.099074305505   106.66969862   214.37190148
 H     38  37  36     1.100892916814   110.68993441   299.86045045
 H     38  37  36     1.101029687493   109.83516085   180.06658884
 H     38  37  36     1.100583374538   110.60053367    60.29331920
 H     44  43  42     1.101113560757   106.96121151   129.93918944
 H     44  43  42     1.095901566499   108.19178740    16.88980742
 H     45  44  43     1.100012168426   110.73862749   299.00309142
 H     45  44  43     1.100660404877   110.43126617   179.84186824
 H     45  44  43     1.099291088583   111.88008872    59.01423086
 H     54  53  49     1.101521835343   107.97105235   354.86121638
 H     54  53  49     1.098488781080   108.86881368   239.26942637
 H     55  54  53     1.100807153186   111.20444857   302.86072585
 H     55  54  53     1.101096790666   109.85017523   183.08587599
 H     55  54  53     1.100416453952   111.73509777    63.16793582
 H     56  52  51     1.092185417179   111.64944314   340.61967020
 H     65  64  58     1.086834574387   123.02180328     1.08075196
 H     70  68  66     1.090664264659   120.93541966   180.81345712

---------------------------
INTERNAL COORDINATES (A.U.)
---------------------------
 C      0   0   0     0.000000000000     0.00000000     0.00000000
 O      1   0   0     2.305819994969     0.00000000     0.00000000
 C      1   2   0     2.804658509292   125.77725409     0.00000000
 C      3   1   2     2.618096617480   127.93142020   358.76636714
 C      4   3   1     2.644105011215   118.32764029   180.78259223
 Cl     5   4   3     3.270524061511   119.21913613   179.38590010
 C      5   4   3     2.667576804985   119.82237510   359.54283293
 Cl     7   5   4     3.273160137101   120.38674671   180.46266453
 C      7   5   4     2.648999359917   121.25883857     0.50590782
 C      9   7   5     2.639096390259   118.87642284   359.82561682
 C     10   9   7     2.807948598033   132.03386816   179.47268499
 C     11  10   9     2.621787699171   124.49570161     0.18410998
 C     12  11  10     2.702459417878   123.95438345   179.88091451
 N     13  12  11     2.198496366334   178.44622684   183.44800949
 C     12  11  10     2.701394027501   123.01475103   359.56662749
 N     15  12  11     2.196912460608   178.34666180   182.90502243
 C     11  10   9     2.761367466308   107.09609896   180.71801741
 C     17  11  10     2.614689150245   125.93425844   179.43373279
 C     18  17  11     2.663003737206   134.62049370   184.13736587
 S     19  18  17     3.368060561275   127.16575062     2.44676254
 C     20  19  18     3.269397617022    90.37115516   176.36093890
 C     21  20  19     2.673217186206   112.32407841     1.75853079
 C     22  21  20     2.642238335475   114.16032982   357.71096267
 C     23  22  21     2.842114740424   123.61521701   180.47760399
 C     24  23  22     2.899381481328   113.43154957   261.35600288
 S     22  21  20     3.342096797237   113.41456508   179.96901622
 C     26  22  21     3.301438332171    89.03496236     0.98332836
 C     27  26  22     2.651164033735   113.53176672   359.85438988
 N     28  27  26     2.614852139850   110.23262541   178.63101902
 C     29  28  27     2.767052311949   118.07837733   156.51564877
 C     30  29  28     2.882508201826   113.55828809   283.54312871
 C     29  28  27     2.653823011779   107.43887386   359.34608269
 C     27  26  22     2.664308850945   139.19271558   178.45285424
 C     33  27  26     2.692365082389   132.77337164     2.86956512
 N     34  33  27     2.536922231434   131.44441414     0.34284917
 N     35  34  33     2.508540035803   103.27367576   179.76453055
 C     36  35  34     2.751447653271   121.60763784   184.59811008
 C     37  36  35     2.880362046114   112.10563424    92.36037042
 N     36  35  34     2.508512463793   116.83360778   359.32045834
 C     39  36  35     2.536816298355   103.30162504     0.60938689
 C     40  39  36     2.692694953644   131.42932849   176.04773941
 C     32  29  28     2.715174018374   132.51759992   185.55603945
 N     42  32  29     2.646667170165   132.75333425     5.98825340
 C     43  42  32     2.758919345802   131.17992672    11.47795068
 C     44  43  42     2.887004438755   113.41752604   250.86072073
 C     43  42  32     2.609200961797   107.91314822   178.26874219
 C     46  43  42     2.652294253654   109.97495049   359.64762658
 S     47  46  43     3.299046924232   113.49971380   182.39235561
 C     48  47  46     3.340592060884    89.23809280     1.11426476
 C     46  43  42     2.664697406170   137.21750709   184.00583707
 S     50  46  43     3.254555999330   137.72320533   354.47352880
 C     51  50  46     3.387817232822    91.57654162   179.26113743
 C     49  48  47     2.659896510635   131.13412983   179.54578926
 C     53  49  48     2.836201574124   120.60313483     5.55767312
 C     54  53  49     2.893073369816   113.75398861   116.22528244
 C     52  51  50     2.684107724599   112.31010617   178.05776086
 C     56  52  51     2.615045768204   133.59872717   158.77737837
 C     57  56  52     2.774866071041   125.61748007   172.13455214
 C     58  57  56     2.617018513377   128.14041972   353.27612888
 C     59  58  57     2.702879029180   122.85042461   178.73005100
 N     60  59  58     2.196714907122   178.61522437   191.42908086
 C     59  58  57     2.702655135968   123.97963774   358.93715223
 N     62  59  58     2.197106250030   178.19204731   178.86087879
 C     58  57  56     2.806093431162   107.46796626   174.09723282
 C     64  58  57     2.642266767787   132.32734669   180.01547524
 C     65  64  58     2.649214041739   118.79034685   180.67176277
 Cl    66  65  64     3.272958365228   118.63165896   180.22919789
 C     66  65  64     2.667950424093   121.22242319     0.13320499
 Cl    68  66  65     3.268402973904   120.93824530   179.16638781
 C     68  66  65     2.641104940609   119.95210677   358.89595152
 C     70  68  66     2.617545151034   118.17830382     1.06034585
 C     71  70  68     2.802571996833   127.32797434   181.87852671
 O     72  71  70     2.301996815384   124.83372321     7.44134354
 H      4   3   1     2.061335300951   120.88581401     0.62642191
 H      9   7   5     2.053628617912   118.19951177   179.66169480
 H     18  17  11     2.053038245551   114.84376482     2.92155768
 H     24  23  22     2.079147449805   110.51120294   138.78382620
 H     24  23  22     2.081288769706   108.17408454    23.12001995
 H     25  24  23     2.079533144697   111.07131540   298.79326079
 H     25  24  23     2.078818959890   110.02383978   179.59785014
 H     25  24  23     2.080585738063   111.27190340    58.94900162
 H     30  29  28     2.055110253760   109.66784801   159.75812848
 H     30  29  28     2.079236780293   106.63967235    45.54594573
 H     31  30  29     2.080476067922   110.93659791   300.36198019
 H     31  30  29     2.080160845012   109.70703487   180.55019288
 H     31  30  29     2.078847308159   111.17197988    61.20682201
 H     37  36  35     2.075438985555   106.22704838   330.37286410
 H     37  36  35     2.076949438234   106.66969862   214.37190148
 H     38  37  36     2.080386115552   110.68993441   299.86045045
 H     38  37  36     2.080644574679   109.83516085   180.06658884
 H     38  37  36     2.079801165423   110.60053367    60.29331920
 H     44  43  42     2.080803072178   106.96121151   129.93918944
 H     44  43  42     2.070953830418   108.19178740    16.88980742
 H     45  44  43     2.078721742307   110.73862749   299.00309142
 H     45  44  43     2.079946731668   110.43126617   179.84186824
 H     45  44  43     2.077359098881   111.88008872    59.01423086
 H     54  53  49     2.081574599332   107.97105235   354.86121638
 H     54  53  49     2.075842957426   108.86881368   239.26942637
 H     55  54  53     2.080224045783   111.20444857   302.86072585
 H     55  54  53     2.080771381298   109.85017523   183.08587599
 H     55  54  53     2.079485731231   111.73509777    63.16793582
 H     56  52  51     2.063931325931   111.64944314   340.61967020
 H     65  64  58     2.053819698467   123.02180328     1.08075196
 H     70  68  66     2.061056764261   120.93541966   180.81345712

---------------------
BASIS SET INFORMATION
---------------------
There are 6 groups of distinct atoms

 Group   1 Type C   : 7s4p1d contracted to 3s2p1d pattern {511/31/1}
 Group   2 Type O   : 7s4p1d contracted to 3s2p1d pattern {511/31/1}
 Group   3 Type Cl  : 10s7p1d contracted to 4s3p1d pattern {5311/511/1}
 Group   4 Type N   : 7s4p1d contracted to 3s2p1d pattern {511/31/1}
 Group   5 Type S   : 10s7p1d contracted to 4s3p1d pattern {5311/511/1}
 Group   6 Type H   : 4s1p contracted to 2s1p pattern {31/1}

Atom   0C    basis set group =>   1
Atom   1O    basis set group =>   2
Atom   2C    basis set group =>   1
Atom   3C    basis set group =>   1
Atom   4C    basis set group =>   1
Atom   5Cl   basis set group =>   3
Atom   6C    basis set group =>   1
Atom   7Cl   basis set group =>   3
Atom   8C    basis set group =>   1
Atom   9C    basis set group =>   1
Atom  10C    basis set group =>   1
Atom  11C    basis set group =>   1
Atom  12C    basis set group =>   1
Atom  13N    basis set group =>   4
Atom  14C    basis set group =>   1
Atom  15N    basis set group =>   4
Atom  16C    basis set group =>   1
Atom  17C    basis set group =>   1
Atom  18C    basis set group =>   1
Atom  19S    basis set group =>   5
Atom  20C    basis set group =>   1
Atom  21C    basis set group =>   1
Atom  22C    basis set group =>   1
Atom  23C    basis set group =>   1
Atom  24C    basis set group =>   1
Atom  25S    basis set group =>   5
Atom  26C    basis set group =>   1
Atom  27C    basis set group =>   1
Atom  28N    basis set group =>   4
Atom  29C    basis set group =>   1
Atom  30C    basis set group =>   1
Atom  31C    basis set group =>   1
Atom  32C    basis set group =>   1
Atom  33C    basis set group =>   1
Atom  34N    basis set group =>   4
Atom  35N    basis set group =>   4
Atom  36C    basis set group =>   1
Atom  37C    basis set group =>   1
Atom  38N    basis set group =>   4
Atom  39C    basis set group =>   1
Atom  40C    basis set group =>   1
Atom  41C    basis set group =>   1
Atom  42N    basis set group =>   4
Atom  43C    basis set group =>   1
Atom  44C    basis set group =>   1
Atom  45C    basis set group =>   1
Atom  46C    basis set group =>   1
Atom  47S    basis set group =>   5
Atom  48C    basis set group =>   1
Atom  49C    basis set group =>   1
Atom  50S    basis set group =>   5
Atom  51C    basis set group =>   1
Atom  52C    basis set group =>   1
Atom  53C    basis set group =>   1
Atom  54C    basis set group =>   1
Atom  55C    basis set group =>   1
Atom  56C    basis set group =>   1
Atom  57C    basis set group =>   1
Atom  58C    basis set group =>   1
Atom  59C    basis set group =>   1
Atom  60N    basis set group =>   4
Atom  61C    basis set group =>   1
Atom  62N    basis set group =>   4
Atom  63C    basis set group =>   1
Atom  64C    basis set group =>   1
Atom  65C    basis set group =>   1
Atom  66Cl   basis set group =>   3
Atom  67C    basis set group =>   1
Atom  68Cl   basis set group =>   3
Atom  69C    basis set group =>   1
Atom  70C    basis set group =>   1
Atom  71C    basis set group =>   1
Atom  72O    basis set group =>   2
Atom  73H    basis set group =>   6
Atom  74H    basis set group =>   6
Atom  75H    basis set group =>   6
Atom  76H    basis set group =>   6
Atom  77H    basis set group =>   6
Atom  78H    basis set group =>   6
Atom  79H    basis set group =>   6
Atom  80H    basis set group =>   6
Atom  81H    basis set group =>   6
Atom  82H    basis set group =>   6
Atom  83H    basis set group =>   6
Atom  84H    basis set group =>   6
Atom  85H    basis set group =>   6
Atom  86H    basis set group =>   6
Atom  87H    basis set group =>   6
Atom  88H    basis set group =>   6
Atom  89H    basis set group =>   6
Atom  90H    basis set group =>   6
Atom  91H    basis set group =>   6
Atom  92H    basis set group =>   6
Atom  93H    basis set group =>   6
Atom  94H    basis set group =>   6
Atom  95H    basis set group =>   6
Atom  96H    basis set group =>   6
Atom  97H    basis set group =>   6
Atom  98H    basis set group =>   6
Atom  99H    basis set group =>   6
Atom 100H    basis set group =>   6
Atom 101H    basis set group =>   6
Atom 102H    basis set group =>   6
Atom 103H    basis set group =>   6
---------------------------------
AUXILIARY/J BASIS SET INFORMATION
---------------------------------
There are 6 groups of distinct atoms

 Group   1 Type C   : 12s5p4d2f1g contracted to 6s4p3d1f1g pattern {711111/2111/211/2/1}
 Group   2 Type O   : 12s5p4d2f1g contracted to 6s4p3d1f1g pattern {711111/2111/211/2/1}
 Group   3 Type Cl  : 14s5p5d2f1g contracted to 8s4p3d1f1g pattern {71111111/2111/311/2/1}
 Group   4 Type N   : 12s5p4d2f1g contracted to 6s4p3d1f1g pattern {711111/2111/211/2/1}
 Group   5 Type S   : 14s5p5d2f1g contracted to 8s4p3d1f1g pattern {71111111/2111/311/2/1}
 Group   6 Type H   : 5s2p1d contracted to 3s1p1d pattern {311/2/1}

Atom   0C    basis set group =>   1
Atom   1O    basis set group =>   2
Atom   2C    basis set group =>   1
Atom   3C    basis set group =>   1
Atom   4C    basis set group =>   1
Atom   5Cl   basis set group =>   3
Atom   6C    basis set group =>   1
Atom   7Cl   basis set group =>   3
Atom   8C    basis set group =>   1
Atom   9C    basis set group =>   1
Atom  10C    basis set group =>   1
Atom  11C    basis set group =>   1
Atom  12C    basis set group =>   1
Atom  13N    basis set group =>   4
Atom  14C    basis set group =>   1
Atom  15N    basis set group =>   4
Atom  16C    basis set group =>   1
Atom  17C    basis set group =>   1
Atom  18C    basis set group =>   1
Atom  19S    basis set group =>   5
Atom  20C    basis set group =>   1
Atom  21C    basis set group =>   1
Atom  22C    basis set group =>   1
Atom  23C    basis set group =>   1
Atom  24C    basis set group =>   1
Atom  25S    basis set group =>   5
Atom  26C    basis set group =>   1
Atom  27C    basis set group =>   1
Atom  28N    basis set group =>   4
Atom  29C    basis set group =>   1
Atom  30C    basis set group =>   1
Atom  31C    basis set group =>   1
Atom  32C    basis set group =>   1
Atom  33C    basis set group =>   1
Atom  34N    basis set group =>   4
Atom  35N    basis set group =>   4
Atom  36C    basis set group =>   1
Atom  37C    basis set group =>   1
Atom  38N    basis set group =>   4
Atom  39C    basis set group =>   1
Atom  40C    basis set group =>   1
Atom  41C    basis set group =>   1
Atom  42N    basis set group =>   4
Atom  43C    basis set group =>   1
Atom  44C    basis set group =>   1
Atom  45C    basis set group =>   1
Atom  46C    basis set group =>   1
Atom  47S    basis set group =>   5
Atom  48C    basis set group =>   1
Atom  49C    basis set group =>   1
Atom  50S    basis set group =>   5
Atom  51C    basis set group =>   1
Atom  52C    basis set group =>   1
Atom  53C    basis set group =>   1
Atom  54C    basis set group =>   1
Atom  55C    basis set group =>   1
Atom  56C    basis set group =>   1
Atom  57C    basis set group =>   1
Atom  58C    basis set group =>   1
Atom  59C    basis set group =>   1
Atom  60N    basis set group =>   4
Atom  61C    basis set group =>   1
Atom  62N    basis set group =>   4
Atom  63C    basis set group =>   1
Atom  64C    basis set group =>   1
Atom  65C    basis set group =>   1
Atom  66Cl   basis set group =>   3
Atom  67C    basis set group =>   1
Atom  68Cl   basis set group =>   3
Atom  69C    basis set group =>   1
Atom  70C    basis set group =>   1
Atom  71C    basis set group =>   1
Atom  72O    basis set group =>   2
Atom  73H    basis set group =>   6
Atom  74H    basis set group =>   6
Atom  75H    basis set group =>   6
Atom  76H    basis set group =>   6
Atom  77H    basis set group =>   6
Atom  78H    basis set group =>   6
Atom  79H    basis set group =>   6
Atom  80H    basis set group =>   6
Atom  81H    basis set group =>   6
Atom  82H    basis set group =>   6
Atom  83H    basis set group =>   6
Atom  84H    basis set group =>   6
Atom  85H    basis set group =>   6
Atom  86H    basis set group =>   6
Atom  87H    basis set group =>   6
Atom  88H    basis set group =>   6
Atom  89H    basis set group =>   6
Atom  90H    basis set group =>   6
Atom  91H    basis set group =>   6
Atom  92H    basis set group =>   6
Atom  93H    basis set group =>   6
Atom  94H    basis set group =>   6
Atom  95H    basis set group =>   6
Atom  96H    basis set group =>   6
Atom  97H    basis set group =>   6
Atom  98H    basis set group =>   6
Atom  99H    basis set group =>   6
Atom 100H    basis set group =>   6
Atom 101H    basis set group =>   6
Atom 102H    basis set group =>   6
Atom 103H    basis set group =>   6
------------------------------------------------------------------------------
                           ORCA GTO INTEGRAL CALCULATION
                           -- RI-GTO INTEGRALS CHOSEN --
------------------------------------------------------------------------------

                         BASIS SET STATISTICS AND STARTUP INFO

Gaussian basis set:
 # of primitive gaussian shells          ... 1079
 # of primitive gaussian functions       ... 2065
 # of contracted shells                  ...  547
 # of contracted basis functions         ... 1209
 Highest angular momentum                ...    2
 Maximum contraction depth               ...    5
Auxiliary gaussian basis set:
 # of primitive gaussian shells          ... 2024
 # of primitive gaussian functions       ... 5662
 # of contracted shells                  ... 1266
 # of contracted aux-basis functions     ... 3934
 Highest angular momentum                ...    4
 Maximum contraction depth               ...    7
Ratio of auxiliary to basis functions    ...  3.25
Integral package used                  ... LIBINT
 One Electron integrals                  ... done
 Ordering auxiliary basis shells         ... done
 Integral threshhold             Thresh  ...  2.500e-11
 Primitive cut-off               TCut    ...  2.500e-12
 Pre-screening matrix                    ... done
 Shell pair data                         ... 
 Ordering of the shell pairs             ... done (   0.011 sec) 48067 of 149878 pairs
 Determination of significant pairs      ... done (   0.000 sec)
 Creation of shell pair data             ... done (   0.008 sec)
 Storage of shell pair data              ... done (   0.013 sec)
 Shell pair data done in (   0.033 sec)
 Computing two index integrals           ... done
 Cholesky decomposition of the V-matrix  ... done


Timings:
 Total evaluation time                   ...   2.537 sec (  0.042 min)
 One electron matrix time                ...   0.616 sec (  0.010 min) = 24.3%
 Schwartz matrix evaluation time         ...   0.808 sec (  0.013 min) = 31.8%
 Two index repulsion integral time       ...   0.491 sec (  0.008 min) = 19.4%
 Cholesky decomposition of V             ...   0.571 sec (  0.010 min) = 22.5%
 Three index repulsion integral time     ...   0.000 sec (  0.000 min) =  0.0%

-------------------------------------------------------------------------------
                                 ORCA SCF
-------------------------------------------------------------------------------

------------
SCF SETTINGS
------------
Hamiltonian:
 Density Functional     Method          .... DFT(GTOs)
 Exchange Functional    Exchange        .... WB88
 Correlation Functional Correlation     .... LYP
 LDA part of GGA corr.  LDAOpt          .... VWN-5
 Gradients option       PostSCFGGA      .... off
 Hybrid DFT is turned on
   Fraction HF Exchange ScalHFX         ....  0.190000
   Scaling of DF-GGA-X  ScalDFX         ....  0.350000
   Scaling of DF-GGA-C  ScalDFC         ....  0.810000
   Scaling of DF-LDA-C  ScalLDAC        ....  1.000000
   Perturbative correction              ....  0.000000
   Density functional embedding theory  .... OFF
 Long-range corrected/Screened/Range-Separated Hybrid DFT is turned on
   Amount of maximum screened exact exchange              ....  0.460000
   Range separation parameter mu (erf(mu*r12)/r12)        ....  0.330000
 RI-approximation to the Coulomb term is turned on
   Number of auxiliary basis functions  .... 3934
   RIJ-COSX (HFX calculated with COS-X)).... on


General Settings:
 Integral files         IntName         .... Y15
 Hartree-Fock type      HFTyp           .... RHF
 Total Charge           Charge          ....    0
 Multiplicity           Mult            ....    1
 Number of Electrons    NEL             ....  566
 Basis Dimension        Dim             .... 1209
 Nuclear Repulsion      ENuc            ....  11842.9348828965 Eh

Convergence Acceleration:
 DIIS                   CNVDIIS         .... on
   Start iteration      DIISMaxIt       ....    12
   Startup error        DIISStart       ....  0.200000
   # of expansion vecs  DIISMaxEq       ....     5
   Bias factor          DIISBfac        ....   1.050
   Max. coefficient     DIISMaxC        ....  10.000
 Newton-Raphson         CNVNR           .... off
 SOSCF                  CNVSOSCF        .... on
   Start iteration      SOSCFMaxIt      ....   150
   Startup grad/error   SOSCFStart      ....  0.003300
 Level Shifting         CNVShift        .... on
   Level shift para.    LevelShift      ....    0.2500
   Turn off err/grad.   ShiftErr        ....    0.0010
 Zerner damping         CNVZerner       .... off
 Static damping         CNVDamp         .... on
   Fraction old density DampFac         ....    0.7000
   Max. Damping (<1)    DampMax         ....    0.9800
   Min. Damping (>=0)   DampMin         ....    0.0000
   Turn off err/grad.   DampErr         ....    0.1000
 Fernandez-Rico         CNVRico         .... off

SCF Procedure:
 Maximum # iterations   MaxIter         ....   125
 SCF integral mode      SCFMode         .... Direct
   Integral package                     .... LIBINT
 Reset frequency        DirectResetFreq ....    20
 Integral Threshold     Thresh          ....  2.500e-11 Eh
 Primitive CutOff       TCut            ....  2.500e-12 Eh

Convergence Tolerance:
 Convergence Check Mode ConvCheckMode   .... Total+1el-Energy
 Convergence forced     ConvForced      .... 1
 Energy Change          TolE            ....  1.000e-08 Eh
 1-El. energy change                    ....  1.000e-05 Eh
 Orbital Gradient       TolG            ....  1.000e-05
 Orbital Rotation angle TolX            ....  1.000e-05
 DIIS Error             TolErr          ....  5.000e-07


Diagonalization of the overlap matrix:
Smallest eigenvalue                        ... 1.009e-04
Time for diagonalization                   ...    0.572 sec
Threshold for overlap eigenvalues          ... 1.000e-08
Number of eigenvalues below threshold      ... 0
Time for construction of square roots      ...    0.189 sec
Total time needed                          ...    0.766 sec

-------------------
DFT GRID GENERATION
-------------------

General Integration Accuracy     IntAcc      ...  4.670
Radial Grid Type                 RadialGrid  ... Gauss-Chebyshev
Angular Grid (max. acc.)         AngularGrid ... Lebedev-302
Angular grid pruning method      GridPruning ... 3 (G Style)
Weight generation scheme         WeightScheme... Becke
Basis function cutoff            BFCut       ...    1.0000e-11
Integration weight cutoff        WCut        ...    1.0000e-14
Grids for H and He will be reduced by one unit

# of grid points (after initial pruning)     ... 563330 (   1.6 sec)
# of grid points (after weights+screening)   ... 482144 (  25.2 sec)
nearest neighbour list constructed           ...    0.0 sec
Grid point re-assignment to atoms done       ...    0.1 sec
Grid point division into batches done        ...    1.8 sec
Reduced shell lists constructed in    9.6 sec

Total number of grid points                  ...   482144
Total number of batches                      ...     7584
Average number of points per batch           ...       63
Average number of grid points per atom       ...     4636
Average number of shells per batch           ...    94.80 (17.33%)
Average number of basis functions per batch  ...   195.99 (16.21%)
Average number of large shells per batch     ...    56.87 (59.99%)
Average number of large basis fcns per batch ...   119.32 (60.88%)
Maximum spatial batch extension              ...  21.62, 23.04, 27.19 au
Average spatial batch extension              ...   2.16,  2.14,  2.28 au

Time for grid setup =   36.412 sec

------------------------------
INITIAL GUESS: MODEL POTENTIAL
------------------------------
Loading Hartree-Fock densities                     ... done
Calculating cut-offs                               ... done
Setting up the integral package                    ... done
Initializing the effective Hamiltonian             ... done
Starting the Coulomb interaction                   ... done (   9.4 sec)
Reading the grid                                   ... done
Mapping shells                                     ... done
Starting the XC term evaluation                    ... done (   9.6 sec)
  promolecular density results
     # of electrons  =    565.985315333
     EX              =   -569.700731864
     EC              =    -19.930310577
     EX+EC           =   -589.631042440
Transforming the Hamiltonian                       ... done (   0.2 sec)
Diagonalizing the Hamiltonian                      ... done (   0.5 sec)
Back transforming the eigenvectors                 ... done (   0.1 sec)
Now organizing SCF variables                       ... done
                      ------------------
                      INITIAL GUESS DONE (  56.4 sec)
                      ------------------
--------------------
COSX GRID GENERATION
--------------------

General Integration Accuracy     IntAcc      ...  3.340
Radial Grid Type                 RadialGrid  ... Gauss-Chebyshev
Angular Grid (max. acc.)         AngularGrid ... Lebedev-50
Angular grid pruning method      GridPruning ... 3 (G Style)
Weight generation scheme         WeightScheme... Becke
Basis function cutoff            BFCut       ...    1.0000e-11
Integration weight cutoff        WCut        ...    1.0000e-14
Grids for H and He will be reduced by one unit

# of grid points (after initial pruning)     ...  53142 (   0.1 sec)
# of grid points (after weights+screening)   ...  47502 (   2.3 sec)
nearest neighbour list constructed           ...    0.0 sec
Grid point re-assignment to atoms done       ...    0.0 sec
Grid point division into batches done        ...    0.0 sec
Reduced shell lists constructed in    1.2 sec

Total number of grid points                  ...    47502
Total number of batches                      ...      796
Average number of points per batch           ...       59
Average number of grid points per atom       ...      457
Average number of shells per batch           ...   115.87 (21.18%)
Average number of basis functions per batch  ...   242.30 (20.04%)
Average number of large shells per batch     ...    69.63 (60.10%)
Average number of large basis fcns per batch ...   148.28 (61.20%)
Maximum spatial batch extension              ...  19.48, 23.67, 22.97 au
Average spatial batch extension              ...   4.46,  4.39,  5.17 au

Overlap Fitting                  UseSFitting ... on
Constructing numerical overlap ... done (      0.7 sec)
Inverting numerical overlap    ... done (      0.1 sec)
Obtaining analytic overlap     ... done (      0.0 sec)
Final contraction and storage  ... done (      0.1 sec)


General Integration Accuracy     IntAcc      ...  3.670
Radial Grid Type                 RadialGrid  ... Gauss-Chebyshev
Angular Grid (max. acc.)         AngularGrid ... Lebedev-50
Angular grid pruning method      GridPruning ... 3 (G Style)
Weight generation scheme         WeightScheme... Becke
Basis function cutoff            BFCut       ...    1.0000e-11
Integration weight cutoff        WCut        ...    1.0000e-14
Grids for H and He will be reduced by one unit

# of grid points (after initial pruning)     ...  66318 (   0.1 sec)
# of grid points (after weights+screening)   ...  59025 (   2.9 sec)
nearest neighbour list constructed           ...    0.0 sec
Grid point re-assignment to atoms done       ...    0.0 sec
Grid point division into batches done        ...    0.0 sec
Reduced shell lists constructed in    1.4 sec

Total number of grid points                  ...    59025
Total number of batches                      ...      976
Average number of points per batch           ...       60
Average number of grid points per atom       ...      568
Average number of shells per batch           ...   113.28 (20.71%)
Average number of basis functions per batch  ...   236.56 (19.57%)
Average number of large shells per batch     ...    68.06 (60.08%)
Average number of large basis fcns per batch ...   144.65 (61.15%)
Maximum spatial batch extension              ...  20.38, 25.38, 31.86 au
Average spatial batch extension              ...   4.19,  4.13,  4.82 au

Overlap Fitting                  UseSFitting ... on
Constructing numerical overlap ... done (      0.8 sec)
Inverting numerical overlap    ... done (      0.1 sec)
Obtaining analytic overlap     ... done (      0.0 sec)
Final contraction and storage  ... done (      0.1 sec)


General Integration Accuracy     IntAcc      ...  4.010
Radial Grid Type                 RadialGrid  ... Gauss-Chebyshev
Angular Grid (max. acc.)         AngularGrid ... Lebedev-110
Angular grid pruning method      GridPruning ... 3 (G Style)
Weight generation scheme         WeightScheme... Becke
Basis function cutoff            BFCut       ...    1.0000e-11
Integration weight cutoff        WCut        ...    1.0000e-14
Grids for H and He will be reduced by one unit

# of grid points (after initial pruning)     ... 129188 (   0.2 sec)
# of grid points (after weights+screening)   ... 113942 (   5.8 sec)
nearest neighbour list constructed           ...    0.0 sec
Grid point re-assignment to atoms done       ...    0.0 sec
Grid point division into batches done        ...    0.1 sec
Reduced shell lists constructed in    2.4 sec

Total number of grid points                  ...   113942
Total number of batches                      ...     1833
Average number of points per batch           ...       62
Average number of grid points per atom       ...     1096
Average number of shells per batch           ...   107.05 (19.57%)
Average number of basis functions per batch  ...   223.09 (18.45%)
Average number of large shells per batch     ...    64.65 (60.39%)
Average number of large basis fcns per batch ...   136.93 (61.38%)
Maximum spatial batch extension              ...  20.15, 19.86, 24.84 au
Average spatial batch extension              ...   3.47,  3.39,  3.81 au

Overlap Fitting                  UseSFitting ... on
Constructing numerical overlap ... done (      1.4 sec)
Inverting numerical overlap    ... done (      0.1 sec)
Obtaining analytic overlap     ... done (      0.0 sec)
Final contraction and storage  ... done (      0.1 sec)

Time for X-Grid setup             =   19.837 sec
--------------
SCF ITERATIONS
--------------
ITER       Energy         Delta-E        Max-DP      RMS-DP      [F,P]     Damp
               ***  Starting incremental Fock matrix formation  ***
  0  -6147.4943771245   0.000000000000 0.07771033  0.00085699  0.2279249 0.7000
  1  -6148.0170267126  -0.522649588094 0.04371584  0.00060102  0.0965560 0.7000
                               ***Turning on DIIS***
  2  -6148.2396367899  -0.222610077293 0.07600358  0.00110067  0.0400351 0.0000
  3  -6148.6153171740  -0.375680384097 0.04175209  0.00043434  0.0510524 0.0000
  4  -6148.6788286931  -0.063511519156 0.01574692  0.00014419  0.0231720 0.0000
  5  -6148.6846503994  -0.005821706211 0.00628447  0.00005877  0.0068577 0.0000
                      *** Initiating the SOSCF procedure ***
                           *** Shutting down DIIS ***
                      *** Re-Reading the Fockian *** 
                      *** Removing any level shift *** 
ITER      Energy       Delta-E        Grad      Rot      Max-DP    RMS-DP
  6  -6148.68559905  -0.0009486518  0.003139  0.003139  0.002534  0.000032
               *** Restarting incremental Fock matrix formation ***
  7  -6148.68591338  -0.0003143248  0.002130  0.014068  0.002301  0.000034
  8  -6148.68613839  -0.0002250152  0.000715  0.012713  0.002078  0.000037
  9  -6148.68614524  -0.0000068494  0.000776  0.004207  0.001268  0.000014
 10  -6148.68619755  -0.0000523089  0.000209  0.001447  0.000829  0.000007
 11  -6148.68619565   0.0000019010  0.000172  0.001037  0.000519  0.000004
 12  -6148.68620110  -0.0000054477  0.000022  0.000092  0.000144  0.000002
 13  -6148.68620102   0.0000000714  0.000027  0.000080  0.000075  0.000001
 14  -6148.68620120  -0.0000001721  0.000005  0.000037  0.000026  0.000000
 15  -6148.68620118   0.0000000123  0.000005  0.000010  0.000016  0.000000
                  ***Gradient check signals convergence***
              ***Rediagonalizing the Fockian in SOSCF/NRSCF***

               *****************************************************
               *                     SUCCESS                       *
               *           SCF CONVERGED AFTER  16 CYCLES          *
               *****************************************************

Setting up the final grid:

General Integration Accuracy     IntAcc      ...  5.010
Radial Grid Type                 RadialGrid  ... Gauss-Chebyshev
Angular Grid (max. acc.)         AngularGrid ... Lebedev-434
Angular grid pruning method      GridPruning ... 3 (G Style)
Weight generation scheme         WeightScheme... Becke
Basis function cutoff            BFCut       ...    1.0000e-11
Integration weight cutoff        WCut        ...    1.0000e-14
Grids for H and He will be reduced by one unit

# of grid points (after initial pruning)     ... 996634 (   2.0 sec)
# of grid points (after weights+screening)   ... 850026 (  44.4 sec)
nearest neighbour list constructed           ...    0.0 sec
Grid point re-assignment to atoms done       ...    0.1 sec
Grid point division into batches done        ...    5.7 sec
Reduced shell lists constructed in   18.6 sec

Total number of grid points                  ...   850026
Total number of batches                      ...    13334
Average number of points per batch           ...       63
Average number of grid points per atom       ...     8173
Average number of shells per batch           ...    91.30 (16.69%)
Average number of basis functions per batch  ...   188.22 (15.57%)
Average number of large shells per batch     ...    54.70 (59.92%)
Average number of large basis fcns per batch ...   114.43 (60.79%)
Maximum spatial batch extension              ...  24.79, 21.29, 25.56 au
Average spatial batch extension              ...   1.76,  1.75,  1.84 au

Final grid set up in   65.1 sec
Final integration                            ... done (  23.3 sec)
Change in XC energy                          ...    -0.000017041
Integrated number of electrons               ...   566.000144006
Previous integrated no of electrons          ...   566.000249965
Old exchange energy                            =   -154.064632765 Eh
New exchange energy                            =   -154.061730729 Eh
Exchange energy change after final integration =      0.002902036 Eh
Total energy after final integration           =  -6148.683316169 Eh
Final COS-X integration done in                =   420.844 sec

----------------
TOTAL SCF ENERGY
----------------

Total Energy       :        -6148.68331617 Eh         -167314.17912 eV

Components:
Nuclear Repulsion  :        11842.93488290 Eh          322262.64168 eV
Electronic Energy  :       -17991.61819907 Eh         -489576.82080 eV
One Electron Energy:       -32023.60768799 Eh         -871406.66665 eV
Two Electron Energy:        14031.98948892 Eh          381829.84585 eV

Virial components:
Potential Energy   :       -12261.45777228 Eh         -333651.22848 eV
Kinetic Energy     :         6112.77445611 Eh          166337.04936 eV
Virial Ratio       :            2.00587440


DFT components:
N(Alpha)           :      283.000072002964 electrons
N(Beta)            :      283.000072002964 electrons
N(Total)           :      566.000144005928 electrons
E(XC)              :     -443.826633899188 Eh       
DFET-embed. en.    :        0.000000000000 Eh       

---------------
SCF CONVERGENCE
---------------

  Last Energy change         ...    2.0656e-08  Tolerance :   1.0000e-08
  Last MAX-Density change    ...    8.4377e-15  Tolerance :   1.0000e-07
  Last RMS-Density change    ...    3.6778e-17  Tolerance :   5.0000e-09
  Last Orbital Gradient      ...    6.5566e-07  Tolerance :   1.0000e-05
  Last Orbital Rotation      ...    5.5138e-06  Tolerance :   1.0000e-05

             **** THE GBW FILE WAS UPDATED (Y15.gbw) ****
             **** DENSITY FILE WAS UPDATED (Y15.scfp) ****
             **** ENERGY FILE WAS UPDATED (Y15.en.tmp) ****
             **** THE GBW FILE WAS UPDATED (Y15.gbw) ****
             **** DENSITY FILE WAS UPDATED (Y15.scfp) ****
----------------
ORBITAL ENERGIES
----------------

  NO   OCC          E(Eh)            E(eV) 
   0   2.0000    -101.600820     -2764.6989 
   1   2.0000    -101.600254     -2764.6835 
   2   2.0000    -101.598391     -2764.6328 
   3   2.0000    -101.597577     -2764.6106 
   4   2.0000     -88.978062     -2421.2162 
   5   2.0000     -88.973628     -2421.0955 
   6   2.0000     -88.969638     -2420.9869 
   7   2.0000     -88.969089     -2420.9720 
   8   2.0000     -19.222878      -523.0811 
   9   2.0000     -19.222587      -523.0732 
  10   2.0000     -14.529805      -395.3761 
  11   2.0000     -14.488246      -394.2452 
  12   2.0000     -14.484021      -394.1303 
  13   2.0000     -14.446020      -393.0962 
  14   2.0000     -14.445377      -393.0787 
  15   2.0000     -14.426673      -392.5697 
  16   2.0000     -14.425184      -392.5292 
  17   2.0000     -14.422198      -392.4479 
  18   2.0000     -14.419211      -392.3667 
  19   2.0000     -10.374295      -282.2989 
  20   2.0000     -10.372834      -282.2592 
  21   2.0000     -10.359140      -281.8865 
  22   2.0000     -10.358558      -281.8707 
  23   2.0000     -10.358395      -281.8663 
  24   2.0000     -10.357679      -281.8468 
  25   2.0000     -10.352662      -281.7102 
  26   2.0000     -10.352154      -281.6964 
  27   2.0000     -10.350381      -281.6482 
  28   2.0000     -10.348997      -281.6105 
  29   2.0000     -10.345642      -281.5192 
  30   2.0000     -10.344402      -281.4855 
  31   2.0000     -10.341982      -281.4196 
  32   2.0000     -10.335243      -281.2362 
  33   2.0000     -10.333106      -281.1781 
  34   2.0000     -10.331301      -281.1290 
  35   2.0000     -10.331247      -281.1275 
  36   2.0000     -10.330078      -281.0957 
  37   2.0000     -10.328922      -281.0643 
  38   2.0000     -10.327479      -281.0250 
  39   2.0000     -10.327279      -281.0195 
  40   2.0000     -10.327084      -281.0142 
  41   2.0000     -10.326080      -280.9869 
  42   2.0000     -10.325367      -280.9675 
  43   2.0000     -10.324793      -280.9519 
  44   2.0000     -10.323592      -280.9192 
  45   2.0000     -10.321879      -280.8726 
  46   2.0000     -10.319586      -280.8102 
  47   2.0000     -10.319476      -280.8072 
  48   2.0000     -10.318179      -280.7719 
  49   2.0000     -10.317120      -280.7431 
  50   2.0000     -10.316920      -280.7377 
  51   2.0000     -10.314485      -280.6714 
  52   2.0000     -10.313722      -280.6506 
  53   2.0000     -10.313026      -280.6317 
  54   2.0000     -10.312024      -280.6044 
  55   2.0000     -10.311529      -280.5910 
  56   2.0000     -10.311215      -280.5824 
  57   2.0000     -10.310390      -280.5600 
  58   2.0000     -10.307882      -280.4917 
  59   2.0000     -10.307287      -280.4755 
  60   2.0000     -10.305672      -280.4316 
  61   2.0000     -10.302671      -280.3499 
  62   2.0000     -10.301984      -280.3312 
  63   2.0000     -10.301208      -280.3101 
  64   2.0000     -10.300161      -280.2816 
  65   2.0000     -10.299456      -280.2624 
  66   2.0000     -10.291868      -280.0560 
  67   2.0000     -10.286927      -279.9215 
  68   2.0000     -10.285525      -279.8834 
  69   2.0000     -10.277628      -279.6685 
  70   2.0000     -10.277593      -279.6675 
  71   2.0000     -10.269211      -279.4394 
  72   2.0000     -10.268557      -279.4216 
  73   2.0000      -9.555476      -260.0177 
  74   2.0000      -9.554898      -260.0020 
  75   2.0000      -9.553082      -259.9526 
  76   2.0000      -9.552228      -259.9293 
  77   2.0000      -8.072233      -219.6566 
  78   2.0000      -8.066143      -219.4909 
  79   2.0000      -8.063164      -219.4098 
  80   2.0000      -8.062685      -219.3968 
  81   2.0000      -7.325949      -199.3492 
  82   2.0000      -7.325365      -199.3333 
  83   2.0000      -7.323592      -199.2851 
  84   2.0000      -7.322734      -199.2617 
  85   2.0000      -7.315732      -199.0712 
  86   2.0000      -7.315156      -199.0555 
  87   2.0000      -7.315031      -199.0521 
  88   2.0000      -7.314457      -199.0365 
  89   2.0000      -7.313292      -199.0048 
  90   2.0000      -7.312632      -198.9868 
  91   2.0000      -7.312435      -198.9815 
  92   2.0000      -7.311792      -198.9640 
  93   2.0000      -6.041836      -164.4067 
  94   2.0000      -6.037799      -164.2969 
  95   2.0000      -6.035937      -164.2462 
  96   2.0000      -6.033795      -164.1879 
  97   2.0000      -6.033138      -164.1700 
  98   2.0000      -6.032646      -164.1567 
  99   2.0000      -6.031575      -164.1275 
 100   2.0000      -6.029158      -164.0617 
 101   2.0000      -6.028724      -164.0499 
 102   2.0000      -6.027706      -164.0222 
 103   2.0000      -6.024032      -163.9222 
 104   2.0000      -6.023505      -163.9079 
 105   2.0000      -1.201101       -32.6836 
 106   2.0000      -1.134800       -30.8795 
 107   2.0000      -1.133405       -30.8415 
 108   2.0000      -1.106949       -30.1216 
 109   2.0000      -1.094975       -29.7958 
 110   2.0000      -1.024983       -27.8912 
 111   2.0000      -1.023750       -27.8577 
 112   2.0000      -1.013455       -27.5775 
 113   2.0000      -1.011930       -27.5360 
 114   2.0000      -1.011179       -27.5156 
 115   2.0000      -1.008766       -27.4499 
 116   2.0000      -0.993830       -27.0435 
 117   2.0000      -0.993176       -27.0257 
 118   2.0000      -0.985823       -26.8256 
 119   2.0000      -0.984453       -26.7883 
 120   2.0000      -0.983923       -26.7739 
 121   2.0000      -0.975052       -26.5325 
 122   2.0000      -0.958513       -26.0825 
 123   2.0000      -0.957700       -26.0603 
 124   2.0000      -0.955302       -25.9951 
 125   2.0000      -0.952796       -25.9269 
 126   2.0000      -0.931465       -25.3464 
 127   2.0000      -0.929105       -25.2822 
 128   2.0000      -0.925326       -25.1794 
 129   2.0000      -0.909977       -24.7617 
 130   2.0000      -0.897532       -24.4231 
 131   2.0000      -0.897521       -24.4228 
 132   2.0000      -0.895309       -24.3626 
 133   2.0000      -0.892180       -24.2774 
 134   2.0000      -0.877908       -23.8891 
 135   2.0000      -0.868765       -23.6403 
 136   2.0000      -0.865450       -23.5501 
 137   2.0000      -0.857090       -23.3226 
 138   2.0000      -0.856052       -23.2944 
 139   2.0000      -0.849717       -23.1220 
 140   2.0000      -0.846262       -23.0280 
 141   2.0000      -0.831334       -22.6218 
 142   2.0000      -0.826705       -22.4958 
 143   2.0000      -0.817396       -22.2425 
 144   2.0000      -0.806135       -21.9361 
 145   2.0000      -0.801622       -21.8133 
 146   2.0000      -0.796910       -21.6850 
 147   2.0000      -0.780286       -21.2327 
 148   2.0000      -0.769825       -20.9480 
 149   2.0000      -0.763888       -20.7864 
 150   2.0000      -0.761850       -20.7310 
 151   2.0000      -0.759610       -20.6700 
 152   2.0000      -0.752027       -20.4637 
 153   2.0000      -0.734017       -19.9736 
 154   2.0000      -0.731264       -19.8987 
 155   2.0000      -0.723145       -19.6778 
 156   2.0000      -0.717031       -19.5114 
 157   2.0000      -0.714081       -19.4311 
 158   2.0000      -0.704456       -19.1692 
 159   2.0000      -0.697866       -18.9899 
 160   2.0000      -0.695151       -18.9160 
 161   2.0000      -0.692383       -18.8407 
 162   2.0000      -0.691518       -18.8172 
 163   2.0000      -0.682998       -18.5853 
 164   2.0000      -0.672547       -18.3009 
 165   2.0000      -0.664210       -18.0741 
 166   2.0000      -0.652328       -17.7508 
 167   2.0000      -0.649929       -17.6855 
 168   2.0000      -0.648701       -17.6521 
 169   2.0000      -0.645098       -17.5540 
 170   2.0000      -0.630164       -17.1476 
 171   2.0000      -0.623589       -16.9687 
 172   2.0000      -0.618774       -16.8377 
 173   2.0000      -0.617437       -16.8013 
 174   2.0000      -0.613856       -16.7039 
 175   2.0000      -0.604616       -16.4524 
 176   2.0000      -0.602036       -16.3822 
 177   2.0000      -0.599719       -16.3192 
 178   2.0000      -0.588569       -16.0158 
 179   2.0000      -0.586383       -15.9563 
 180   2.0000      -0.583127       -15.8677 
 181   2.0000      -0.580009       -15.7829 
 182   2.0000      -0.576840       -15.6966 
 183   2.0000      -0.570688       -15.5292 
 184   2.0000      -0.568764       -15.4768 
 185   2.0000      -0.562680       -15.3113 
 186   2.0000      -0.556694       -15.1484 
 187   2.0000      -0.554675       -15.0935 
 188   2.0000      -0.553620       -15.0648 
 189   2.0000      -0.549045       -14.9403 
 190   2.0000      -0.547722       -14.9043 
 191   2.0000      -0.545512       -14.8441 
 192   2.0000      -0.544848       -14.8261 
 193   2.0000      -0.541809       -14.7434 
 194   2.0000      -0.540970       -14.7205 
 195   2.0000      -0.539114       -14.6700 
 196   2.0000      -0.535970       -14.5845 
 197   2.0000      -0.533275       -14.5111 
 198   2.0000      -0.532212       -14.4822 
 199   2.0000      -0.530101       -14.4248 
 200   2.0000      -0.528662       -14.3856 
 201   2.0000      -0.525021       -14.2865 
 202   2.0000      -0.522246       -14.2110 
 203   2.0000      -0.521273       -14.1846 
 204   2.0000      -0.516695       -14.0600 
 205   2.0000      -0.508629       -13.8405 
 206   2.0000      -0.507985       -13.8230 
 207   2.0000      -0.506396       -13.7797 
 208   2.0000      -0.505329       -13.7507 
 209   2.0000      -0.504086       -13.7169 
 210   2.0000      -0.502044       -13.6613 
 211   2.0000      -0.501236       -13.6393 
 212   2.0000      -0.494832       -13.4651 
 213   2.0000      -0.491960       -13.3869 
 214   2.0000      -0.491818       -13.3830 
 215   2.0000      -0.487971       -13.2784 
 216   2.0000      -0.487099       -13.2546 
 217   2.0000      -0.482984       -13.1427 
 218   2.0000      -0.481094       -13.0912 
 219   2.0000      -0.480152       -13.0656 
 220   2.0000      -0.477481       -12.9929 
 221   2.0000      -0.476668       -12.9708 
 222   2.0000      -0.472885       -12.8678 
 223   2.0000      -0.471818       -12.8388 
 224   2.0000      -0.466944       -12.7062 
 225   2.0000      -0.466213       -12.6863 
 226   2.0000      -0.464238       -12.6326 
 227   2.0000      -0.462919       -12.5967 
 228   2.0000      -0.460959       -12.5433 
 229   2.0000      -0.460161       -12.5216 
 230   2.0000      -0.456856       -12.4317 
 231   2.0000      -0.455340       -12.3904 
 232   2.0000      -0.454475       -12.3669 
 233   2.0000      -0.452211       -12.3053 
 234   2.0000      -0.449789       -12.2394 
 235   2.0000      -0.448277       -12.1982 
 236   2.0000      -0.446328       -12.1452 
 237   2.0000      -0.441274       -12.0077 
 238   2.0000      -0.439058       -11.9474 
 239   2.0000      -0.438355       -11.9282 
 240   2.0000      -0.435618       -11.8538 
 241   2.0000      -0.434065       -11.8115 
 242   2.0000      -0.430262       -11.7080 
 243   2.0000      -0.428642       -11.6639 
 244   2.0000      -0.428422       -11.6580 
 245   2.0000      -0.427632       -11.6364 
 246   2.0000      -0.425981       -11.5915 
 247   2.0000      -0.425434       -11.5766 
 248   2.0000      -0.424803       -11.5595 
 249   2.0000      -0.423670       -11.5287 
 250   2.0000      -0.423024       -11.5111 
 251   2.0000      -0.420198       -11.4342 
 252   2.0000      -0.415935       -11.3182 
 253   2.0000      -0.414496       -11.2790 
 254   2.0000      -0.413199       -11.2437 
 255   2.0000      -0.408625       -11.1192 
 256   2.0000      -0.406517       -11.0619 
 257   2.0000      -0.406203       -11.0534 
 258   2.0000      -0.405010       -11.0209 
 259   2.0000      -0.402124       -10.9424 
 260   2.0000      -0.401181       -10.9167 
 261   2.0000      -0.396850       -10.7988 
 262   2.0000      -0.392038       -10.6679 
 263   2.0000      -0.386653       -10.5214 
 264   2.0000      -0.383058       -10.4236 
 265   2.0000      -0.382503       -10.4084 
 266   2.0000      -0.377786       -10.2801 
 267   2.0000      -0.363753        -9.8982 
 268   2.0000      -0.362483        -9.8637 
 269   2.0000      -0.348916        -9.4945 
 270   2.0000      -0.344459        -9.3732 
 271   2.0000      -0.341537        -9.2937 
 272   2.0000      -0.339885        -9.2487 
 273   2.0000      -0.336961        -9.1692 
 274   2.0000      -0.335296        -9.1239 
 275   2.0000      -0.316386        -8.6093 
 276   2.0000      -0.315000        -8.5716 
[...]
   1      2.75     450.6   101 -> 103      gap,J,K:    4.124     1.737     0.182
   2      3.17     391.0   100 -> 102      gap,J,K:    4.706     1.764     0.114
   3      3.29     377.1   101 -> 104      gap,J,K:    4.708     1.580     0.080
   4      3.36     369.0   101 -> 105      gap,J,K:    4.807     1.643     0.098
   5      3.41     363.1    99 -> 102      gap,J,K:    4.836     1.871     0.225
   6      3.47     356.8   100 -> 103      gap,J,K:    4.999     1.603     0.039
   7      3.60     344.4    98 -> 102      gap,J,K:    5.163     1.802     0.120
   8      3.71     334.5    99 -> 103      gap,J,K:    5.129     1.817     0.197
   9      3.92     316.6    98 -> 103      gap,J,K:    5.456     1.663     0.062
  10      4.20     295.2    97 -> 102      gap,J,K:    5.561     1.788     0.214
  11      4.22     293.6   101 -> 106      gap,J,K:    5.753     1.989     0.230
  12      4.23     293.3   100 -> 104      gap,J,K:    5.583     1.428     0.036
  13      4.25     291.9    99 -> 104      gap,J,K:    5.713     1.710     0.122
  14      4.25     291.5   100 -> 105      gap,J,K:    5.682     1.470     0.021
  15      4.32     286.9    99 -> 105      gap,J,K:    5.812     1.763     0.136
  16      4.33     286.5    94 -> 102      gap,J,K:    5.832     1.739     0.117
  17      4.37     283.7    95 -> 102      gap,J,K:    5.794     1.624     0.100
  18      4.38     282.8    96 -> 102      gap,J,K:    5.720     1.585     0.125
  19      4.53     273.6    97 -> 103      gap,J,K:    5.854     1.764     0.220
  20      4.62     268.2    98 -> 104      gap,J,K:    6.040     1.482     0.032
  21      4.63     267.6    95 -> 103      gap,J,K:    6.088     1.641     0.093
  22      4.66     266.1    98 -> 105      gap,J,K:    6.139     1.543     0.031
  23      4.69     264.6    89 -> 102      gap,J,K:    6.596     1.946     0.018
  24      4.69     264.4    94 -> 103      gap,J,K:    6.126     1.599     0.081

average / max PT2 energy lowering (eV):       0.042       0.082

CSF included by PT:                   192 
total number of CSF included:         226 
 
sTD-DFT procedure...
setting up A+B and A-B matrices...  done
estimated time (min):    0.000
calculating (A-B)^0.5 ... done
calculating (A+B)*(A-B)^0.5 ... done
calculating (A-B)^0.5 *(A+B)*(A-B)^0.5 ... done
diagonalizing ...using LAPACKE_ssyevr ...done

   38 roots found, lowest/highest eigenvalue :     2.033     4.965

excitation energies, transition moments and amplitudes

molecular weight: 1107.955
state   eV        nm        fL         fV        Rl        RV
   0   2.033     609.7   2.429034   2.809330  62.142999  81.744727     0.89 ( 101-> 102)    0.08 (  99-> 103)    0.01 ( 101-> 104)
   1   2.473     501.4   0.535997   0.616694  65.763218  78.854316     0.83 ( 101-> 103)    0.12 (  99-> 102)    0.01 (  99-> 104)
   2   2.912     425.7   0.043736   0.039748  -16.276174  -14.997678     0.81 ( 100-> 102)    0.09 (  98-> 103)    0.02 ( 101-> 104)
   3   2.972     417.2   0.145464   0.139319  114.654452  103.610013     0.61 ( 101-> 104)    0.13 (  99-> 105)    0.13 ( 101-> 105)
   4   3.054     405.9   0.073302   0.073748  -229.624069  -235.373861     0.59 ( 101-> 105)    0.15 (  99-> 104)    0.11 ( 101-> 104)
   5   3.094     400.7   0.107803   0.096640  -7.023267  -5.956052     0.45 ( 100-> 103)    0.39 (  98-> 102)    0.05 ( 101-> 105)
   6   3.234     383.4   0.156264   0.164441  47.321936  50.025301     0.73 (  99-> 102)    0.12 ( 101-> 103)    0.07 (  97-> 103)
   7   3.510     353.2   0.034878   0.049742  -70.815529  -80.258205     0.52 (  99-> 103)    0.20 (  97-> 102)    0.06 ( 101-> 102)
   8   3.640     340.7   0.006368   0.005749   6.445155   3.786074     0.37 ( 100-> 103)    0.36 (  98-> 102)    0.05 (  99-> 103)
   9   3.645     340.2   0.026750   0.030525  56.077297  65.108884     0.43 (  98-> 103)    0.16 (  95-> 102)    0.10 (  94-> 102)
  10   3.737     331.8   0.175325   0.162135  -25.707411  -32.500437     0.18 (  94-> 102)    0.16 (  96-> 102)    0.10 (  96-> 103)
  11   3.779     328.1   0.166501   0.150633  -90.490862  -83.428768     0.23 (  96-> 102)    0.14 (  96-> 103)    0.12 (  95-> 103)
  12   3.793     326.8   0.061187   0.059206  44.988454  53.094917     0.33 (  89-> 102)    0.12 (  89-> 103)    0.11 (  89-> 105)
  13   3.824     324.2   0.000691   0.000614  -4.365753  -5.320471     0.36 (  90-> 102)    0.26 (  90-> 103)    0.20 (  90-> 105)
  14   3.925     315.9   0.131366   0.117476   8.995599   7.666933     0.56 ( 101-> 106)    0.05 ( 101-> 108)    0.05 (  99-> 105)
  15   3.984     311.2   0.012773   0.011046  -48.235311  -46.114899     0.14 (  90-> 105)    0.13 (  90-> 104)    0.12 ( 100-> 104)
  16   4.005     309.5   0.043952   0.036943  -4.716295   0.500385     0.23 (  89-> 104)    0.13 ( 101-> 106)    0.11 (  89-> 105)
  17   4.047     306.4   0.006716   0.005186  10.015585   7.917859     0.44 ( 100-> 104)    0.12 (  98-> 105)    0.06 (  98-> 104)
  18   4.052     306.0   0.026322   0.022515  -52.502833  -49.038305     0.29 ( 100-> 105)    0.16 (  90-> 105)    0.13 (  90-> 104)
  19   4.100     302.4   0.102144   0.091180  -216.100467  -204.006733     0.25 (  99-> 104)    0.09 (  97-> 102)    0.08 ( 101-> 105)
  20   4.136     299.8   0.043143   0.036286  -112.501275  -111.886438     0.17 (  99-> 104)    0.16 (  97-> 102)    0.09 (  95-> 102)
  21   4.196     295.5   0.087706   0.081773  169.393731  169.702219     0.18 (  99-> 105)    0.16 (  98-> 103)    0.13 (  94-> 102)
  22   4.235     292.8   0.218245   0.195693  335.069017  317.402951     0.21 (  99-> 105)    0.21 (  94-> 102)    0.14 (  98-> 103)
  23   4.269     290.4   0.066878   0.054138  -234.936833  -216.565345     0.33 (  93-> 102)    0.06 (  97-> 103)    0.06 (  91-> 103)
  24   4.318     287.1   0.072194   0.064991  -165.739118  -159.485858     0.22 (  92-> 102)    0.09 (  92-> 103)    0.07 (  94-> 103)
  25   4.353     284.8   0.442143   0.375591  835.034600  781.460589     0.18 (  91-> 102)    0.10 (  96-> 103)    0.08 (  97-> 104)
  26   4.458     278.1   0.195962   0.163386  -487.908270  -468.680263     0.25 (  96-> 104)    0.14 (  97-> 105)    0.09 (  94-> 103)
  27   4.501     275.5   0.048840   0.039728  -328.404345  -302.386006     0.13 ( 100-> 106)    0.09 ( 101-> 107)    0.07 (  96-> 105)
  28   4.509     275.0   0.330296   0.277623   6.382032  39.117552     0.13 (  96-> 105)    0.11 ( 101-> 107)    0.10 (  97-> 103)
  29   4.566     271.5   0.064697   0.055719  -7.404898  -6.769939     0.17 (  98-> 105)    0.15 ( 100-> 106)    0.14 (  97-> 103)
  30   4.624     268.1   0.283037   0.236674  387.003847  361.152137     0.49 ( 101-> 107)    0.09 (  97-> 103)    0.05 (  95-> 105)
  31   4.649     266.7   0.094163   0.079266  -93.513265  -88.537430     0.42 ( 101-> 108)    0.14 (  98-> 104)    0.09 ( 100-> 105)
  32   4.666     265.7   0.090475   0.074147  -13.368951  -5.194638     0.27 (  98-> 104)    0.22 ( 101-> 108)    0.17 ( 100-> 105)
  33   4.772     259.8   0.028874   0.025745   0.032160  -1.380372     0.12 (  92-> 102)    0.12 ( 100-> 106)    0.10 (  91-> 102)
  34   4.777     259.5   0.039533   0.032627  -22.437415  -20.177441     0.15 ( 100-> 106)    0.07 (  88-> 102)    0.06 ( 100-> 104)
  35   4.859     255.2   0.152012   0.124706  65.642288  60.066817     0.21 (  88-> 102)    0.10 ( 100-> 106)    0.08 (  91-> 103)
  36   4.940     251.0   0.072927   0.054041  -22.784197  -15.905501     0.10 (  93-> 104)    0.09 (  93-> 105)    0.07 (  99-> 104)
  37   4.965     249.7   0.026097   0.019560  -29.752794  -26.956387     0.12 (  95-> 102)    0.12 (  96-> 103)    0.11 (  96-> 102)

-----------------------------------------------------------------------------
         ABSORPTION SPECTRUM VIA TRANSITION ELECTRIC DIPOLE MOMENTS
-----------------------------------------------------------------------------
State   Energy  Wavelength   fosc         T2         TX        TY        TZ  
        (cm-1)    (nm)                  (au**2)     (au)      (au)      (au) 
-----------------------------------------------------------------------------
   0   16400.9    609.7   2.429034191  48.75744   4.64303  -5.21533   0.00992
   1   19945.1    501.4   0.535996578   8.84709  -1.88828  -2.12704   0.87016
   2   23489.7    425.7   0.043735792   0.61296   0.55883   0.43181  -0.33795
   3   23967.6    417.2   0.145464286   1.99805  -0.04038  -1.19178   0.75900
   4   24635.5    405.9   0.073302438   0.97956  -0.93443  -0.32170  -0.05402
   5   24956.7    400.7   0.107803234   1.42207   1.00937  -0.60603  -0.18962
   6   26081.8    383.4   0.156264185   1.97241   1.03755   0.85274  -0.41079
   7   28314.0    353.2   0.034877830   0.40553  -0.40257   0.47359   0.13849
   8   29355.4    340.7   0.006367678   0.07141   0.18475   0.00467   0.19302
   9   29395.5    340.2   0.026750052   0.29958  -0.01614   0.41834  -0.35258
  10   30140.4    331.8   0.175325329   1.91501  -0.75861   0.84166  -0.79443
  11   30480.6    328.1   0.166501067   1.79833   0.95994   0.60032  -0.71865
  12   30595.9    326.8   0.061186988   0.65837   0.56479   0.15932  -0.56036
  13   30845.5    324.2   0.000691108   0.00738  -0.07449  -0.02546   0.03433
  14   31657.5    315.9   0.131365961   1.36610   0.94661  -0.48269  -0.48686
  15   32132.9    311.2   0.012772627   0.13086   0.19315   0.28767  -0.10391
  16   32306.2    309.5   0.043951522   0.44788   0.47905  -0.46682  -0.02191
  17   32639.0    306.4   0.006715843   0.06774  -0.07835  -0.23919   0.06625
  18   32684.6    306.0   0.026322199   0.26513   0.10118   0.48924  -0.12465
  19   33071.4    302.4   0.102143599   1.01680  -0.96401  -0.06966   0.28745
  20   33360.1    299.8   0.043142807   0.42575  -0.53262   0.23996  -0.29067
  21   33843.9    295.5   0.087706324   0.85315   0.28700  -0.62619   0.61536
  22   34156.6    292.8   0.218245439   2.10352  -0.11760   1.10142  -0.93624
  23   34434.8    290.4   0.066878070   0.63938  -0.78816   0.12790   0.04270
  24   34825.7    287.1   0.072194337   0.68246  -0.70906  -0.21451   0.36563
  25   35107.8    284.8   0.442143021   4.14605  -0.67204  -0.82857   1.73433
  26   35954.3    278.1   0.195962491   1.79431   0.90033  -0.88882   0.44013
  27   36303.3    275.5   0.048839782   0.44290  -0.02037   0.52489   0.40862
  28   36369.8    275.0   0.330295583   2.98976  -1.31802  -0.04515   1.11828
  29   36830.6    271.5   0.064696931   0.57830   0.36689   0.46275  -0.47911
  30   37298.6    268.1   0.283036746   2.49819  -0.79065  -1.09961   0.81482
  31   37497.0    266.7   0.094163358   0.82673  -0.62916   0.58474   0.29826
  32   37631.7    265.7   0.090474842   0.79150  -0.71968   0.01344   0.52285
  33   38485.9    259.8   0.028873772   0.24699  -0.18473  -0.40410   0.22264
  34   38530.4    259.5   0.039532548   0.33777  -0.32871  -0.39372   0.27332
  35   39191.0    255.2   0.152011549   1.27693   0.70504   0.65175  -0.59588
  36   39840.6    251.0   0.072926973   0.60261  -0.73397   0.23855   0.08364
  37   40046.9    249.7   0.026096570   0.21453   0.11257   0.44352  -0.07177

-----------------------------------------------------------------------------
         ABSORPTION SPECTRUM VIA TRANSITION VELOCITY DIPOLE MOMENTS
-----------------------------------------------------------------------------
State   Energy  Wavelength   fosc         P2         PX        PY        PZ  
        (cm-1)    (nm)                  (au**2)     (au)      (au)      (au) 
-----------------------------------------------------------------------------
   0   16400.9    609.7   2.809329530   0.31490   0.37426  -0.41813  -0.00018
   1   19945.1    501.4   0.616693505   0.08406  -0.18371  -0.20787   0.08431
   2   23489.7    425.7   0.039748427   0.00638   0.05673   0.04446  -0.03445
   3   23967.6    417.2   0.139318947   0.02282  -0.00747  -0.12616   0.08275
   4   24635.5    405.9   0.073748464   0.01242  -0.10503  -0.03709  -0.00311
   5   24956.7    400.7   0.096640370   0.01648   0.10940  -0.06421  -0.01982
   6   26081.8    383.4   0.164441038   0.02931   0.12592   0.10465  -0.05006
   7   28314.0    353.2   0.049741950   0.00963  -0.06370   0.07169   0.02070
   8   29355.4    340.7   0.005748770   0.00115   0.02281   0.00319   0.02496
   9   29395.5    340.2   0.030524737   0.00613   0.00053   0.06075  -0.04941
  10   30140.4    331.8   0.162134834   0.03340  -0.10081   0.11036  -0.10515
  11   30480.6    328.1   0.150633232   0.03138   0.12604   0.07940  -0.09586
  12   30595.9    326.8   0.059205612   0.01238   0.08211   0.01863  -0.07274
  13   30845.5    324.2   0.000614496   0.00013  -0.01068  -0.00180   0.00349
  14   31657.5    315.9   0.117475507   0.02542   0.12958  -0.06595  -0.06540
  15   32132.9    311.2   0.011045948   0.00243   0.02738   0.03816  -0.01484
  16   32306.2    309.5   0.036942981   0.00816   0.06333  -0.06414  -0.00569
  17   32639.0    306.4   0.005185875   0.00116  -0.00699  -0.03204   0.00902
  18   32684.6    306.0   0.022515284   0.00503   0.01375   0.06709  -0.01842
  19   33071.4    302.4   0.091180227   0.02061  -0.13769  -0.00639   0.04013
  20   33360.1    299.8   0.036286328   0.00827  -0.07447   0.03124  -0.04186
  21   33843.9    295.5   0.081773075   0.01891   0.04336  -0.09469   0.08982
  22   34156.6    292.8   0.195692704   0.04568  -0.01995   0.16251  -0.13739
  23   34434.8    290.4   0.054137540   0.01274  -0.11146   0.01716   0.00478
  24   34825.7    287.1   0.064990561   0.01547  -0.10796  -0.02902   0.05450
  25   35107.8    284.8   0.375591325   0.09012  -0.09789  -0.12363   0.25545
  26   35954.3    278.1   0.163386500   0.04015   0.13684  -0.13099   0.06531
  27   36303.3    275.5   0.039727820   0.00986   0.00029   0.07836   0.06096
  28   36369.8    275.0   0.277623238   0.06901  -0.19865  -0.01289   0.17140
  29   36830.6    271.5   0.055718661   0.01403   0.05759   0.07200  -0.07433
  30   37298.6    268.1   0.236673919   0.06033  -0.12526  -0.16979   0.12576
  31   37497.0    266.7   0.079265886   0.02031  -0.09825   0.09252   0.04583
  32   37631.7    265.7   0.074147111   0.01907  -0.11226   0.00044   0.08042
  33   38485.9    259.8   0.025744760   0.00677  -0.03162  -0.06622   0.03724
  34   38530.4    259.5   0.032626773   0.00859  -0.05384  -0.06198   0.04303
  35   39191.0    255.2   0.124705932   0.03340   0.11210   0.10697  -0.09692
  36   39840.6    251.0   0.054040836   0.01471  -0.11593   0.03372   0.01176
  37   40046.9    249.7   0.019560355   0.00535   0.02180   0.06892  -0.01137

-------------------------------------------------------------------
                             CD SPECTRUM
-------------------------------------------------------------------
State   Energy Wavelength       R         MX        MY        MZ   
        (cm-1)   (nm)       (1e40*cgs)   (au)      (au)      (au)  
-------------------------------------------------------------------
   0   16400.9    609.7     62.14300  -1.32124  -1.12156   2.18009
   1   19945.1    501.4     65.76322   0.24244   1.78892   4.57839
   2   23489.7    425.7    -16.27617  -0.24233  -0.63286  -1.41365
   3   23967.6    417.2    114.65445  -0.01258   1.32210   1.43445
   4   24635.5    405.9    -229.62407  -0.85176  -0.66544   0.66363
   5   24956.7    400.7     -7.02327  -0.14768  -0.38424   0.28481
   6   26081.8    383.4     47.32194  -0.27335  -1.21705  -2.72811
   7   28314.0    353.2    -70.81553   0.51391   0.93100   0.47935
   8   29355.4    340.7      6.44515   0.20630   0.62215  -0.35417
   9   29395.5    340.2     56.07730  -0.32557  -1.29453  -0.84635
  10   30140.4    331.8    -25.70741  -1.75474  -3.65045  -2.32910
  11   30480.6    328.1    -90.49086   1.24608  -0.66305   0.57641
  12   30595.9    326.8     44.98845  -1.34056  -2.52125  -1.72741
  13   30845.5    324.2     -4.36575  -0.39502   0.07578  -0.26145
  14   31657.5    315.9      8.99560  -0.55563  -1.60037   0.58473
  15   32132.9    311.2    -48.23531   0.96472   0.13213   0.18975
  16   32306.2    309.5     -4.71629   0.26836   0.19060   0.89342
  17   32639.0    306.4     10.01558   0.14092   0.52025   1.40353
  18   32684.6    306.0    -52.50283   0.39589   0.27977  -0.36744
  19   33071.4    302.4    -216.10047  -1.24401  -0.43030  -1.08700
  20   33360.1    299.8    -112.50128  -1.17881  -1.82425  -0.98787
  21   33843.9    295.5    169.39373   0.47898   2.07249   0.71776
  22   34156.6    292.8    335.06902  -0.62703  -2.99550  -1.92697
  23   34434.8    290.4    -234.93683  -1.55255  -1.23057  -1.63013
  24   34825.7    287.1    -165.73912  -1.66330  -0.41248  -1.54457
  25   35107.8    284.8    835.03460   1.59600   6.45840   1.66136
  26   35954.3    278.1    -487.90827   4.29040   5.18160   6.39033
  27   36303.3    275.5    -328.40435   1.25913   2.82657  -0.15861
  28   36369.8    275.0      6.38203   0.72314   4.31666   1.00239
  29   36830.6    271.5     -7.40490   0.21687  -0.92128  -0.78930
  30   37298.6    268.1    387.00385   2.06065   4.13606   5.56632
  31   37497.0    266.7    -93.51326   0.22772   1.33457  -0.80598
  32   37631.7    265.7    -13.36895   0.78678   2.28131   1.13282
  33   38485.9    259.8      0.03216   0.43310   0.98968   2.15505
  34   38530.4    259.5    -22.43741  -0.01935   0.51380   1.06512
  35   39191.0    255.2     65.64229  -0.82018  -2.39856  -3.12651
  36   39840.6    251.0    -22.78420   0.11320   0.54807   0.58584
  37   40046.9    249.7    -29.75279   0.25745   0.11008  -0.67461

sTD-DFT done

Total run time:        4.728 sec

           *** ORCA-CIS/TD-DFT FINISHED WITHOUT ERROR ***

-------------------------   --------------------
FINAL SINGLE POINT ENERGY     -6148.683316168564
-------------------------   --------------------


                            ***************************************
                            *     ORCA property calculations      *
                            ***************************************

                                    ---------------------
                                    Active property flags
                                    ---------------------
   (+) Dipole Moment


------------------------------------------------------------------------------
                       ORCA ELECTRIC PROPERTIES CALCULATION
------------------------------------------------------------------------------

Dipole Moment Calculation                       ... on
Quadrupole Moment Calculation                   ... off
Polarizability Calculation                      ... off
GBWName                                         ... Y15.gbw
Electron density file                           ... Y15.scfp
The origin for moment calculation is the CENTER OF MASS  = (19.756195, -5.193285  1.152789)

-------------
DIPOLE MOMENT
-------------
                                X             Y             Z
Electronic contribution:     65.65004      37.36350      -0.67381
Nuclear contribution   :    -66.61035     -39.44911       1.12020
                        -----------------------------------------
Total Dipole Moment    :     -0.96031      -2.08561       0.44640
                        -----------------------------------------
Magnitude (a.u.)       :      2.33907
Magnitude (Debye)      :      5.94544



--------------------
Rotational spectrum 
--------------------
 
Rotational constants in cm-1:     0.001235     0.000215     0.000188 
Rotational constants in MHz :    37.030043     6.437480     5.639240 

 Dipole components along the rotational axes: 
x,y,z [a.u.] :    -1.040424    -2.045517    -0.452342 
x,y,z [Debye]:    -2.644548    -5.199291    -1.149761 

 

Timings for individual modules:

Sum of individual times         ...     3973.061 sec (=  66.218 min)
GTO integral calculation        ...        3.834 sec (=   0.064 min)   0.1 %
SCF iterations                  ...     3964.429 sec (=  66.074 min)  99.8 %
CIS module                      ...        4.797 sec (=   0.080 min)   0.1 %
                             ****ORCA TERMINATED NORMALLY****
TOTAL RUN TIME: 0 days 1 hours 6 minutes 13 seconds 635 msec
