
                                 *****************
                                 * O   R   C   A *
                                 *****************

           --- An Ab Initio, DFT and Semiempirical electronic structure package ---

                  #######################################################
                  #                        -***-                        #
                  #          Department of theory and spectroscopy      #
                  #               Directorship: Frank Neese             #
                  #        Max Planck Institute fuer Kohlenforschung    #
                  #                Kaiser Wilhelm Platz 1               #
                  #                 D-45470 Muelheim/Ruhr               #
                  #                      Germany                        #
                  #                                                     #
                  #                  All rights reserved                #
                  #                        -***-                        #
                  #######################################################


                         Program Version 4.2.0 -  RELEASE  -


 With contributions from (in alphabetic order):
   Daniel Aravena         : Magnetic Suceptibility
   Michael Atanasov       : Ab Initio Ligand Field Theory (pilot matlab implementation)
   Alexander A. Auer      : GIAO ZORA, VPT2
   Ute Becker             : Parallelization
   Giovanni Bistoni       : ED, misc. LED, open-shell LED, HFLED
   Martin Brehm           : Molecular dynamics
   Dmytro Bykov           : SCF Hessian
   Vijay G. Chilkuri      : MRCI spin determinant printing, contributions to CSF-ICE
   Dipayan Datta          : RHF DLPNO-CCSD density
   Achintya Kumar Dutta   : EOM-CC, STEOM-CC
   Dmitry Ganyushin       : Spin-Orbit,Spin-Spin,Magnetic field MRCI
   Miquel Garcia          : C-PCM Hessian, Gaussian charge scheme
   Yang Guo               : DLPNO-NEVPT2, CIM, IAO-localization
   Andreas Hansen         : Spin unrestricted coupled pair/coupled cluster methods
   Benjamin Helmich-Paris : CASSCF linear response (MC-RPA)
   Lee Huntington         : MR-EOM, pCC
   Robert Izsak           : Overlap fitted RIJCOSX, COSX-SCS-MP3, EOM
   Christian Kollmar      : KDIIS, OOCD, Brueckner-CCSD(T), CCSD density
   Simone Kossmann        : Meta GGA functionals, TD-DFT gradient, OOMP2, MP2 Hessian
   Martin Krupicka        : AUTO-CI
   Lucas Lang             : DCDCAS
   Dagmar Lenk            : GEPOL surface, SMD
   Dimitrios Liakos       : Extrapolation schemes; Compound Job, initial MDCI parallelization
   Dimitrios Manganas     : Further ROCIS development; embedding schemes
   Dimitrios Pantazis     : SARC Basis sets
   Taras Petrenko         : DFT Hessian,TD-DFT gradient, ASA, ECA, R-Raman, ABS, FL, XAS/XES, NRVS
   Peter Pinski           : DLPNO-MP2, DLPNO-MP2 Gradient
   Christoph Reimann      : Effective Core Potentials
   Marius Retegan         : Local ZFS, SOC
   Christoph Riplinger    : Optimizer, TS searches, QM/MM, DLPNO-CCSD(T), (RO)-DLPNO pert. Triples
   Tobias Risthaus        : Range-separated hybrids, TD-DFT gradient, RPA, STAB
   Michael Roemelt        : Original ROCIS implementation
   Masaaki Saitow         : Open-shell DLPNO-CCSD energy and density
   Barbara Sandhoefer     : DKH picture change effects
   Avijit Sen             : IP-ROCIS
   Kantharuban Sivalingam : CASSCF convergence, NEVPT2, FIC-MRCI
   Bernardo de Souza      : ESD, SOC TD-DFT
   Georgi Stoychev        : AutoAux, RI-MP2 NMR
   Willem Van den Heuvel  : Paramagnetic NMR
   Boris Wezisla          : Elementary symmetry handling
   Frank Wennmohs         : Technical directorship


 We gratefully acknowledge several colleagues who have allowed us to
 interface, adapt or use parts of their codes:
   Stefan Grimme, W. Hujo, H. Kruse,             : VdW corrections, initial TS optimization,
                  C. Bannwarth                     DFT functionals, gCP, sTDA/sTD-DF
   Ed Valeev, F. Pavosevic, A. Kumar             : LibInt (2-el integral package), F12 methods
   Garnet Chan, S. Sharma, J. Yang, R. Olivares  : DMRG
   Ulf Ekstrom                                   : XCFun DFT Library
   Mihaly Kallay                                 : mrcc  (arbitrary order and MRCC methods)
   Andreas Klamt, Michael Diedenhofen            : otool_cosmo (COSMO solvation model)
   Jiri Pittner, Ondrej Demel                    : Mk-CCSD
   Frank Weinhold                                : gennbo (NPA and NBO analysis)
   Christopher J. Cramer and Donald G. Truhlar   : smd solvation model
   Lars Goerigk                                  : TD-DFT with DH, B97 family of functionals
   V. Asgeirsson, H. Jonsson                     : NEB implementation
   FAccTs GmbH                                   : IRC, NEB, NEB-TS, Multilevel, MM, QM/MM, CI optimization
   S Lehtola, MJT Oliveira, MAL Marques          : LibXC Library


 Your calculation uses the libint2 library for the computation of 2-el integrals
 For citations please refer to: http://libint.valeyev.net

 Your ORCA version has been built with support for libXC version: 4.2.3
 For citations please refer to: https://tddft.org/programs/libxc/

 This ORCA versions uses:
   CBLAS   interface :  Fast vector & matrix operations
   LAPACKE interface :  Fast linear algebra routines
   SCALAPACK package :  Parallel linear algebra routines


XCFun DFT library Copyright 2009-2010 Ulf Ekstrom and contributors.
See http://admol.org/xcfun for more information. This is free soft-
ware; see the source code for copying conditions. There is ABSOLUTELY
NO WARRANTY; not even for MERCHANTABILITY or FITNESS FOR A PARTICULAR
PURPOSE. For details see the documentation. Scientific users of this 
library should cite U. Ekstrom, L. Visscher, R. Bast, A. J. Thorvald-
sen and K. Ruud; J.Chem.Theor.Comp. 2010, DOI: 10.1021/ct100117s
XCFun Version 0.99 
----- Orbital basis set information -----
Your calculation utilizes the basis: def2-SVP
   F. Weigend and R. Ahlrichs, Phys. Chem. Chem. Phys. 7, 3297 (2005).

----- AuxJ basis set information -----
Your calculation utilizes the auxiliary basis: def2/J
   F. Weigend, Phys. Chem. Chem. Phys. 8, 1057 (2006).

================================================================================
                                        WARNINGS
                       Please study these warnings very carefully!
================================================================================

INFO   : Checking CIS options ...

WARNING: CIS/ROCIS methods need fully converged wavefunctions
  ===> : Setting SCFConvForced true
         You can overwrite this default with %scf ConvForced false 


INFO   : the flag for use of LIBINT has been found!

================================================================================
                                       INPUT FILE
================================================================================
NAME = Y15.inp
|  1> # ORCA input file
|  2> # Y15.out
|  3> ! CAM-B3LYP def2-SVP def2/J RIJCOSX Grid4 TightSCF
|  4> %maxcore 5000
|  5> %tddft
|  6>     Mode sTDDFT
|  7>     Ethresh 5.0
|  8>     maxcore 5000
|  9> end
| 10> * xyz 0 1
| 11>    C        4.80123         3.56747         0.79132
| 12>    O        6.00162         3.68995         0.61660
| 13>    C        3.85957         4.64994         1.13971
| 14>    C        4.12006         5.99036         1.33294
| 15>    C        3.05910         6.82546         1.66139
| 16>   Cl        3.34002         8.50131         1.91118
| 17>    C        1.76723         6.30556         1.78877
| 18>   Cl        0.46413         7.34795         2.19539
| 19>    C        1.51062         4.95205         1.59252
| 20>    C        2.56523         4.11666         1.26549
| 21>    C        2.62142         2.67784         1.00425
| 22>    C        1.54517         1.82764         1.05133
| 23>    C        1.57771         0.43856         0.81068
| 24>    N        1.51848        -0.69508         0.63207
| 25>    C        0.22962         2.23448         1.35868
| 26>    N       -0.86236         2.49418         1.59907
| 27>    C        3.99995         2.34666         0.70822
| 28>    C        4.46588         1.08669         0.40603
| 29>    C        5.75357         0.62728         0.12545
| 30>    S        7.20304         1.63366         0.09494
| 31>    C        8.16619         0.25257        -0.27180
| 32>    C        7.39315        -0.92019        -0.37189
| 33>    C        6.03910        -0.72518        -0.15054
| 34>    C        5.03366        -1.82429        -0.25731
| 35>    C        4.38810        -1.83632        -1.64603
| 36>    S        8.33309        -2.35516        -0.73693
| 37>    C        9.76362        -1.37871        -0.75188
| 38>    C        9.51681        -0.01309        -0.49024
| 39>    N       10.68799         0.68073        -0.53725
| 40>    C       10.77719         2.09846        -0.29499
| 41>    C       10.56125         2.42912         1.18003
| 42>    C       11.69391        -0.20698        -0.84760
| 43>    C       11.12727        -1.51868        -0.98185
| 44>    C       11.96068        -2.64338        -1.22637
| 45>    N       11.69649        -3.94870        -1.20287
| 46>    N       12.83628        -4.51966        -1.49010
| 47>    C       13.01474        -5.94710        -1.48103
| 48>    C       11.67815        -6.66602        -1.50197
| 49>    N       13.84640        -3.70681        -1.71478
| 50>    C       13.33593        -2.49514        -1.53677
| 51>    C       13.87884        -1.16284        -1.67335
| 52>    C       13.04642        -0.04549        -1.13751
| 53>    N       14.15011         0.70298        -0.84935
| 54>    C       14.44276         2.05984        -0.48294
| 55>    C       14.39412         2.26461         1.02938
| 56>    C       15.05897        -0.33107        -1.15198
| 57>    C       14.67089        -0.79547        -2.92755
| 58>    S       14.33384         0.75598        -3.72639
| 59>    C       16.01066         0.92178        -3.18828
| 60>    C       16.00416        -0.27673        -2.35737
| 61>    S       17.48758        -1.21990        -2.01176
| 62>    C       17.13388         0.30464        -5.02709
| 63>    C       17.00397         1.32766        -4.21002
| 64>    C       17.56241         2.70188        -4.29805
| 65>    C       18.42095         2.89140        -5.54093
| 66>    C       16.75325        -0.87702        -5.39497
| 67>    C       16.26827        -2.01011        -5.62267
| 68>    C       14.98629        -5.22562        -5.15606
| 69>    C       15.21723        -6.57281        -4.99651
| 70>    C       14.18935        -7.46953        -4.67027
| 71>    N       13.36756        -8.21825        -4.37895
| 72>    C       16.50626        -7.12165        -5.13656
| 73>    N       17.54967        -7.58348        -5.25471
| 74>    C       13.75673        -4.48208        -5.05060
| 75>    C       12.46410        -4.82603        -4.67575
| 76>    C       11.53894        -3.80847        -4.51943
| 77>   Cl        9.94437        -4.18256        -3.99483
| 78>    C       11.88842        -2.46872        -4.76322
| 79>   Cl       10.73430        -1.22836        -4.47224
| 80>    C       13.14818        -2.12450        -5.21165
| 81>    C       14.08758        -3.14067        -5.34406
| 82>    C       15.50348        -3.10616        -5.55256
| 83>    O       15.99821        -4.38029        -5.43553
| 84>    H        5.12152         6.37759         1.23182
| 85>    H        0.50146         4.59021         1.70005
| 86>    H        3.72002         0.30434         0.38300
| 87>    H        4.25691        -1.72304         0.50196
| 88>    H        5.54816        -2.77369        -0.09596
| 89>    H        3.87124        -0.89924        -1.83941
| 90>    H        3.66693        -2.64602        -1.70851
| 91>    H        5.14468        -1.98117        -2.41369
| 92>    H       10.00945         2.60058        -0.89274
| 93>    H       11.75658         2.43833        -0.62921
| 94>    H       11.22336         1.83827         1.80946
| 95>    H        9.53489         2.21992         1.46835
| 96>    H       10.75659         3.48339         1.35266
| 97>    H       13.58004        -6.21552        -0.58146
| 98>    H       13.62357        -6.21172        -2.34859
| 99>    H       11.12116        -6.45766        -0.59326
|100>    H       11.84680        -7.73525        -1.58626
|101>    H       11.08037        -6.33818        -2.34678
|102>    H       13.75068         2.73718        -0.99287
|103>    H       15.45252         2.27280        -0.84649
|104>    H       13.41200         2.01851         1.42169
|105>    H       14.61775         3.30029         1.26890
|106>    H       15.12949         1.62601         1.51245
|107>    H       18.15153         2.89368        -3.39474
|108>    H       16.73107         3.41447        -4.29500
|109>    H       19.25172         2.18913        -5.53875
|110>    H       18.82118         3.90131        -5.57336
|111>    H       17.83104         2.72256        -6.43903
|112>    H       17.96920        -1.21602        -3.25338
|113>    H       12.18422        -5.84991        -4.48914
|114>    H       13.39608        -1.10080        -5.43566
|115> *
|116> 
|117>                          ****END OF INPUT****
================================================================================

                       ****************************
                       * Single Point Calculation *
                       ****************************

---------------------------------
CARTESIAN COORDINATES (ANGSTROEM)
---------------------------------
  C      4.801230    3.567470    0.791320
  O      6.001620    3.689950    0.616600
  C      3.859570    4.649940    1.139710
  C      4.120060    5.990360    1.332940
  C      3.059100    6.825460    1.661390
  Cl     3.340020    8.501310    1.911180
  C      1.767230    6.305560    1.788770
  Cl     0.464130    7.347950    2.195390
  C      1.510620    4.952050    1.592520
  C      2.565230    4.116660    1.265490
  C      2.621420    2.677840    1.004250
  C      1.545170    1.827640    1.051330
  C      1.577710    0.438560    0.810680
  N      1.518480   -0.695080    0.632070
  C      0.229620    2.234480    1.358680
  N     -0.862360    2.494180    1.599070
  C      3.999950    2.346660    0.708220
  C      4.465880    1.086690    0.406030
  C      5.753570    0.627280    0.125450
  S      7.203040    1.633660    0.094940
  C      8.166190    0.252570   -0.271800
  C      7.393150   -0.920190   -0.371890
  C      6.039100   -0.725180   -0.150540
  C      5.033660   -1.824290   -0.257310
  C      4.388100   -1.836320   -1.646030
  S      8.333090   -2.355160   -0.736930
  C      9.763620   -1.378710   -0.751880
  C      9.516810   -0.013090   -0.490240
  N     10.687990    0.680730   -0.537250
  C     10.777190    2.098460   -0.294990
  C     10.561250    2.429120    1.180030
  C     11.693910   -0.206980   -0.847600
  C     11.127270   -1.518680   -0.981850
  C     11.960680   -2.643380   -1.226370
  N     11.696490   -3.948700   -1.202870
  N     12.836280   -4.519660   -1.490100
  C     13.014740   -5.947100   -1.481030
  C     11.678150   -6.666020   -1.501970
  N     13.846400   -3.706810   -1.714780
  C     13.335930   -2.495140   -1.536770
  C     13.878840   -1.162840   -1.673350
  C     13.046420   -0.045490   -1.137510
  N     14.150110    0.702980   -0.849350
  C     14.442760    2.059840   -0.482940
  C     14.394120    2.264610    1.029380
  C     15.058970   -0.331070   -1.151980
  C     14.670890   -0.795470   -2.927550
  S     14.333840    0.755980   -3.726390
  C     16.010660    0.921780   -3.188280
  C     16.004160   -0.276730   -2.357370
  S     17.487580   -1.219900   -2.011760
  C     17.133880    0.304640   -5.027090
  C     17.003970    1.327660   -4.210020
  C     17.562410    2.701880   -4.298050
  C     18.420950    2.891400   -5.540930
  C     16.753250   -0.877020   -5.394970
  C     16.268270   -2.010110   -5.622670
  C     14.986290   -5.225620   -5.156060
  C     15.217230   -6.572810   -4.996510
  C     14.189350   -7.469530   -4.670270
  N     13.367560   -8.218250   -4.378950
  C     16.506260   -7.121650   -5.136560
  N     17.549670   -7.583480   -5.254710
  C     13.756730   -4.482080   -5.050600
  C     12.464100   -4.826030   -4.675750
  C     11.538940   -3.808470   -4.519430
  Cl     9.944370   -4.182560   -3.994830
  C     11.888420   -2.468720   -4.763220
  Cl    10.734300   -1.228360   -4.472240
  C     13.148180   -2.124500   -5.211650
  C     14.087580   -3.140670   -5.344060
  C     15.503480   -3.106160   -5.552560
  O     15.998210   -4.380290   -5.435530
  H      5.121520    6.377590    1.231820
  H      0.501460    4.590210    1.700050
  H      3.720020    0.304340    0.383000
  H      4.256910   -1.723040    0.501960
  H      5.548160   -2.773690   -0.095960
  H      3.871240   -0.899240   -1.839410
  H      3.666930   -2.646020   -1.708510
  H      5.144680   -1.981170   -2.413690
  H     10.009450    2.600580   -0.892740
  H     11.756580    2.438330   -0.629210
  H     11.223360    1.838270    1.809460
  H      9.534890    2.219920    1.468350
  H     10.756590    3.483390    1.352660
  H     13.580040   -6.215520   -0.581460
  H     13.623570   -6.211720   -2.348590
  H     11.121160   -6.457660   -0.593260
  H     11.846800   -7.735250   -1.586260
  H     11.080370   -6.338180   -2.346780
  H     13.750680    2.737180   -0.992870
  H     15.452520    2.272800   -0.846490
  H     13.412000    2.018510    1.421690
  H     14.617750    3.300290    1.268900
  H     15.129490    1.626010    1.512450
  H     18.151530    2.893680   -3.394740
  H     16.731070    3.414470   -4.295000
  H     19.251720    2.189130   -5.538750
  H     18.821180    3.901310   -5.573360
  H     17.831040    2.722560   -6.439030
  H     17.969200   -1.216020   -3.253380
  H     12.184220   -5.849910   -4.489140
  H     13.396080   -1.100800   -5.435660

----------------------------
CARTESIAN COORDINATES (A.U.)
----------------------------
  NO LB      ZA    FRAG     MASS         X           Y           Z
   0 C     6.0000    0    12.011    9.073010    6.741541    1.495378
   1 O     8.0000    0    15.999   11.341418    6.972995    1.165205
   2 C     6.0000    0    12.011    7.293530    8.787113    2.153740
   3 C     6.0000    0    12.011    7.785785   11.320140    2.518892
   4 C     6.0000    0    12.011    5.780861   12.898250    3.139572
   5 Cl   17.0000    0    35.453    6.311723   16.065148    3.611607
   6 C     6.0000    0    12.011    3.339581   11.915782    3.380285
   7 Cl   17.0000    0    35.453    0.877079   13.885613    4.148686
   8 C     6.0000    0    12.011    2.854658    9.358018    3.009427
   9 C     6.0000    0    12.011    4.847582    7.779360    2.391430
  10 C     6.0000    0    12.011    4.953766    5.060384    1.897757
  11 C     6.0000    0    12.011    2.919948    3.453739    1.986726
  12 C     6.0000    0    12.011    2.981440    0.828758    1.531963
  13 N     7.0000    0    14.007    2.869511   -1.313511    1.194439
  14 C     6.0000    0    12.011    0.433919    4.222555    2.567533
  15 N     7.0000    0    14.007   -1.629624    4.713317    3.021804
  16 C     6.0000    0    12.011    7.558810    4.434545    1.338342
  17 C     6.0000    0    12.011    8.439290    2.053546    0.767286
  18 C     6.0000    0    12.011   10.872672    1.185387    0.237066
  19 S    16.0000    0    32.060   13.611773    3.087170    0.179411
  20 C     6.0000    0    12.011   15.431863    0.477288   -0.513628
  21 C     6.0000    0    12.011   13.971029   -1.738907   -0.702770
  22 C     6.0000    0    12.011   11.412245   -1.370392   -0.284479
  23 C     6.0000    0    12.011    9.512239   -3.447408   -0.486245
  24 C     6.0000    0    12.011    8.292307   -3.470142   -3.110546
  25 S    16.0000    0    32.060   15.747258   -4.450607   -1.392596
  26 C     6.0000    0    12.011   18.450568   -2.605384   -1.420847
  27 C     6.0000    0    12.011   17.984165   -0.024737   -0.926419
  28 N     7.0000    0    14.007   20.197374    1.286393   -1.015255
  29 C     6.0000    0    12.011   20.365938    3.965515   -0.557450
  30 C     6.0000    0    12.011   19.957870    4.590372    2.229934
  31 C     6.0000    0    12.011   22.098287   -0.391136   -1.601732
  32 C     6.0000    0    12.011   21.027493   -2.869889   -1.855428
  33 C     6.0000    0    12.011   22.602410   -4.995264   -2.317503
  34 N     7.0000    0    14.007   22.103163   -7.461962   -2.273095
  35 N     7.0000    0    14.007   24.257054   -8.540920   -2.815881
  36 C     6.0000    0    12.011   24.594294  -11.238390   -2.798741
  37 C     6.0000    0    12.011   22.068505  -12.596952   -2.838312
  38 N     7.0000    0    14.007   26.165904   -7.004856   -3.240465
  39 C     6.0000    0    12.011   25.201255   -4.715131   -2.904074
  40 C     6.0000    0    12.011   26.227207   -2.197449   -3.162173
  41 C     6.0000    0    12.011   24.654161   -0.085964   -2.149582
  42 N     7.0000    0    14.007   26.739833    1.328440   -1.605039
  43 C     6.0000    0    12.011   27.292861    3.892533   -0.912624
  44 C     6.0000    0    12.011   27.200945    4.279493    1.945246
  45 C     6.0000    0    12.011   28.457329   -0.625632   -2.176927
  46 C     6.0000    0    12.011   27.723964   -1.503220   -5.532268
  47 S    16.0000    0    32.060   27.087032    1.428595   -7.041857
  48 C     6.0000    0    12.011   30.255763    1.741912   -6.024976
  49 C     6.0000    0    12.011   30.243479   -0.522944   -4.454784
  50 S    16.0000    0    32.060   33.046737   -2.305277   -3.801675
  51 C     6.0000    0    12.011   32.378341    0.575686   -9.499823
  52 C     6.0000    0    12.011   32.132846    2.508914   -7.955785
  53 C     6.0000    0    12.011   33.188145    5.105813   -8.122137
  54 C     6.0000    0    12.011   34.810551    5.463954  -10.470840
  55 C     6.0000    0    12.011   31.659054   -1.657328  -10.195016
  56 C     6.0000    0    12.011   30.742575   -3.798557  -10.625306
  57 C     6.0000    0    12.011   28.319984   -9.874991   -9.743541
  58 C     6.0000    0    12.011   28.756397  -12.420811   -9.442036
  59 C     6.0000    0    12.011   26.813986  -14.115366   -8.825531
  60 N     7.0000    0    14.007   25.261027  -15.530242   -8.275016
  61 C     6.0000    0    12.011   31.192311  -13.457968   -9.706692
  62 N     7.0000    0    14.007   33.164070  -14.330700   -9.929963
  63 C     6.0000    0    12.011   25.996452   -8.469904   -9.544251
  64 C     6.0000    0    12.011   23.553736   -9.119875   -8.835887
  65 C     6.0000    0    12.011   21.805436   -7.196965   -8.540485
  66 Cl   17.0000    0    35.453   18.792136   -7.903893   -7.549135
  67 C     6.0000    0    12.011   22.465858   -4.665205   -9.001181
  68 Cl   17.0000    0    35.453   20.284887   -2.321264   -8.451309
  69 C     6.0000    0    12.011   24.846459   -4.014723   -9.848591
  70 C     6.0000    0    12.011   26.621668   -5.935006  -10.098810
  71 C     6.0000    0    12.011   29.297331   -5.869792  -10.492818
  72 O     8.0000    0    15.999   30.232236   -8.277548  -10.271663
  73 H     1.0000    0     1.008    9.678270   12.051898    2.327802
  74 H     1.0000    0     1.008    0.947622    8.674240    3.212629
  75 H     1.0000    0     1.008    7.029819    0.575119    0.723765
  76 H     1.0000    0     1.008    8.044394   -3.256074    0.948567
  77 H     1.0000    0     1.008   10.484503   -5.241514   -0.181338
  78 H     1.0000    0     1.008    7.315583   -1.699317   -3.475981
  79 H     1.0000    0     1.008    6.929493   -5.000253   -3.228616
  80 H     1.0000    0     1.008    9.722036   -3.743869   -4.561213
  81 H     1.0000    0     1.008   18.915119    4.914384   -1.687034
  82 H     1.0000    0     1.008   22.216716    4.607776   -1.189035
  83 H     1.0000    0     1.008   21.209077    3.473827    3.419384
  84 H     1.0000    0     1.008   18.018331    4.195041    2.774779
  85 H     1.0000    0     1.008   20.327009    6.582653    2.556157
  86 H     1.0000    0     1.008   25.662556  -11.745631   -1.098800
  87 H     1.0000    0     1.008   25.744816  -11.738450   -4.438192
  88 H     1.0000    0     1.008   21.015947  -12.203209   -1.121099
  89 H     1.0000    0     1.008   22.387208  -14.617504   -2.997597
  90 H     1.0000    0     1.008   20.938865  -11.977424   -4.434771
  91 H     1.0000    0     1.008   25.985019    5.172521   -1.876252
  92 H     1.0000    0     1.008   29.201031    4.294970   -1.599634
  93 H     1.0000    0     1.008   25.345007    3.814431    2.686605
  94 H     1.0000    0     1.008   27.623544    6.236644    2.397873
  95 H     1.0000    0     1.008   28.590593    3.072714    2.858116
  96 H     1.0000    0     1.008   34.301421    5.468263   -6.415129
  97 H     1.0000    0     1.008   31.617140    6.452413   -8.116374
  98 H     1.0000    0     1.008   36.380478    4.136856  -10.466721
  99 H     1.0000    0     1.008   35.566876    7.372407  -10.532124
 100 H     1.0000    0     1.008   33.695782    5.144893  -12.168003
 101 H     1.0000    0     1.008   33.956867   -2.297945   -6.147997
 102 H     1.0000    0     1.008   23.024839  -11.054728   -8.483245
 103 H     1.0000    0     1.008   25.314922   -2.080211  -10.271909

--------------------------------
INTERNAL COORDINATES (ANGSTROEM)
--------------------------------
 C      0   0   0     0.000000000000     0.00000000     0.00000000
 O      1   0   0     1.219206537425     0.00000000     0.00000000
 C      1   2   0     1.476428274113   126.02336708     0.00000000
 C      3   1   2     1.379100666884   128.69665513     0.22983178
 C      4   3   1     1.389570989227   118.23070981   180.17406270
 Cl     5   4   3     1.717493613671   119.72901266   179.97787437
 C      5   4   3     1.398373974050   120.22913088     0.00000000
 Cl     7   5   4     1.717552429040   119.79093025   179.99076689
 C      7   5   4     1.391528682672   121.27511407     0.00000000
 C      9   7   5     1.384567558879   118.66728327     0.00000000
 C     10   9   7     1.463422921134   131.65353508   179.83601239
 C     11  10   9     1.372359511535   124.95032483   359.45146558
 C     12  11  10     1.410146985424   125.89562394   180.37049985
 N     13  12  11     1.149151589043   175.63474304   178.36152467
 C     12  11  10     1.410905599464   124.06023794     0.11892673
 N     15  12  11     1.147890135205   176.24864599   179.07204587
 C     11  10   9     1.448329698031   107.32863340   179.93598325
 C     17  11  10     1.376929178244   125.18185941   180.07100281
 C     18  17  11     1.395681991214   131.11148873   181.18315920
 S     19  18  17     1.764849808171   124.99635775     0.22379250
 C     20  19  18     1.723242797229    90.32677055   178.79023961
 C     21  20  19     1.408181404259   112.07147086     0.37993624
 C     22  21  20     1.385812442252   114.06890620   359.65645665
 C     23  22  21     1.493436379160   122.87622594   177.69221842
 C     24  23  22     1.531481528749   110.75653279   264.62634220
 S     22  21  20     1.753818778010   113.70285399   180.27654698
 C     26  22  21     1.732077996483    89.03601752     0.09484627
 C     21  20  19     1.393723664720   136.69830306   180.78433950
 N     28  21  20     1.362078824775   137.86532073   358.70059904
 C     29  28  21     1.441042990511   123.26858322     1.65589130
 C     30  29  28     1.526974171229   111.51121755    71.58083443
 C     29  28  21     1.377033482890   107.90979964   181.77283090
 C     27  26  22     1.389970907717   139.01866939   182.00150134
 C     33  27  26     1.421025104810   133.12165350   354.34342264
 N     34  33  27     1.331994335010   131.01531443   353.69684067
 N     35  34  33     1.306758446921   104.55455474   180.69170951
 C     36  35  34     1.438580964041   122.70822530   175.66209591
 C     37  36  35     1.517813321229   111.14065656    16.37079983
 N     36  35  34     1.315883216437   115.92429645   359.54587847
 C     39  36  35     1.326804947948   104.23343250     1.20034834
 C     40  39  36     1.445139666088   133.21200400   182.70877088
 C     32  29  28     1.392627060020   132.97018162   173.46013252
 N     42  32  29     1.364322228288   143.64015936    34.09626117
 C     43  42  32     1.435607665834   137.50407075   327.91624959
 C     44  43  42     1.526895014367   111.90398354    88.34850257
 C     43  42  32     1.409564052819    94.23268499   152.91455844
 C     41  40  39     1.528175892821   119.59769359    47.49730267
 S     47  41  40     1.777285894447   118.71470108   134.94484652
 C     48  47  41     1.768835019017    76.42656335   116.24152059
 C     49  48  47     1.458382630931    95.28273506   349.26917565
 S     50  49  48     1.791521927692   122.60696715   152.59510393
 C     49  48  47     2.241362791718   101.51798695    94.83106831
 C     52  49  48     1.315693700449    39.37090275   121.26238214
 C     53  52  49     1.485962692297   130.17946940   186.98040431
 C     54  53  52     1.522418949041   112.05025110   359.31847590
 C     52  49  48     1.294810892331   109.69752328   304.15611461
 C     56  52  49     1.253373782437   172.05168594     4.61780987
 C     57  56  52     3.492950353584   161.79993171   315.46061253
 C     58  57  56     1.376121499796   148.77217097   274.71348632
 C     59  58  57     1.402525076567   121.99850255   172.11048583
 N     60  59  58     1.149255317543   178.28091391   226.49088397
 C     59  58  57     1.407990656574   121.58187789   352.92235015
 N     62  59  58     1.147148987490   179.16728854   205.59108518
 C     58  57  56     1.440760679919    81.25209068    89.04433097
 C     64  58  57     1.389138741055   133.32160276   189.17702559
 C     65  64  58     1.384118969453   118.06170391   171.74924232
 Cl    66  65  64     1.719826146155   119.62153568   182.45948995
 C     66  65  64     1.405880470381   120.98716226     1.46389595
 Cl    68  66  65     1.719056504132   119.42945176   183.39997149
 C     68  66  65     1.380786779666   121.37778511     2.33488879
 C     70  68  66     1.390182087714   117.72440623   356.48147778
 C     57  56  52     1.338336564060   162.16996994     1.57041823
 O     58  57  56     1.347838408786    28.28449913   263.50961078
 H      4   3   1     1.078468571123   120.74672674     0.13810004
 H      9   7   5     1.077448278155   119.03219347   179.98950391
 H     18  17  11     1.081160969976   115.68282660     0.79368106
 H     24  23  22     1.090909280325   111.17975745   142.80432547
 H     24  23  22     1.091835350454   108.18815190    24.05013037
 H     25  24  23     1.087501269149   110.78216474   299.25339344
 H     25  24  23     1.086095764332   109.74990903   179.51529871
 H     25  24  23     1.087518595013   110.35734606    59.63567282
 H     30  29  28     1.094922035809   108.42054551   311.32424086
 H     30  29  28     1.089228808561   108.12272415   193.69519385
 H     31  30  29     1.087968519535   110.80502522    52.48566559
 H     31  30  29     1.086419767861   110.38074882   292.30573957
 H     31  30  29     1.086022129333   109.77493645   172.94619783
 H     37  36  35     1.095828258123   108.19309249   254.93062360
 H     37  36  35     1.092409294587   107.72749595   138.68493242
 H     38  37  36     1.086004426234   110.43988228   295.38509395
 H     38  37  36     1.085725757040   109.31384095   174.86570767
 H     38  37  36     1.085598420273   110.64622981    55.04654660
 H     44  43  42     1.094437210122   109.70142291   324.69221648
 H     44  43  42     1.094137021447   106.69553856   207.99322030
 H     45  44  43     1.085832418240   110.87115494   300.44523521
 H     45  44  43     1.086284156977   109.85819629   180.12566204
 H     45  44  43     1.087168626203   109.86309310    60.42902044
 H     54  53  52     1.095362301022   108.37305083   237.29075852
 H     54  53  52     1.094952056576   108.44283839   121.49212254
 H     55  54  53     1.087826593810   110.40611713   300.51100870
 H     55  54  53     1.086809075183   110.34748350   180.46812248
 H     55  54  53     1.087696816075   110.42066102    60.36925665
 H     51  50  49     1.331763155820    96.77995015   315.71300133
 H     65  64  58     1.077722766253   121.57452134   353.03079670
 H     70  68  66     1.076845662154   120.96935324   177.41441492

---------------------------
INTERNAL COORDINATES (A.U.)
---------------------------
 C      0   0   0     0.000000000000     0.00000000     0.00000000
 O      1   0   0     2.303966456420     0.00000000     0.00000000
 C      1   2   0     2.790045094451   126.02336708     0.00000000
 C      3   1   2     2.606122571519   128.69665513     0.22983178
 C      4   3   1     2.625908613280   118.23070981   180.17406270
 Cl     5   4   3     3.245592566597   119.72901266   179.97787437
 C      5   4   3     2.642543843757   120.22913088     0.00000000
 Cl     7   5   4     3.245703711536   119.79093025   179.99076689
 C      7   5   4     2.629608117747   121.27511407     0.00000000
 C      9   7   5     2.616453500193   118.66728327     0.00000000
 C     10   9   7     2.765468539046   131.65353508   179.83601239
 C     11  10   9     2.593383634083   124.95032483   359.45146558
 C     12  11  10     2.664791611026   125.89562394   180.37049985
 N     13  12  11     2.171581789652   175.63474304   178.36152467
 C     12  11  10     2.666225183804   124.06023794     0.11892673
 N     15  12  11     2.169197987367   176.24864599   179.07204587
 C     11  10   9     2.736946480904   107.32863340   179.93598325
 C     17  11  10     2.602019052687   125.18185941   180.07100281
 C     18  17  11     2.637456733441   131.11148873   181.18315920
 S     19  18  17     3.335082804946   124.99635775     0.22379250
 C     20  19  18     3.256456949014    90.32677055   178.79023961
 C     21  20  19     2.661077200930   112.07147086     0.37993624
 C     22  21  20     2.618805988837   114.06890620   359.65645665
 C     23  22  21     2.822185755048   122.87622594   177.69221842
 C     24  23  22     2.894080668495   110.75653279   264.62634220
 S     22  21  20     3.314237178967   113.70285399   180.27654698
 C     26  22  21     3.273153055944    89.03601752     0.09484627
 C     21  20  19     2.633756032686   136.69830306   180.78433950
 N     28  21  20     2.573955951638   137.86532073   358.70059904
 C     29  28  21     2.723176599272   123.26858322     1.65589130
 C     30  29  28     2.885562997194   111.51121755    71.58083443
 C     29  28  21     2.602216159902   107.90979964   181.77283090
 C     27  26  22     2.626664349703   139.01866939   182.00150134
 C     33  27  26     2.685348277517   133.12165350   354.34342264
 N     34  33  27     2.517104505104   131.01531443   353.69684067
 N     35  34  33     2.469415587869   104.55455474   180.69170951
 C     36  35  34     2.718524043509   122.70822530   175.66209591
 C     37  36  35     2.868251499540   111.14065656    16.37079983
 N     36  35  34     2.486658903289   115.92429645   359.54587847
 C     39  36  35     2.507297984754   104.23343250     1.20034834
 C     40  39  36     2.730918194172   133.21200400   182.70877088
 C     32  29  28     2.631683750126   132.97018162   173.46013252
 N     42  32  29     2.578195369885   143.64015936    34.09626117
 C     43  42  32     2.712905324183   137.50407075   327.91624959
 C     44  43  42     2.885413412404   111.90398354    88.34850257
 C     43  42  32     2.663690028048    94.23268499   152.91455844
 C     41  40  39     2.887833921893   119.59769359    47.49730267
 S     47  41  40     3.358583602186   118.71470108   134.94484652
 C     48  47  41     3.342613762031    76.42656335   116.24152059
 C     49  48  47     2.755943770926    95.28273506   349.26917565
 S     50  49  48     3.385485806252   122.60696715   152.59510393
 C     49  48  47     4.235561843109   101.51798695    94.83106831
 C     52  49  48     2.486300769973    39.37090275   121.26238214
 C     53  52  49     2.808062533667   130.17946940   186.98040431
 C     54  53  52     2.876954874780   112.05025110   359.31847590
 C     52  49  48     2.446837981725   109.69752328   304.15611461
 C     56  52  49     2.368533192243   172.05168594     4.61780987
 C     57  56  52     6.600719567656   161.79993171   315.46061253
 C     58  57  56     2.600492761615   148.77217097   274.71348632
 C     59  58  57     2.650388290669   121.99850255   172.11048583
 N     60  59  58     2.171777808108   178.28091391   226.49088397
 C     59  58  57     2.660716740045   121.58187789   352.92235015
 N     62  59  58     2.167797421162   179.16728854   205.59108518
 C     58  57  56     2.722643109569    81.25209068    89.04433097
 C     64  58  57     2.625091782614   133.32160276   189.17702559
 C     65  64  58     2.615605789032   118.06170391   171.74924232
 Cl    66  65  64     3.250000414191   119.62153568   182.45948995
 C     66  65  64     2.656729066049   120.98716226     1.46389595
 Cl    68  66  65     3.248546001546   119.42945176   183.39997149
 C     68  66  65     2.609308862908   121.37778511     2.33488879
 C     70  68  66     2.627063422062   117.72440623   356.48147778
 C     57  56  52     2.529089581087   162.16996994     1.57041823
 O     58  57  56     2.547045465387    28.28449913   263.50961078
 H      4   3   1     2.038010243464   120.74672674     0.13810004
 H      9   7   5     2.036082169179   119.03219347   179.98950391
 H     18  17  11     2.043098139940   115.68282660     0.79368106
 H     24  23  22     2.061519776768   111.17975745   142.80432547
 H     24  23  22     2.063269795691   108.18815190    24.05013037
 H     25  24  23     2.055079568983   110.78216474   299.25339344
 H     25  24  23     2.052423549799   109.74990903   179.51529871
 H     25  24  23     2.055112310122   110.35734606    59.63567282
 H     30  29  28     2.069102785674   108.42054551   311.32424086
 H     30  29  28     2.058344145358   108.12272415   193.69519385
 H     31  30  29     2.055962544250   110.80502522    52.48566559
 H     31  30  29     2.053035827736   110.38074882   292.30573957
 H     31  30  29     2.052284399817   109.77493645   172.94619783
 H     37  36  35     2.070815297664   108.19309249   254.93062360
 H     37  36  35     2.064354392919   107.72749595   138.68493242
 H     38  37  36     2.052250945809   110.43988228   295.38509395
 H     38  37  36     2.051724337350   109.31384095   174.86570767
 H     38  37  36     2.051483705734   110.64622981    55.04654660
 H     44  43  42     2.068186597904   109.70142291   324.69221648
 H     44  43  42     2.067619323518   106.69553856   207.99322030
 H     45  44  43     2.051925897806   110.87115494   300.44523521
 H     45  44  43     2.052779560305   109.85819629   180.12566204
 H     45  44  43     2.054450964915   109.86309310    60.42902044
 H     54  53  52     2.069934766353   108.37305083   237.29075852
 H     54  53  52     2.069159516702   108.44283839   121.49212254
 H     55  54  53     2.055694343497   110.40611713   300.51100870
 H     55  54  53     2.053771511956   110.34748350   180.46812248
 H     55  54  53     2.055449099120   110.42066102    60.36925665
 H     51  50  49     2.516667639747    96.77995015   315.71300133
 H     65  64  58     2.036600876510   121.57452134   353.03079670
 H     70  68  66     2.034943389972   120.96935324   177.41441492

---------------------
BASIS SET INFORMATION
---------------------
There are 6 groups of distinct atoms

 Group   1 Type C   : 7s4p1d contracted to 3s2p1d pattern {511/31/1}
 Group   2 Type O   : 7s4p1d contracted to 3s2p1d pattern {511/31/1}
 Group   3 Type Cl  : 10s7p1d contracted to 4s3p1d pattern {5311/511/1}
 Group   4 Type N   : 7s4p1d contracted to 3s2p1d pattern {511/31/1}
 Group   5 Type S   : 10s7p1d contracted to 4s3p1d pattern {5311/511/1}
 Group   6 Type H   : 4s1p contracted to 2s1p pattern {31/1}

Atom   0C    basis set group =>   1
Atom   1O    basis set group =>   2
Atom   2C    basis set group =>   1
Atom   3C    basis set group =>   1
Atom   4C    basis set group =>   1
Atom   5Cl   basis set group =>   3
Atom   6C    basis set group =>   1
Atom   7Cl   basis set group =>   3
Atom   8C    basis set group =>   1
Atom   9C    basis set group =>   1
Atom  10C    basis set group =>   1
Atom  11C    basis set group =>   1
Atom  12C    basis set group =>   1
Atom  13N    basis set group =>   4
Atom  14C    basis set group =>   1
Atom  15N    basis set group =>   4
Atom  16C    basis set group =>   1
Atom  17C    basis set group =>   1
Atom  18C    basis set group =>   1
Atom  19S    basis set group =>   5
Atom  20C    basis set group =>   1
Atom  21C    basis set group =>   1
Atom  22C    basis set group =>   1
Atom  23C    basis set group =>   1
Atom  24C    basis set group =>   1
Atom  25S    basis set group =>   5
Atom  26C    basis set group =>   1
Atom  27C    basis set group =>   1
Atom  28N    basis set group =>   4
Atom  29C    basis set group =>   1
Atom  30C    basis set group =>   1
Atom  31C    basis set group =>   1
Atom  32C    basis set group =>   1
Atom  33C    basis set group =>   1
Atom  34N    basis set group =>   4
Atom  35N    basis set group =>   4
Atom  36C    basis set group =>   1
Atom  37C    basis set group =>   1
Atom  38N    basis set group =>   4
Atom  39C    basis set group =>   1
Atom  40C    basis set group =>   1
Atom  41C    basis set group =>   1
Atom  42N    basis set group =>   4
Atom  43C    basis set group =>   1
Atom  44C    basis set group =>   1
Atom  45C    basis set group =>   1
Atom  46C    basis set group =>   1
Atom  47S    basis set group =>   5
Atom  48C    basis set group =>   1
Atom  49C    basis set group =>   1
Atom  50S    basis set group =>   5
Atom  51C    basis set group =>   1
Atom  52C    basis set group =>   1
Atom  53C    basis set group =>   1
Atom  54C    basis set group =>   1
Atom  55C    basis set group =>   1
Atom  56C    basis set group =>   1
Atom  57C    basis set group =>   1
Atom  58C    basis set group =>   1
Atom  59C    basis set group =>   1
Atom  60N    basis set group =>   4
Atom  61C    basis set group =>   1
Atom  62N    basis set group =>   4
Atom  63C    basis set group =>   1
Atom  64C    basis set group =>   1
Atom  65C    basis set group =>   1
Atom  66Cl   basis set group =>   3
Atom  67C    basis set group =>   1
Atom  68Cl   basis set group =>   3
Atom  69C    basis set group =>   1
Atom  70C    basis set group =>   1
Atom  71C    basis set group =>   1
Atom  72O    basis set group =>   2
Atom  73H    basis set group =>   6
Atom  74H    basis set group =>   6
Atom  75H    basis set group =>   6
Atom  76H    basis set group =>   6
Atom  77H    basis set group =>   6
Atom  78H    basis set group =>   6
Atom  79H    basis set group =>   6
Atom  80H    basis set group =>   6
Atom  81H    basis set group =>   6
Atom  82H    basis set group =>   6
Atom  83H    basis set group =>   6
Atom  84H    basis set group =>   6
Atom  85H    basis set group =>   6
Atom  86H    basis set group =>   6
Atom  87H    basis set group =>   6
Atom  88H    basis set group =>   6
Atom  89H    basis set group =>   6
Atom  90H    basis set group =>   6
Atom  91H    basis set group =>   6
Atom  92H    basis set group =>   6
Atom  93H    basis set group =>   6
Atom  94H    basis set group =>   6
Atom  95H    basis set group =>   6
Atom  96H    basis set group =>   6
Atom  97H    basis set group =>   6
Atom  98H    basis set group =>   6
Atom  99H    basis set group =>   6
Atom 100H    basis set group =>   6
Atom 101H    basis set group =>   6
Atom 102H    basis set group =>   6
Atom 103H    basis set group =>   6
---------------------------------
AUXILIARY/J BASIS SET INFORMATION
---------------------------------
There are 6 groups of distinct atoms

 Group   1 Type C   : 12s5p4d2f1g contracted to 6s4p3d1f1g pattern {711111/2111/211/2/1}
 Group   2 Type O   : 12s5p4d2f1g contracted to 6s4p3d1f1g pattern {711111/2111/211/2/1}
 Group   3 Type Cl  : 14s5p5d2f1g contracted to 8s4p3d1f1g pattern {71111111/2111/311/2/1}
 Group   4 Type N   : 12s5p4d2f1g contracted to 6s4p3d1f1g pattern {711111/2111/211/2/1}
 Group   5 Type S   : 14s5p5d2f1g contracted to 8s4p3d1f1g pattern {71111111/2111/311/2/1}
 Group   6 Type H   : 5s2p1d contracted to 3s1p1d pattern {311/2/1}

Atom   0C    basis set group =>   1
Atom   1O    basis set group =>   2
Atom   2C    basis set group =>   1
Atom   3C    basis set group =>   1
Atom   4C    basis set group =>   1
Atom   5Cl   basis set group =>   3
Atom   6C    basis set group =>   1
Atom   7Cl   basis set group =>   3
Atom   8C    basis set group =>   1
Atom   9C    basis set group =>   1
Atom  10C    basis set group =>   1
Atom  11C    basis set group =>   1
Atom  12C    basis set group =>   1
Atom  13N    basis set group =>   4
Atom  14C    basis set group =>   1
Atom  15N    basis set group =>   4
Atom  16C    basis set group =>   1
Atom  17C    basis set group =>   1
Atom  18C    basis set group =>   1
Atom  19S    basis set group =>   5
Atom  20C    basis set group =>   1
Atom  21C    basis set group =>   1
Atom  22C    basis set group =>   1
Atom  23C    basis set group =>   1
Atom  24C    basis set group =>   1
Atom  25S    basis set group =>   5
Atom  26C    basis set group =>   1
Atom  27C    basis set group =>   1
Atom  28N    basis set group =>   4
Atom  29C    basis set group =>   1
Atom  30C    basis set group =>   1
Atom  31C    basis set group =>   1
Atom  32C    basis set group =>   1
Atom  33C    basis set group =>   1
Atom  34N    basis set group =>   4
Atom  35N    basis set group =>   4
Atom  36C    basis set group =>   1
Atom  37C    basis set group =>   1
Atom  38N    basis set group =>   4
Atom  39C    basis set group =>   1
Atom  40C    basis set group =>   1
Atom  41C    basis set group =>   1
Atom  42N    basis set group =>   4
Atom  43C    basis set group =>   1
Atom  44C    basis set group =>   1
Atom  45C    basis set group =>   1
Atom  46C    basis set group =>   1
Atom  47S    basis set group =>   5
Atom  48C    basis set group =>   1
Atom  49C    basis set group =>   1
Atom  50S    basis set group =>   5
Atom  51C    basis set group =>   1
Atom  52C    basis set group =>   1
Atom  53C    basis set group =>   1
Atom  54C    basis set group =>   1
Atom  55C    basis set group =>   1
Atom  56C    basis set group =>   1
Atom  57C    basis set group =>   1
Atom  58C    basis set group =>   1
Atom  59C    basis set group =>   1
Atom  60N    basis set group =>   4
Atom  61C    basis set group =>   1
Atom  62N    basis set group =>   4
Atom  63C    basis set group =>   1
Atom  64C    basis set group =>   1
Atom  65C    basis set group =>   1
Atom  66Cl   basis set group =>   3
Atom  67C    basis set group =>   1
Atom  68Cl   basis set group =>   3
Atom  69C    basis set group =>   1
Atom  70C    basis set group =>   1
Atom  71C    basis set group =>   1
Atom  72O    basis set group =>   2
Atom  73H    basis set group =>   6
Atom  74H    basis set group =>   6
Atom  75H    basis set group =>   6
Atom  76H    basis set group =>   6
Atom  77H    basis set group =>   6
Atom  78H    basis set group =>   6
Atom  79H    basis set group =>   6
Atom  80H    basis set group =>   6
Atom  81H    basis set group =>   6
Atom  82H    basis set group =>   6
Atom  83H    basis set group =>   6
Atom  84H    basis set group =>   6
Atom  85H    basis set group =>   6
Atom  86H    basis set group =>   6
Atom  87H    basis set group =>   6
Atom  88H    basis set group =>   6
Atom  89H    basis set group =>   6
Atom  90H    basis set group =>   6
Atom  91H    basis set group =>   6
Atom  92H    basis set group =>   6
Atom  93H    basis set group =>   6
Atom  94H    basis set group =>   6
Atom  95H    basis set group =>   6
Atom  96H    basis set group =>   6
Atom  97H    basis set group =>   6
Atom  98H    basis set group =>   6
Atom  99H    basis set group =>   6
Atom 100H    basis set group =>   6
Atom 101H    basis set group =>   6
Atom 102H    basis set group =>   6
Atom 103H    basis set group =>   6
------------------------------------------------------------------------------
                           ORCA GTO INTEGRAL CALCULATION
                           -- RI-GTO INTEGRALS CHOSEN --
------------------------------------------------------------------------------

                         BASIS SET STATISTICS AND STARTUP INFO

Gaussian basis set:
 # of primitive gaussian shells          ... 1079
 # of primitive gaussian functions       ... 2065
 # of contracted shells                  ...  547
 # of contracted basis functions         ... 1209
 Highest angular momentum                ...    2
 Maximum contraction depth               ...    5
Auxiliary gaussian basis set:
 # of primitive gaussian shells          ... 2024
 # of primitive gaussian functions       ... 5662
 # of contracted shells                  ... 1266
 # of contracted aux-basis functions     ... 3934
 Highest angular momentum                ...    4
 Maximum contraction depth               ...    7
Ratio of auxiliary to basis functions    ...  3.25
Integral package used                  ... LIBINT
 One Electron integrals                  ... done
 Ordering auxiliary basis shells         ... done
 Integral threshhold             Thresh  ...  2.500e-11
 Primitive cut-off               TCut    ...  2.500e-12
 Pre-screening matrix                    ... done
 Shell pair data                         ... 
 Ordering of the shell pairs             ... done (   0.012 sec) 58953 of 149878 pairs
 Determination of significant pairs      ... done (   0.000 sec)
 Creation of shell pair data             ... done (   0.009 sec)
 Storage of shell pair data              ... done (   0.012 sec)
 Shell pair data done in (   0.034 sec)
 Computing two index integrals           ... done
 Cholesky decomposition of the V-matrix  ... done


Timings:
 Total evaluation time                   ...   2.412 sec (  0.040 min)
 One electron matrix time                ...   0.701 sec (  0.012 min) = 29.1%
 Schwartz matrix evaluation time         ...   0.753 sec (  0.013 min) = 31.2%
 Two index repulsion integral time       ...   0.395 sec (  0.007 min) = 16.4%
 Cholesky decomposition of V             ...   0.511 sec (  0.009 min) = 21.2%
 Three index repulsion integral time     ...   0.000 sec (  0.000 min) =  0.0%

-------------------------------------------------------------------------------
                                 ORCA SCF
-------------------------------------------------------------------------------

------------
SCF SETTINGS
------------
Hamiltonian:
 Density Functional     Method          .... DFT(GTOs)
 Exchange Functional    Exchange        .... WB88
 Correlation Functional Correlation     .... LYP
 LDA part of GGA corr.  LDAOpt          .... VWN-5
 Gradients option       PostSCFGGA      .... off
 Hybrid DFT is turned on
   Fraction HF Exchange ScalHFX         ....  0.190000
   Scaling of DF-GGA-X  ScalDFX         ....  0.350000
   Scaling of DF-GGA-C  ScalDFC         ....  0.810000
   Scaling of DF-LDA-C  ScalLDAC        ....  1.000000
   Perturbative correction              ....  0.000000
   Density functional embedding theory  .... OFF
 Long-range corrected/Screened/Range-Separated Hybrid DFT is turned on
   Amount of maximum screened exact exchange              ....  0.460000
   Range separation parameter mu (erf(mu*r12)/r12)        ....  0.330000
 RI-approximation to the Coulomb term is turned on
   Number of auxiliary basis functions  .... 3934
   RIJ-COSX (HFX calculated with COS-X)).... on


General Settings:
 Integral files         IntName         .... Y15
 Hartree-Fock type      HFTyp           .... RHF
 Total Charge           Charge          ....    0
 Multiplicity           Mult            ....    1
 Number of Electrons    NEL             ....  566
 Basis Dimension        Dim             .... 1209
 Nuclear Repulsion      ENuc            ....  13525.9873782654 Eh

Convergence Acceleration:
 DIIS                   CNVDIIS         .... on
   Start iteration      DIISMaxIt       ....    12
   Startup error        DIISStart       ....  0.200000
   # of expansion vecs  DIISMaxEq       ....     5
   Bias factor          DIISBfac        ....   1.050
   Max. coefficient     DIISMaxC        ....  10.000
 Newton-Raphson         CNVNR           .... off
 SOSCF                  CNVSOSCF        .... on
   Start iteration      SOSCFMaxIt      ....   150
   Startup grad/error   SOSCFStart      ....  0.003300
 Level Shifting         CNVShift        .... on
   Level shift para.    LevelShift      ....    0.2500
   Turn off err/grad.   ShiftErr        ....    0.0010
 Zerner damping         CNVZerner       .... off
 Static damping         CNVDamp         .... on
   Fraction old density DampFac         ....    0.7000
   Max. Damping (<1)    DampMax         ....    0.9800
   Min. Damping (>=0)   DampMin         ....    0.0000
   Turn off err/grad.   DampErr         ....    0.1000
 Fernandez-Rico         CNVRico         .... off

SCF Procedure:
 Maximum # iterations   MaxIter         ....   125
 SCF integral mode      SCFMode         .... Direct
   Integral package                     .... LIBINT
 Reset frequency        DirectResetFreq ....    20
 Integral Threshold     Thresh          ....  2.500e-11 Eh
 Primitive CutOff       TCut            ....  2.500e-12 Eh

Convergence Tolerance:
 Convergence Check Mode ConvCheckMode   .... Total+1el-Energy
 Convergence forced     ConvForced      .... 1
 Energy Change          TolE            ....  1.000e-08 Eh
 1-El. energy change                    ....  1.000e-05 Eh
 Orbital Gradient       TolG            ....  1.000e-05
 Orbital Rotation angle TolX            ....  1.000e-05
 DIIS Error             TolErr          ....  5.000e-07


Diagonalization of the overlap matrix:
Smallest eigenvalue                        ... 9.663e-05
Time for diagonalization                   ...    0.542 sec
Threshold for overlap eigenvalues          ... 1.000e-08
Number of eigenvalues below threshold      ... 0
Time for construction of square roots      ...    0.175 sec
Total time needed                          ...    0.722 sec

-------------------
DFT GRID GENERATION
-------------------

General Integration Accuracy     IntAcc      ...  4.670
Radial Grid Type                 RadialGrid  ... Gauss-Chebyshev
Angular Grid (max. acc.)         AngularGrid ... Lebedev-302
Angular grid pruning method      GridPruning ... 3 (G Style)
Weight generation scheme         WeightScheme... Becke
Basis function cutoff            BFCut       ...    1.0000e-11
Integration weight cutoff        WCut        ...    1.0000e-14
Grids for H and He will be reduced by one unit

# of grid points (after initial pruning)     ... 563330 (   1.5 sec)
# of grid points (after weights+screening)   ... 473245 (  24.9 sec)
nearest neighbour list constructed           ...    0.0 sec
Grid point re-assignment to atoms done       ...    0.1 sec
Grid point division into batches done        ...    1.7 sec
Reduced shell lists constructed in    9.4 sec

Total number of grid points                  ...   473245
Total number of batches                      ...     7445
Average number of points per batch           ...       63
Average number of grid points per atom       ...     4550
Average number of shells per batch           ...   112.56 (20.58%)
Average number of basis functions per batch  ...   230.70 (19.08%)
Average number of large shells per batch     ...    63.90 (56.77%)
Average number of large basis fcns per batch ...   133.20 (57.74%)
Maximum spatial batch extension              ...  21.96, 23.17, 22.71 au
Average spatial batch extension              ...   2.05,  2.05,  2.19 au

Time for grid setup =   35.752 sec

------------------------------
INITIAL GUESS: MODEL POTENTIAL
------------------------------
Loading Hartree-Fock densities                     ... done
Calculating cut-offs                               ... done
Setting up the integral package                    ... done
Initializing the effective Hamiltonian             ... done
Starting the Coulomb interaction                   ... done (  11.0 sec)
Reading the grid                                   ... done
Mapping shells                                     ... done
Starting the XC term evaluation                    ... done (  10.1 sec)
  promolecular density results
     # of electrons  =    565.983328260
     EX              =   -569.998740068
     EC              =    -19.983880717
     EX+EC           =   -589.982620785
Transforming the Hamiltonian                       ... done (   0.1 sec)
Diagonalizing the Hamiltonian                      ... done (   0.4 sec)
Back transforming the eigenvectors                 ... done (   0.1 sec)
Now organizing SCF variables                       ... done
                      ------------------
                      INITIAL GUESS DONE (  57.7 sec)
                      ------------------
--------------------
COSX GRID GENERATION
--------------------

General Integration Accuracy     IntAcc      ...  3.340
Radial Grid Type                 RadialGrid  ... Gauss-Chebyshev
Angular Grid (max. acc.)         AngularGrid ... Lebedev-50
Angular grid pruning method      GridPruning ... 3 (G Style)
Weight generation scheme         WeightScheme... Becke
Basis function cutoff            BFCut       ...    1.0000e-11
Integration weight cutoff        WCut        ...    1.0000e-14
Grids for H and He will be reduced by one unit

# of grid points (after initial pruning)     ...  53142 (   0.1 sec)
# of grid points (after weights+screening)   ...  46962 (   2.4 sec)
nearest neighbour list constructed           ...    0.0 sec
Grid point re-assignment to atoms done       ...    0.0 sec
Grid point division into batches done        ...    0.0 sec
Reduced shell lists constructed in    1.1 sec

Total number of grid points                  ...    46962
Total number of batches                      ...      792
Average number of points per batch           ...       59
Average number of grid points per atom       ...      452
Average number of shells per batch           ...   137.71 (25.18%)
Average number of basis functions per batch  ...   285.59 (23.62%)
Average number of large shells per batch     ...    78.73 (57.17%)
Average number of large basis fcns per batch ...   166.26 (58.22%)
Maximum spatial batch extension              ...  18.03, 17.65, 20.94 au
Average spatial batch extension              ...   3.95,  3.93,  4.79 au

Overlap Fitting                  UseSFitting ... on
Constructing numerical overlap ... done (      0.8 sec)
Inverting numerical overlap    ... done (      0.0 sec)
Obtaining analytic overlap     ... done (      0.0 sec)
Final contraction and storage  ... done (      0.1 sec)


General Integration Accuracy     IntAcc      ...  3.670
Radial Grid Type                 RadialGrid  ... Gauss-Chebyshev
Angular Grid (max. acc.)         AngularGrid ... Lebedev-50
Angular grid pruning method      GridPruning ... 3 (G Style)
Weight generation scheme         WeightScheme... Becke
Basis function cutoff            BFCut       ...    1.0000e-11
Integration weight cutoff        WCut        ...    1.0000e-14
Grids for H and He will be reduced by one unit

# of grid points (after initial pruning)     ...  66318 (   0.1 sec)
# of grid points (after weights+screening)   ...  58383 (   3.0 sec)
nearest neighbour list constructed           ...    0.0 sec
Grid point re-assignment to atoms done       ...    0.0 sec
Grid point division into batches done        ...    0.0 sec
Reduced shell lists constructed in    1.4 sec

Total number of grid points                  ...    58383
Total number of batches                      ...      961
Average number of points per batch           ...       60
Average number of grid points per atom       ...      561
Average number of shells per batch           ...   134.87 (24.66%)
Average number of basis functions per batch  ...   279.27 (23.10%)
Average number of large shells per batch     ...    76.67 (56.84%)
Average number of large basis fcns per batch ...   161.73 (57.91%)
Maximum spatial batch extension              ...  20.11, 18.57, 24.70 au
Average spatial batch extension              ...   3.67,  3.75,  4.46 au

Overlap Fitting                  UseSFitting ... on
Constructing numerical overlap ... done (      1.0 sec)
Inverting numerical overlap    ... done (      0.0 sec)
Obtaining analytic overlap     ... done (      0.0 sec)
Final contraction and storage  ... done (      0.1 sec)


General Integration Accuracy     IntAcc      ...  4.010
Radial Grid Type                 RadialGrid  ... Gauss-Chebyshev
Angular Grid (max. acc.)         AngularGrid ... Lebedev-110
Angular grid pruning method      GridPruning ... 3 (G Style)
Weight generation scheme         WeightScheme... Becke
Basis function cutoff            BFCut       ...    1.0000e-11
Integration weight cutoff        WCut        ...    1.0000e-14
Grids for H and He will be reduced by one unit

# of grid points (after initial pruning)     ... 129188 (   0.2 sec)
# of grid points (after weights+screening)   ... 112262 (   5.8 sec)
nearest neighbour list constructed           ...    0.0 sec
Grid point re-assignment to atoms done       ...    0.0 sec
Grid point division into batches done        ...    0.1 sec
Reduced shell lists constructed in    2.5 sec

Total number of grid points                  ...   112262
Total number of batches                      ...     1813
Average number of points per batch           ...       61
Average number of grid points per atom       ...     1079
Average number of shells per batch           ...   127.30 (23.27%)
Average number of basis functions per batch  ...   263.22 (21.77%)
Average number of large shells per batch     ...    72.93 (57.29%)
Average number of large basis fcns per batch ...   153.38 (58.27%)
Maximum spatial batch extension              ...  20.60, 19.39, 28.30 au
Average spatial batch extension              ...   3.14,  3.16,  3.67 au

Overlap Fitting                  UseSFitting ... on
Constructing numerical overlap ... done (      1.7 sec)
Inverting numerical overlap    ... done (      0.0 sec)
Obtaining analytic overlap     ... done (      0.0 sec)
Final contraction and storage  ... done (      0.1 sec)

Time for X-Grid setup             =   20.438 sec
--------------
SCF ITERATIONS
--------------
ITER       Energy         Delta-E        Max-DP      RMS-DP      [F,P]     Damp
               ***  Starting incremental Fock matrix formation  ***
  0  -6147.0863245336   0.000000000000 0.08053367  0.00091399  0.2316122 0.7000
  1  -6147.5987776637  -0.512453130124 0.05162933  0.00065623  0.0981495 0.7000
                               ***Turning on DIIS***
  2  -6147.8233466590  -0.224568995303 0.09373061  0.00124995  0.0424543 0.0000
  3  -6148.1983096076  -0.374962948546 0.04389138  0.00048975  0.0523431 0.0000
  4  -6148.2625742884  -0.064264680868 0.01682980  0.00015941  0.0235341 0.0000
  5  -6148.2681798591  -0.005605570650 0.00764558  0.00006639  0.0075431 0.0000
                      *** Initiating the SOSCF procedure ***
                           *** Shutting down DIIS ***
                      *** Re-Reading the Fockian *** 
                      *** Removing any level shift *** 
ITER      Energy       Delta-E        Grad      Rot      Max-DP    RMS-DP
  6  -6148.26925853  -0.0010786687  0.003090  0.003090  0.003633  0.000040
               *** Restarting incremental Fock matrix formation ***
  7  -6148.26967597  -0.0004174443  0.002192  0.015252  0.003151  0.000052
  8  -6148.27004406  -0.0003680902  0.000823  0.017658  0.004418  0.000069
  9  -6148.27006613  -0.0000220695  0.001080  0.005696  0.001802  0.000025
 10  -6148.27017302  -0.0001068882  0.000267  0.001574  0.000746  0.000009
 11  -6148.27017125   0.0000017684  0.000274  0.000762  0.000400  0.000005
 12  -6148.27017775  -0.0000064963  0.000036  0.000239  0.000371  0.000003
 13  -6148.27017778  -0.0000000284  0.000046  0.000152  0.000174  0.000001
 14  -6148.27017818  -0.0000003992  0.000015  0.000085  0.000155  0.000001
 15  -6148.27017818  -0.0000000050  0.000024  0.000074  0.000104  0.000001
 16  -6148.27017819  -0.0000000106  0.000003  0.000036  0.000037  0.000000
 17  -6148.27017821  -0.0000000147  0.000005  0.000014  0.000017  0.000000
                  ***Gradient check signals convergence***
              ***Rediagonalizing the Fockian in SOSCF/NRSCF***

               *****************************************************
               *                     SUCCESS                       *
               *           SCF CONVERGED AFTER  18 CYCLES          *
               *****************************************************

Setting up the final grid:

General Integration Accuracy     IntAcc      ...  5.010
Radial Grid Type                 RadialGrid  ... Gauss-Chebyshev
Angular Grid (max. acc.)         AngularGrid ... Lebedev-434
Angular grid pruning method      GridPruning ... 3 (G Style)
Weight generation scheme         WeightScheme... Becke
Basis function cutoff            BFCut       ...    1.0000e-11
Integration weight cutoff        WCut        ...    1.0000e-14
Grids for H and He will be reduced by one unit

# of grid points (after initial pruning)     ... 996634 (   1.7 sec)
# of grid points (after weights+screening)   ... 834492 (  43.4 sec)
nearest neighbour list constructed           ...    0.0 sec
Grid point re-assignment to atoms done       ...    0.1 sec
Grid point division into batches done        ...    5.4 sec
Reduced shell lists constructed in   18.1 sec

Total number of grid points                  ...   834492
Total number of batches                      ...    13094
Average number of points per batch           ...       63
Average number of grid points per atom       ...     8024
Average number of shells per batch           ...   108.29 (19.80%)
Average number of basis functions per batch  ...   221.17 (18.29%)
Average number of large shells per batch     ...    61.33 (56.64%)
Average number of large basis fcns per batch ...   127.44 (57.62%)
Maximum spatial batch extension              ...  20.90, 22.03, 23.45 au
Average spatial batch extension              ...   1.67,  1.67,  1.77 au

Final grid set up in   63.1 sec
Final integration                            ... done (  22.4 sec)
Change in XC energy                          ...    -0.000109314
Integrated number of electrons               ...   566.000102008
Previous integrated no of electrons          ...   565.999129448
Old exchange energy                            =   -154.135975689 Eh
New exchange energy                            =   -154.132071210 Eh
Exchange energy change after final integration =      0.003904478 Eh
Total energy after final integration           =  -6148.266383061 Eh
Final COS-X integration done in                =   476.697 sec

----------------
TOTAL SCF ENERGY
----------------

Total Energy       :        -6148.26638306 Eh         -167302.83379 eV

Components:
Nuclear Repulsion  :        13525.98737827 Eh          368060.82841 eV
Electronic Energy  :       -19674.25376133 Eh         -535363.66221 eV
One Electron Energy:       -35387.76040124 Eh         -962949.91595 eV
Two Electron Energy:        15713.50663991 Eh          427586.25374 eV

Virial components:
Potential Energy   :       -12263.50290761 Eh         -333706.87945 eV
Kinetic Energy     :         6115.23652455 Eh          166404.04565 eV
Virial Ratio       :            2.00540124


DFT components:
N(Alpha)           :      283.000051004153 electrons
N(Beta)            :      283.000051004153 electrons
N(Total)           :      566.000102008306 electrons
E(XC)              :     -444.189363608516 Eh       
DFET-embed. en.    :        0.000000000000 Eh       

---------------
SCF CONVERGENCE
---------------

  Last Energy change         ...   -2.0547e-08  Tolerance :   1.0000e-08
  Last MAX-Density change    ...    8.4377e-15  Tolerance :   1.0000e-07
  Last RMS-Density change    ...    3.6382e-17  Tolerance :   5.0000e-09
  Last Orbital Gradient      ...    1.4109e-06  Tolerance :   1.0000e-05
  Last Orbital Rotation      ...    1.4967e-05  Tolerance :   1.0000e-05

             **** THE GBW FILE WAS UPDATED (Y15.gbw) ****
             **** DENSITY FILE WAS UPDATED (Y15.scfp) ****
             **** ENERGY FILE WAS UPDATED (Y15.en.tmp) ****
             **** THE GBW FILE WAS UPDATED (Y15.gbw) ****
             **** DENSITY FILE WAS UPDATED (Y15.scfp) ****
----------------
ORBITAL ENERGIES
----------------

  NO   OCC          E(Eh)            E(eV) 
   0   2.0000    -101.606889     -2764.8640 
   1   2.0000    -101.604851     -2764.8085 
   2   2.0000    -101.602433     -2764.7428 
   3   2.0000    -101.601158     -2764.7081 
   4   2.0000     -88.976485     -2421.1733 
   5   2.0000     -88.971323     -2421.0328 
   6   2.0000     -88.959717     -2420.7170 
   7   2.0000     -88.915523     -2419.5144 
   8   2.0000     -19.309113      -525.4277 
   9   2.0000     -19.230785      -523.2963 
  10   2.0000     -14.525927      -395.2706 
  11   2.0000     -14.495556      -394.4441 
  12   2.0000     -14.490362      -394.3028 
  13   2.0000     -14.443929      -393.0393 
  14   2.0000     -14.440983      -392.9591 
  15   2.0000     -14.426626      -392.5685 
  16   2.0000     -14.419424      -392.3725 
  17   2.0000     -14.414293      -392.2329 
  18   2.0000     -14.399478      -391.8297 
  19   2.0000     -10.394510      -282.8490 
  20   2.0000     -10.379422      -282.4384 
  21   2.0000     -10.369060      -282.1565 
  22   2.0000     -10.360434      -281.9217 
  23   2.0000     -10.359745      -281.9030 
  24   2.0000     -10.359300      -281.8909 
  25   2.0000     -10.355042      -281.7750 
  26   2.0000     -10.354235      -281.7531 
  27   2.0000     -10.349833      -281.6333 
  28   2.0000     -10.348800      -281.6052 
  29   2.0000     -10.343462      -281.4599 
  30   2.0000     -10.343283      -281.4550 
  31   2.0000     -10.338637      -281.3286 
  32   2.0000     -10.336061      -281.2585 
  33   2.0000     -10.334739      -281.2226 
  34   2.0000     -10.333564      -281.1906 
  35   2.0000     -10.329746      -281.0867 
  36   2.0000     -10.329680      -281.0849 
  37   2.0000     -10.327287      -281.0198 
  38   2.0000     -10.325329      -280.9665 
  39   2.0000     -10.324171      -280.9350 
  40   2.0000     -10.322458      -280.8884 
  41   2.0000     -10.321134      -280.8523 
  42   2.0000     -10.319768      -280.8152 
  43   2.0000     -10.319119      -280.7975 
  44   2.0000     -10.317680      -280.7584 
  45   2.0000     -10.317151      -280.7440 
  46   2.0000     -10.317003      -280.7399 
  47   2.0000     -10.316775      -280.7337 
  48   2.0000     -10.316437      -280.7245 
  49   2.0000     -10.315768      -280.7063 
  50   2.0000     -10.315401      -280.6963 
  51   2.0000     -10.314367      -280.6682 
  52   2.0000     -10.314359      -280.6680 
  53   2.0000     -10.314042      -280.6594 
  54   2.0000     -10.312993      -280.6308 
  55   2.0000     -10.312989      -280.6307 
  56   2.0000     -10.312762      -280.6245 
  57   2.0000     -10.310260      -280.5564 
  58   2.0000     -10.309716      -280.5416 
  59   2.0000     -10.307680      -280.4862 
  60   2.0000     -10.307368      -280.4777 
  61   2.0000     -10.306253      -280.4474 
  62   2.0000     -10.306069      -280.4424 
  63   2.0000     -10.305596      -280.4295 
  64   2.0000     -10.303697      -280.3778 
  65   2.0000     -10.302595      -280.3479 
  66   2.0000     -10.289146      -279.9819 
  67   2.0000     -10.288187      -279.9558 
  68   2.0000     -10.287297      -279.9316 
  69   2.0000     -10.283773      -279.8357 
  70   2.0000     -10.268885      -279.4306 
  71   2.0000     -10.266597      -279.3683 
  72   2.0000     -10.258129      -279.1379 
  73   2.0000      -9.561498      -260.1816 
  74   2.0000      -9.559854      -260.1369 
  75   2.0000      -9.557434      -260.0710 
  76   2.0000      -9.555666      -260.0229 
  77   2.0000      -8.068892      -219.5657 
  78   2.0000      -8.065578      -219.4755 
  79   2.0000      -8.053839      -219.1561 
  80   2.0000      -8.011150      -217.9945 
  81   2.0000      -7.331787      -199.5081 
  82   2.0000      -7.330244      -199.4661 
  83   2.0000      -7.327857      -199.4011 
  84   2.0000      -7.326048      -199.3519 
  85   2.0000      -7.321814      -199.2367 
  86   2.0000      -7.321144      -199.2185 
  87   2.0000      -7.320114      -199.1904 
  88   2.0000      -7.319387      -199.1707 
  89   2.0000      -7.317670      -199.1239 
  90   2.0000      -7.316956      -199.1045 
  91   2.0000      -7.315870      -199.0749 
  92   2.0000      -7.315319      -199.0599 
  93   2.0000      -6.038716      -164.3218 
  94   2.0000      -6.035444      -164.2328 
  95   2.0000      -6.034090      -164.1959 
  96   2.0000      -6.031561      -164.1271 
  97   2.0000      -6.030508      -164.0985 
  98   2.0000      -6.026379      -163.9861 
  99   2.0000      -6.023259      -163.9012 
 100   2.0000      -6.019629      -163.8024 
 101   2.0000      -6.015363      -163.6863 
 102   2.0000      -5.981586      -162.7672 
 103   2.0000      -5.977453      -162.6548 
 104   2.0000      -5.970878      -162.4758 
 105   2.0000      -1.232135       -33.5281 
 106   2.0000      -1.211821       -32.9753 
 107   2.0000      -1.145993       -31.1841 
 108   2.0000      -1.136090       -30.9146 
 109   2.0000      -1.118966       -30.4486 
 110   2.0000      -1.035813       -28.1859 
 111   2.0000      -1.029317       -28.0091 
 112   2.0000      -1.023151       -27.8413 
 113   2.0000      -1.020649       -27.7733 
 114   2.0000      -1.016229       -27.6530 
 115   2.0000      -1.006077       -27.3767 
 116   2.0000      -1.001876       -27.2624 
 117   2.0000      -0.996385       -27.1130 
 118   2.0000      -0.988061       -26.8865 
 119   2.0000      -0.982890       -26.7458 
 120   2.0000      -0.979499       -26.6535 
 121   2.0000      -0.966446       -26.2983 
 122   2.0000      -0.965693       -26.2778 
 123   2.0000      -0.963695       -26.2235 
 124   2.0000      -0.963459       -26.2171 
 125   2.0000      -0.948718       -25.8159 
 126   2.0000      -0.939513       -25.5655 
 127   2.0000      -0.938522       -25.5385 
 128   2.0000      -0.932528       -25.3754 
 129   2.0000      -0.917980       -24.9795 
 130   2.0000      -0.905920       -24.6513 
 131   2.0000      -0.905457       -24.6387 
 132   2.0000      -0.897641       -24.4261 
 133   2.0000      -0.882635       -24.0177 
 134   2.0000      -0.876857       -23.8605 
 135   2.0000      -0.869140       -23.6505 
 136   2.0000      -0.868528       -23.6338 
 137   2.0000      -0.865384       -23.5483 
 138   2.0000      -0.864009       -23.5109 
 139   2.0000      -0.856312       -23.3014 
 140   2.0000      -0.847728       -23.0679 
 141   2.0000      -0.844739       -22.9865 
 142   2.0000      -0.831428       -22.6243 
 143   2.0000      -0.825321       -22.4581 
 144   2.0000      -0.813464       -22.1355 
 145   2.0000      -0.808940       -22.0124 
 146   2.0000      -0.802169       -21.8281 
 147   2.0000      -0.776445       -21.1281 
 148   2.0000      -0.772698       -21.0262 
 149   2.0000      -0.770949       -20.9786 
 150   2.0000      -0.764170       -20.7941 
 151   2.0000      -0.761507       -20.7217 
 152   2.0000      -0.749538       -20.3960 
 153   2.0000      -0.745690       -20.2912 
 154   2.0000      -0.738388       -20.0926 
 155   2.0000      -0.727682       -19.8012 
 156   2.0000      -0.724934       -19.7264 
 157   2.0000      -0.724134       -19.7047 
 158   2.0000      -0.719753       -19.5855 
 159   2.0000      -0.708845       -19.2887 
 160   2.0000      -0.701922       -19.1003 
 161   2.0000      -0.698692       -19.0124 
 162   2.0000      -0.696492       -18.9525 
 163   2.0000      -0.687828       -18.7168 
 164   2.0000      -0.675097       -18.3703 
 165   2.0000      -0.671113       -18.2619 
 166   2.0000      -0.664949       -18.0942 
 167   2.0000      -0.658682       -17.9237 
 168   2.0000      -0.652393       -17.7525 
 169   2.0000      -0.651287       -17.7224 
 170   2.0000      -0.641355       -17.4522 
 171   2.0000      -0.631082       -17.1726 
 172   2.0000      -0.628071       -17.0907 
 173   2.0000      -0.626178       -17.0392 
 174   2.0000      -0.616718       -16.7818 
 175   2.0000      -0.614350       -16.7173 
 176   2.0000      -0.610206       -16.6045 
 177   2.0000      -0.605739       -16.4830 
 178   2.0000      -0.599739       -16.3197 
 179   2.0000      -0.599069       -16.3015 
 180   2.0000      -0.596708       -16.2373 
 181   2.0000      -0.592330       -16.1181 
 182   2.0000      -0.587386       -15.9836 
 183   2.0000      -0.585305       -15.9270 
 184   2.0000      -0.581398       -15.8206 
 185   2.0000      -0.579862       -15.7789 
 186   2.0000      -0.571427       -15.5493 
 187   2.0000      -0.566528       -15.4160 
 188   2.0000      -0.563142       -15.3239 
 189   2.0000      -0.556389       -15.1401 
 190   2.0000      -0.555817       -15.1246 
 191   2.0000      -0.554855       -15.0984 
 192   2.0000      -0.552551       -15.0357 
 193   2.0000      -0.550749       -14.9867 
 194   2.0000      -0.549612       -14.9557 
 195   2.0000      -0.548992       -14.9388 
 196   2.0000      -0.547383       -14.8950 
 197   2.0000      -0.544307       -14.8113 
 198   2.0000      -0.540385       -14.7046 
 199   2.0000      -0.535497       -14.5716 
 200   2.0000      -0.532486       -14.4897 
 201   2.0000      -0.529689       -14.4136 
 202   2.0000      -0.525714       -14.3054 
 203   2.0000      -0.523226       -14.2377 
 204   2.0000      -0.520242       -14.1565 
 205   2.0000      -0.515838       -14.0367 
 206   2.0000      -0.513597       -13.9757 
 207   2.0000      -0.511061       -13.9067 
 208   2.0000      -0.507928       -13.8214 
 209   2.0000      -0.502642       -13.6776 
 210   2.0000      -0.498596       -13.5675 
 211   2.0000      -0.495485       -13.4828 
 212   2.0000      -0.494125       -13.4458 
 213   2.0000      -0.490756       -13.3542 
 214   2.0000      -0.490038       -13.3346 
 215   2.0000      -0.486861       -13.2482 
 216   2.0000      -0.485461       -13.2101 
 217   2.0000      -0.483252       -13.1500 
 218   2.0000      -0.481690       -13.1075 
 219   2.0000      -0.480207       -13.0671 
 220   2.0000      -0.479665       -13.0523 
 221   2.0000      -0.474259       -12.9052 
 222   2.0000      -0.473091       -12.8735 
 223   2.0000      -0.469799       -12.7839 
 224   2.0000      -0.468823       -12.7573 
 225   2.0000      -0.463108       -12.6018 
 226   2.0000      -0.458928       -12.4881 
 227   2.0000      -0.458373       -12.4730 
 228   2.0000      -0.457992       -12.4626 
 229   2.0000      -0.455445       -12.3933 
 230   2.0000      -0.453190       -12.3319 
 231   2.0000      -0.449334       -12.2270 
 232   2.0000      -0.448092       -12.1932 
 233   2.0000      -0.447153       -12.1676 
 234   2.0000      -0.446437       -12.1482 
 235   2.0000      -0.444243       -12.0885 
 236   2.0000      -0.443856       -12.0779 
 237   2.0000      -0.441053       -12.0017 
 238   2.0000      -0.438635       -11.9359 
 239   2.0000      -0.437767       -11.9122 
 240   2.0000      -0.436676       -11.8826 
 241   2.0000      -0.435539       -11.8516 
 242   2.0000      -0.433457       -11.7950 
 243   2.0000      -0.433005       -11.7827 
 244   2.0000      -0.432452       -11.7676 
 245   2.0000      -0.431796       -11.7498 
 246   2.0000      -0.429996       -11.7008 
 247   2.0000      -0.427176       -11.6241 
 248   2.0000      -0.426038       -11.5931 
 249   2.0000      -0.422537       -11.4978 
 250   2.0000      -0.421556       -11.4711 
[...]
  32   4.124     300.7   0.026421   0.023723  -133.003214  -127.622066     0.09 (  99-> 103)    0.09 ( 100-> 107)    0.08 (  87-> 101)
  33   4.197     295.4   0.005580   0.005218   0.539459  -0.371411     0.34 (  90-> 101)    0.19 (  90-> 102)    0.06 (  97-> 104)
  34   4.237     292.6   0.282742   0.255471  452.519702  432.662460     0.18 ( 100-> 107)    0.14 (  89-> 101)    0.07 (  87-> 101)
  35   4.277     289.9   0.040265   0.034978  -397.167528  -369.018621     0.16 (  89-> 101)    0.07 ( 100-> 107)    0.07 (  93-> 103)
  36   4.305     288.0   0.065369   0.063341  -129.854598  -125.244094     0.19 (  96-> 104)    0.13 (  89-> 101)    0.07 (  96-> 103)
  37   4.356     284.6   0.307424   0.276562  -290.344420  -278.283832     0.18 (  96-> 104)    0.17 (  86-> 101)    0.10 (  95-> 102)
  38   4.362     284.2   0.168428   0.147497   7.861302   9.454698     0.14 (  86-> 101)    0.12 (  96-> 104)    0.10 (  89-> 101)
  39   4.421     280.4   0.147674   0.131668  229.387783  214.844382     0.23 ( 100-> 108)    0.19 ( 100-> 107)    0.14 (  93-> 103)
  40   4.433     279.7   0.008038   0.006402  14.256591  15.618219     0.20 (  96-> 105)    0.17 (  95-> 105)    0.16 (  98-> 105)
  41   4.460     278.0   0.010221   0.010364  -21.999657  -26.825576     0.15 (  87-> 101)    0.10 (  92-> 102)    0.09 (  98-> 106)
  42   4.479     276.8   0.003816   0.002651  -12.315004  -11.550507     0.09 (  87-> 101)    0.09 (  91-> 101)    0.06 (  91-> 102)
  43   4.542     272.9   0.023549   0.021506  -3.564338  -5.980802     0.13 (  98-> 105)    0.09 (  95-> 105)    0.06 (  98-> 106)
  44   4.590     270.1   0.044813   0.044402  -32.949561  -23.739286     0.12 ( 100-> 112)    0.12 (  99-> 108)    0.09 ( 100-> 110)
  45   4.615     268.6   0.061734   0.053258  99.401979  92.794806     0.16 (  85-> 101)    0.10 (  95-> 104)    0.08 (  86-> 102)
  46   4.637     267.4   0.306688   0.276325  -117.566955  -113.711746     0.16 (  97-> 106)    0.09 (  98-> 106)    0.07 (  97-> 105)
  47   4.660     266.1   0.077188   0.066751   7.588113   2.643755     0.07 (  85-> 101)    0.07 (  97-> 103)    0.07 (  87-> 102)
  48   4.681     264.9   0.014480   0.013529  -14.478052  -13.120167     0.22 (  97-> 103)    0.18 (  98-> 103)    0.13 (  97-> 104)
  49   4.752     260.9   0.160989   0.137079  -117.157836  -108.317778     0.14 (  99-> 108)    0.08 (  99-> 107)    0.06 (  92-> 103)
  50   4.798     258.4   0.028268   0.023598  -8.468040  -3.345164     0.22 (  90-> 102)    0.10 (  90-> 101)    0.08 (  95-> 104)
  51   4.833     256.5   0.024537   0.020339  -30.891870  -28.396010     0.10 (  99-> 108)    0.07 (  90-> 102)    0.06 (  90-> 101)
  52   4.853     255.5   0.051000   0.039305  -15.518692  -14.324578     0.10 (  92-> 104)    0.09 (  95-> 103)    0.09 (  89-> 103)
  53   4.866     254.8   0.004793   0.003543  -2.065194  -3.223446     0.41 (  83-> 101)    0.13 (  83-> 102)    0.11 (  84-> 101)
  54   4.936     251.2   0.042483   0.035765  -12.075718  -12.084375     0.12 (  92-> 103)    0.08 (  93-> 102)    0.08 (  92-> 102)
  55   4.956     250.2   0.050051   0.040988  12.733496  15.200012     0.22 (  94-> 104)    0.12 (  94-> 102)    0.09 (  94-> 101)
  56   4.984     248.7   0.002072   0.001559   4.721624   5.381115     0.24 (  98-> 106)    0.12 (  97-> 106)    0.11 (  96-> 106)

-----------------------------------------------------------------------------
         ABSORPTION SPECTRUM VIA TRANSITION ELECTRIC DIPOLE MOMENTS
-----------------------------------------------------------------------------
State   Energy  Wavelength   fosc         T2         TX        TY        TZ  
        (cm-1)    (nm)                  (au**2)     (au)      (au)      (au) 
-----------------------------------------------------------------------------
   0   11741.5    851.7   0.709489741  19.89283   3.62031  -1.64894  -2.01672
   1   16002.7    624.9   0.138028020   2.83955  -1.50734  -0.75034  -0.06695
   2   16743.1    597.3   0.560803993  11.02684  -3.14162   0.85029   0.65884
   3   19955.7    501.1   0.102551650   1.69181   1.21042  -0.47604  -0.00853
   4   20618.7    485.0   0.131487588   2.09942  -1.41706   0.28918   0.08787
   5   21638.8    462.1   0.048810897   0.74261  -0.19370   0.65454   0.52599
   6   22222.1    450.0   0.037784957   0.55977  -0.68081   0.25437   0.17767
   7   22549.7    443.5   0.078170329   1.14124   0.96832   0.39399  -0.21992
   8   23525.1    425.1   0.184324198   2.57945  -1.52190  -0.44046   0.26321
   9   23955.7    417.4   0.463811021   6.37393  -0.11740   2.48671  -0.42002
  10   25158.3    397.5   0.148687865   1.94568  -1.13578   0.66282   0.46515
  11   25880.3    386.4   0.083259906   1.05911  -0.19118   1.00723   0.08973
  12   26539.7    376.8   0.022333005   0.27703   0.50790  -0.03014  -0.13474
  13   26756.3    373.7   0.057770645   0.71082   0.24959   0.75207  -0.28795
  14   26932.8    371.3   0.058303164   0.71267  -0.08588  -0.83872  -0.04285
  15   27499.5    363.6   0.035224951   0.42170  -0.27010   0.55146  -0.21127
  16   27922.6    358.1   0.185887792   2.19164   0.76436   1.26777   0.01282
  17   28777.0    347.5   0.031222055   0.35718  -0.02936  -0.59637   0.02579
  18   29422.5    339.9   0.027230298   0.30468  -0.15071  -0.52317  -0.09092
  19   29563.9    338.3   0.005976924   0.06656   0.10771  -0.15611  -0.17489
  20   29635.1    337.4   0.000931195   0.01034  -0.07944   0.04017  -0.04919
  21   30246.8    330.6   0.231664716   2.52148  -0.05751   1.57069   0.22605
  22   30478.1    328.1   0.012046752   0.13012   0.33813   0.12350   0.02317
  23   30710.5    325.6   0.001174294   0.01259   0.07497   0.06026   0.05776
  24   31019.2    322.4   0.175301990   1.86051  -0.32756  -1.30763   0.20810
  25   31285.7    319.6   0.014616671   0.15381  -0.36615   0.11517   0.08049
  26   31646.9    316.0   0.062763141   0.65290  -0.09178   0.78643   0.16127
  27   31866.5    313.8   0.106658904   1.10189  -0.71624  -0.76354  -0.07680
  28   32062.9    311.9   0.002713458   0.02786  -0.12750  -0.09994   0.04022
  29   32410.8    308.5   0.139612382   1.41811  -1.18697   0.02283  -0.09326
  30   32666.7    306.1   0.050831180   0.51227   0.20761  -0.63791   0.24949
  31   32974.4    303.3   0.121622728   1.21426   0.02936   1.09603  -0.11010
  32   33260.7    300.7   0.026420611   0.26151  -0.10256  -0.36269  -0.34561
  33   33853.4    295.4   0.005579708   0.05426   0.08937   0.09739   0.19181
  34   34177.3    292.6   0.282741809   2.72350  -0.19436   1.62568  -0.20708
  35   34497.1    289.9   0.040264709   0.38425  -0.46400  -0.16891  -0.37473
  36   34723.0    288.0   0.065368879   0.61977   0.57220   0.53073   0.10333
  37   35136.5    284.6   0.307424096   2.88042  -1.35425  -0.98320  -0.28238
  38   35183.0    284.2   0.168427829   1.57600   0.82153   0.94853   0.03726
  39   35660.5    280.4   0.147674241   1.36331   0.99197   0.49912  -0.36081
  40   35757.8    279.7   0.008038417   0.07401  -0.01584   0.07006  -0.26239
  41   35974.7    278.0   0.010220658   0.09353  -0.00295   0.30469  -0.02618
  42   36123.0    276.8   0.003816476   0.03478  -0.16912   0.07370  -0.02732
  43   36637.4    272.9   0.023549369   0.21161  -0.42288  -0.18065   0.01211
  44   37017.1    270.1   0.044812895   0.39854   0.01781  -0.52422  -0.35132
  45   37226.0    268.6   0.061734109   0.54595   0.40326  -0.61829   0.03244
  46   37402.5    267.4   0.306687531   2.69942  -1.56043   0.20737   0.47060
  47   37583.2    266.1   0.077187531   0.67613  -0.79640   0.09741   0.17996
  48   37756.8    264.9   0.014479512   0.12625   0.31340   0.10197  -0.13279
  49   38326.6    260.9   0.160988744   1.38284   0.77882   0.76570   0.43586
  50   38696.2    258.4   0.028268237   0.24050  -0.00512   0.43889   0.21873
  51   38984.0    256.5   0.024537416   0.20721   0.27384   0.33182   0.14873
  52   39139.0    255.5   0.050999564   0.42898   0.32605  -0.52784  -0.20987
  53   39244.1    254.8   0.004793470   0.04021  -0.00137  -0.17699  -0.09426
  54   39807.9    251.2   0.042482945   0.35133   0.30073   0.50680   0.06363
  55   39973.7    250.2   0.050051122   0.41221  -0.19624   0.59954   0.11936
  56   40202.1    248.7   0.002071682   0.01696   0.03600   0.07551   0.09983

-----------------------------------------------------------------------------
         ABSORPTION SPECTRUM VIA TRANSITION VELOCITY DIPOLE MOMENTS
-----------------------------------------------------------------------------
State   Energy  Wavelength   fosc         P2         PX        PY        PZ  
        (cm-1)    (nm)                  (au**2)     (au)      (au)      (au) 
-----------------------------------------------------------------------------
   0   11741.5    851.7   1.169742410   0.09387   0.25095  -0.10858  -0.13822
   1   16002.7    624.9   0.210963430   0.02307  -0.13488  -0.06961  -0.00593
   2   16743.1    597.3   0.691678693   0.07915  -0.26848   0.06428   0.05417
   3   19955.7    501.1   0.118207871   0.01612   0.11675  -0.04982  -0.00296
   4   20618.7    485.0   0.131605290   0.01855  -0.13374   0.02499   0.00586
   5   21638.8    462.1   0.052707535   0.00779  -0.02869   0.06133   0.05666
   6   22222.1    450.0   0.038397985   0.00583  -0.07108   0.02400   0.01425
   7   22549.7    443.5   0.086974569   0.01340   0.10372   0.04586  -0.02329
   8   23525.1    425.1   0.213510862   0.03433  -0.17455  -0.05383   0.03101
   9   23955.7    417.4   0.509655239   0.08344  -0.00092   0.28428  -0.05125
  10   25158.3    397.5   0.150727565   0.02592  -0.12817   0.08131   0.05365
  11   25880.3    386.4   0.078837513   0.01394  -0.02345   0.11531   0.00991
  12   26539.7    376.8   0.018958028   0.00344   0.05605  -0.00296  -0.01700
  13   26756.3    373.7   0.054378598   0.00994   0.02963   0.08863  -0.03479
  14   26932.8    371.3   0.057738341   0.01063  -0.01183  -0.10236  -0.00328
  15   27499.5    363.6   0.035875647   0.00674  -0.03328   0.06942  -0.02856
  16   27922.6    358.1   0.195910944   0.03739   0.10401   0.16300   0.00028
  17   28777.0    347.5   0.030487819   0.00600  -0.00585  -0.07697   0.00618
  18   29422.5    339.9   0.028603890   0.00575  -0.01695  -0.07264  -0.01372
  19   29563.9    338.3   0.007203000   0.00146   0.01135  -0.02595  -0.02555
  20   29635.1    337.4   0.000936546   0.00019  -0.00981   0.00524  -0.00812
  21   30246.8    330.6   0.209862009   0.04338  -0.00044   0.20645   0.02759
  22   30478.1    328.1   0.009886004   0.00206   0.04189   0.01704   0.00380
  23   30710.5    325.6   0.000732721   0.00015   0.01047   0.00224   0.00625
  24   31019.2    322.4   0.172983368   0.03667  -0.04773  -0.18316   0.02912
  25   31285.7    319.6   0.016641820   0.00356  -0.05584   0.01649   0.01299
  26   31646.9    316.0   0.057473112   0.01243  -0.00620   0.10945   0.02033
  27   31866.5    313.8   0.095673047   0.02084  -0.09738  -0.10596  -0.01116
  28   32062.9    311.9   0.002841192   0.00062  -0.01903  -0.01529   0.00518
  29   32410.8    308.5   0.132398942   0.02933  -0.17076  -0.00017  -0.01305
  30   32666.7    306.1   0.043765555   0.00977   0.03450  -0.08467   0.03757
  31   32974.4    303.3   0.109070903   0.02458   0.00399   0.15582  -0.01685
  32   33260.7    300.7   0.023723447   0.00539  -0.01858  -0.05051  -0.04996
  33   33853.4    295.4   0.005217688   0.00121   0.01569   0.01519   0.02702
  34   34177.3    292.6   0.255471283   0.05967  -0.02689   0.24087  -0.03051
  35   34497.1    289.9   0.034978196   0.00825  -0.06831  -0.02227  -0.05554
  36   34723.0    288.0   0.063340685   0.01503   0.09355   0.07807   0.01357
  37   35136.5    284.6   0.276562090   0.06641  -0.20428  -0.15106  -0.04317
  38   35183.0    284.2   0.147496551   0.03547   0.12008   0.14490   0.00707
  39   35660.5    280.4   0.131667685   0.03209   0.15253   0.07581  -0.05546
  40   35757.8    279.7   0.006401609   0.00156  -0.00412   0.01253  -0.03729
  41   35974.7    278.0   0.010363520   0.00255   0.00529   0.04971  -0.00700
  42   36123.0    276.8   0.002650820   0.00065  -0.02287   0.01013  -0.00537
  43   36637.4    272.9   0.021506232   0.00539  -0.06753  -0.02849   0.00355
  44   37017.1    270.1   0.044401686   0.01123   0.00260  -0.08618  -0.06163
  45   37226.0    268.6   0.053257965   0.01355   0.06645  -0.09553   0.00263
  46   37402.5    267.4   0.276325463   0.07064  -0.25248   0.03146   0.07683
  47   37583.2    266.1   0.066750915   0.01715  -0.12674   0.01273   0.03035
  48   37756.8    264.9   0.013529116   0.00349   0.05195   0.01858  -0.02114
  49   38326.6    260.9   0.137079078   0.03591   0.12711   0.12233   0.06918
  50   38696.2    258.4   0.023598208   0.00624  -0.00578   0.06945   0.03721
  51   38984.0    256.5   0.020338905   0.00542   0.04356   0.05415   0.02426
  52   39139.0    255.5   0.039305055   0.01051   0.05013  -0.08331  -0.03258
  53   39244.1    254.8   0.003542524   0.00095  -0.00237  -0.02788  -0.01294
  54   39807.9    251.2   0.035765058   0.00973   0.04664   0.08631   0.01033
  55   39973.7    250.2   0.040988097   0.01120  -0.03007   0.09920   0.02126
  56   40202.1    248.7   0.001559390   0.00043   0.00601   0.01111   0.01640

-------------------------------------------------------------------
                             CD SPECTRUM
-------------------------------------------------------------------
State   Energy Wavelength       R         MX        MY        MZ   
        (cm-1)   (nm)       (1e40*cgs)   (au)      (au)      (au)  
-------------------------------------------------------------------
   0   11741.5    851.7    -879.30833   0.96497  -3.62945   2.85016
   1   16002.7    624.9    241.48853   0.87790  -0.61515   2.43063
   2   16743.1    597.3    170.12241   0.24562   0.23852  -0.23205
   3   19955.7    501.1     90.25757  -0.12149   0.49055   0.27156
   4   20618.7    485.0    421.09564   1.13506  -0.96584   1.15346
   5   21638.8    462.1    -59.67880  -0.11043   1.29474  -1.17052
   6   22222.1    450.0    -20.12181  -0.33746  -0.24448  -0.46262
   7   22549.7    443.5    122.46994  -1.25815   0.19377  -2.83012
   8   23525.1    425.1    202.72509   0.90318   0.09985   2.12196
   9   23955.7    417.4    163.26816  -1.47669  -1.35307  -5.94901
  10   25158.3    397.5    -98.97976  -0.32579   0.86502  -1.12538
  11   25880.3    386.4    -153.53722  -1.01664   0.74210  -3.23718
  12   26539.7    376.8     19.74320  -0.27233  -0.22007  -0.35569
  13   26756.3    373.7    -47.10507  -0.95480  -0.44683  -2.68867
  14   26932.8    371.3     28.08355   1.33889  -0.16167   3.26156
  15   27499.5    363.6      1.04493  -0.64178  -0.92435  -1.57126
  16   27922.6    358.1     19.14847  -1.79895   1.07306  -5.19342
  17   28777.0    347.5     -1.41910   0.36004   0.04978   1.79465
  18   29422.5    339.9    -13.41346   0.11700  -0.27768   0.77800
  19   29563.9    338.3     12.04516   0.30683  -0.88763   1.27346
  20   29635.1    337.4     -8.60993  -0.30919  -0.08468  -0.31234
  21   30246.8    330.6    -22.23048  -0.41313   0.37231  -2.27490
  22   30478.1    328.1     25.12632  -0.43454   0.62759  -1.60386
  23   30710.5    325.6    -16.69530   0.41375   0.02219   0.66601
  24   31019.2    322.4    149.15218   2.03470   0.81935   5.31067
  25   31285.7    319.6     63.21974   0.95658  -0.22924   1.34738
  26   31646.9    316.0    -79.11318  -1.51786   1.08929  -4.09474
  27   31866.5    313.8    122.99883   0.97933  -0.48507   2.48357
  28   32062.9    311.9    -13.62253  -0.40335   0.04395   0.26741
  29   32410.8    308.5    112.92971   0.24504  -2.15710   1.49019
  30   32666.7    306.1     47.91923   0.82986   1.38979   2.04810
  31   32974.4    303.3    -33.05857  -0.95627  -0.18887  -3.40899
  32   33260.7    300.7    -133.00321  -0.61739  -0.95721  -0.44486
  33   33853.4    295.4      0.53946  -0.01520   0.41559  -0.21586
  34   34177.3    292.6    452.51970  -0.45889  -1.60683  -2.91331
  35   34497.1    289.9    -397.16753  -0.98059  -1.16229  -2.75818
  36   34723.0    288.0    -129.85460   0.48405   0.33516   0.92927
  37   35136.5    284.6    -290.34442  -0.10329  -1.30545   0.67879
  38   35183.0    284.2      7.86130   0.24263  -0.24470  -0.01530
  39   35660.5    280.4    229.38778  -0.13625  -1.65047   0.03930
  40   35757.8    279.7     14.25659  -0.14282  -0.95700  -0.01640
  41   35974.7    278.0    -21.99966  -0.43826   0.11456  -2.18214
  42   36123.0    276.8    -12.31500  -0.25867  -0.11007  -0.60790
  43   36637.4    272.9     -3.56434   0.28645  -0.66905   1.27094
  44   37017.1    270.1    -32.94956   0.26841  -1.27921   1.52448
  45   37226.0    268.6     99.40198   0.27350   0.92093   1.15335
  46   37402.5    267.4    -117.56695   0.03432  -0.29518   1.30371
  47   37583.2    266.1      7.58811   0.20569  -0.52760   1.01695
  48   37756.8    264.9    -14.47805  -0.13591   0.03402  -0.75717
  49   38326.6    260.9    -117.15784  -0.24512   2.77583  -3.29813
  50   38696.2    258.4     -8.46804  -0.23245   0.91003  -1.66721
  51   38984.0    256.5    -30.89187   0.00914   1.17194  -1.75037
  52   39139.0    255.5    -15.51869   0.17575  -0.51103   1.24462
  53   39244.1    254.8     -2.06519   0.01489  -0.35589   0.57510
  54   39807.9    251.2    -12.07572  -0.01023   0.23824  -1.04409
  55   39973.7    250.2     12.73350  -0.23300   0.12927  -1.48493
  56   40202.1    248.7      4.72162  -0.48501   0.64982  -0.51727

sTD-DFT done

Total run time:        4.458 sec

           *** ORCA-CIS/TD-DFT FINISHED WITHOUT ERROR ***

-------------------------   --------------------
FINAL SINGLE POINT ENERGY     -6148.266383061433
-------------------------   --------------------


                            ***************************************
                            *     ORCA property calculations      *
                            ***************************************

                                    ---------------------
                                    Active property flags
                                    ---------------------
   (+) Dipole Moment


------------------------------------------------------------------------------
                       ORCA ELECTRIC PROPERTIES CALCULATION
------------------------------------------------------------------------------

Dipole Moment Calculation                       ... on
Quadrupole Moment Calculation                   ... off
Polarizability Calculation                      ... off
GBWName                                         ... Y15.gbw
Electron density file                           ... Y15.scfp
The origin for moment calculation is the CENTER OF MASS  = (19.019427, -0.395932 -3.030733)

-------------
DIPOLE MOMENT
-------------
                                X             Y             Z
Electronic contribution:    -58.84493      13.94686      -3.16745
Nuclear contribution   :     59.53947      -9.36795       3.86053
                        -----------------------------------------
Total Dipole Moment    :      0.69454       4.57892       0.69308
                        -----------------------------------------
Magnitude (a.u.)       :      4.68287
Magnitude (Debye)      :     11.90290



--------------------
Rotational spectrum 
--------------------
 
Rotational constants in cm-1:     0.001601     0.000363     0.000315 
Rotational constants in MHz :    47.996926    10.894608     9.453128 

 Dipole components along the rotational axes: 
x,y,z [a.u.] :     1.864191     4.289059    -0.240818 
x,y,z [Debye]:     4.738396    10.901921    -0.612110 

 

Timings for individual modules:

Sum of individual times         ...     4883.882 sec (=  81.398 min)
GTO integral calculation        ...        3.256 sec (=   0.054 min)   0.1 %
SCF iterations                  ...     4876.110 sec (=  81.269 min)  99.8 %
CIS module                      ...        4.516 sec (=   0.075 min)   0.1 %
                             ****ORCA TERMINATED NORMALLY****
TOTAL RUN TIME: 0 days 1 hours 21 minutes 24 seconds 410 msec
