
                                 *****************
                                 * O   R   C   A *
                                 *****************

           --- An Ab Initio, DFT and Semiempirical electronic structure package ---

                  #######################################################
                  #                        -***-                        #
                  #          Department of theory and spectroscopy      #
                  #               Directorship: Frank Neese             #
                  #        Max Planck Institute fuer Kohlenforschung    #
                  #                Kaiser Wilhelm Platz 1               #
                  #                 D-45470 Muelheim/Ruhr               #
                  #                      Germany                        #
                  #                                                     #
                  #                  All rights reserved                #
                  #                        -***-                        #
                  #######################################################


                         Program Version 4.2.0 -  RELEASE  -


 With contributions from (in alphabetic order):
   Daniel Aravena         : Magnetic Suceptibility
   Michael Atanasov       : Ab Initio Ligand Field Theory (pilot matlab implementation)
   Alexander A. Auer      : GIAO ZORA, VPT2
   Ute Becker             : Parallelization
   Giovanni Bistoni       : ED, misc. LED, open-shell LED, HFLED
   Martin Brehm           : Molecular dynamics
   Dmytro Bykov           : SCF Hessian
   Vijay G. Chilkuri      : MRCI spin determinant printing, contributions to CSF-ICE
   Dipayan Datta          : RHF DLPNO-CCSD density
   Achintya Kumar Dutta   : EOM-CC, STEOM-CC
   Dmitry Ganyushin       : Spin-Orbit,Spin-Spin,Magnetic field MRCI
   Miquel Garcia          : C-PCM Hessian, Gaussian charge scheme
   Yang Guo               : DLPNO-NEVPT2, CIM, IAO-localization
   Andreas Hansen         : Spin unrestricted coupled pair/coupled cluster methods
   Benjamin Helmich-Paris : CASSCF linear response (MC-RPA)
   Lee Huntington         : MR-EOM, pCC
   Robert Izsak           : Overlap fitted RIJCOSX, COSX-SCS-MP3, EOM
   Christian Kollmar      : KDIIS, OOCD, Brueckner-CCSD(T), CCSD density
   Simone Kossmann        : Meta GGA functionals, TD-DFT gradient, OOMP2, MP2 Hessian
   Martin Krupicka        : AUTO-CI
   Lucas Lang             : DCDCAS
   Dagmar Lenk            : GEPOL surface, SMD
   Dimitrios Liakos       : Extrapolation schemes; Compound Job, initial MDCI parallelization
   Dimitrios Manganas     : Further ROCIS development; embedding schemes
   Dimitrios Pantazis     : SARC Basis sets
   Taras Petrenko         : DFT Hessian,TD-DFT gradient, ASA, ECA, R-Raman, ABS, FL, XAS/XES, NRVS
   Peter Pinski           : DLPNO-MP2, DLPNO-MP2 Gradient
   Christoph Reimann      : Effective Core Potentials
   Marius Retegan         : Local ZFS, SOC
   Christoph Riplinger    : Optimizer, TS searches, QM/MM, DLPNO-CCSD(T), (RO)-DLPNO pert. Triples
   Tobias Risthaus        : Range-separated hybrids, TD-DFT gradient, RPA, STAB
   Michael Roemelt        : Original ROCIS implementation
   Masaaki Saitow         : Open-shell DLPNO-CCSD energy and density
   Barbara Sandhoefer     : DKH picture change effects
   Avijit Sen             : IP-ROCIS
   Kantharuban Sivalingam : CASSCF convergence, NEVPT2, FIC-MRCI
   Bernardo de Souza      : ESD, SOC TD-DFT
   Georgi Stoychev        : AutoAux, RI-MP2 NMR
   Willem Van den Heuvel  : Paramagnetic NMR
   Boris Wezisla          : Elementary symmetry handling
   Frank Wennmohs         : Technical directorship


 We gratefully acknowledge several colleagues who have allowed us to
 interface, adapt or use parts of their codes:
   Stefan Grimme, W. Hujo, H. Kruse,             : VdW corrections, initial TS optimization,
                  C. Bannwarth                     DFT functionals, gCP, sTDA/sTD-DF
   Ed Valeev, F. Pavosevic, A. Kumar             : LibInt (2-el integral package), F12 methods
   Garnet Chan, S. Sharma, J. Yang, R. Olivares  : DMRG
   Ulf Ekstrom                                   : XCFun DFT Library
   Mihaly Kallay                                 : mrcc  (arbitrary order and MRCC methods)
   Andreas Klamt, Michael Diedenhofen            : otool_cosmo (COSMO solvation model)
   Jiri Pittner, Ondrej Demel                    : Mk-CCSD
   Frank Weinhold                                : gennbo (NPA and NBO analysis)
   Christopher J. Cramer and Donald G. Truhlar   : smd solvation model
   Lars Goerigk                                  : TD-DFT with DH, B97 family of functionals
   V. Asgeirsson, H. Jonsson                     : NEB implementation
   FAccTs GmbH                                   : IRC, NEB, NEB-TS, Multilevel, MM, QM/MM, CI optimization
   S Lehtola, MJT Oliveira, MAL Marques          : LibXC Library


 Your calculation uses the libint2 library for the computation of 2-el integrals
 For citations please refer to: http://libint.valeyev.net

 Your ORCA version has been built with support for libXC version: 4.2.3
 For citations please refer to: https://tddft.org/programs/libxc/

 This ORCA versions uses:
   CBLAS   interface :  Fast vector & matrix operations
   LAPACKE interface :  Fast linear algebra routines
   SCALAPACK package :  Parallel linear algebra routines


XCFun DFT library Copyright 2009-2010 Ulf Ekstrom and contributors.
See http://admol.org/xcfun for more information. This is free soft-
ware; see the source code for copying conditions. There is ABSOLUTELY
NO WARRANTY; not even for MERCHANTABILITY or FITNESS FOR A PARTICULAR
PURPOSE. For details see the documentation. Scientific users of this 
library should cite U. Ekstrom, L. Visscher, R. Bast, A. J. Thorvald-
sen and K. Ruud; J.Chem.Theor.Comp. 2010, DOI: 10.1021/ct100117s
XCFun Version 0.99 
----- Orbital basis set information -----
Your calculation utilizes the basis: def2-SVP
   F. Weigend and R. Ahlrichs, Phys. Chem. Chem. Phys. 7, 3297 (2005).

----- AuxJ basis set information -----
Your calculation utilizes the auxiliary basis: def2/J
   F. Weigend, Phys. Chem. Chem. Phys. 8, 1057 (2006).

================================================================================
                                        WARNINGS
                       Please study these warnings very carefully!
================================================================================

INFO   : Checking CIS options ...

WARNING: CIS/ROCIS methods need fully converged wavefunctions
  ===> : Setting SCFConvForced true
         You can overwrite this default with %scf ConvForced false 


INFO   : the flag for use of LIBINT has been found!

================================================================================
                                       INPUT FILE
================================================================================
NAME = Y2.inp
|  1> # ORCA input file
|  2> # Y2.out
|  3> ! CAM-B3LYP def2-SVP def2/J RIJCOSX Grid4 TightSCF
|  4> %maxcore 5000
|  5> %tddft
|  6>     Mode sTDDFT
|  7>     Ethresh 5.0
|  8>     maxcore 5000
|  9> end
| 10> * xyz 0 1
| 11>    C        4.48978         1.94151        -0.72963
| 12>    O        5.42205         2.62976        -1.07605
| 13>    C        3.06089         2.28321        -0.67749
| 14>    C        2.27182         3.34007        -0.99445
| 15>    S        0.61747         2.99500        -0.64613
| 16>    C        0.99212         1.41719        -0.05621
| 17>    C        2.32774         1.17535        -0.13773
| 18>    C        3.25754         0.11769         0.21433
| 19>    C        2.96746        -0.90630         1.08128
| 20>    C        1.65805        -1.11452         1.55719
| 21>    N        0.59053        -1.30372         1.93416
| 22>    C        3.92564        -1.76931         1.64160
| 23>    N        4.68217        -2.46816         2.14916
| 24>    C        4.55050         0.51233        -0.30160
| 25>    C        5.70758        -0.18270        -0.50877
| 26>    C        5.90786        -1.57483        -0.57834
| 27>    S        7.54361        -2.19985        -0.41220
| 28>    C        6.99016        -3.81111        -0.65983
| 29>    C        5.60365        -3.83893        -0.90029
| 30>    C        5.00220        -2.58958        -0.84450
| 31>    S        4.97882        -5.44590        -1.17726
| 32>    C        6.57533        -6.07516        -0.94480
| 33>    C        7.54027        -5.09438        -0.68535
| 34>    N        8.75788        -5.68086        -0.47960
| 35>    C        9.85090        -4.85763        -0.01737
| 36>    C       10.50215        -4.08025        -1.16170
| 37>    C        8.60574        -7.05272        -0.61170
| 38>    C        7.22603        -7.31034        -0.88640
| 39>    C        6.72608        -8.62435        -0.98067
| 40>    N        5.50803        -9.11465        -1.21624
| 41>    N        5.66792       -10.41210        -1.13494
| 42>    C        4.56892       -11.31838        -1.30395
| 43>    C        3.62931       -11.25160        -0.10455
| 44>    N        6.87694       -10.83803        -0.86644
| 45>    C        7.59723        -9.71960        -0.75974
| 46>    C        8.96875        -9.48139        -0.53981
| 47>    C        9.50337        -8.15305        -0.51997
| 48>    N       10.87955        -8.25699        -0.40571
| 49>    C       11.94877        -7.29353        -0.53033
| 50>    C       12.59477        -6.97590         0.81864
| 51>    C       11.20320        -9.58310        -0.32042
| 52>    C       10.04180       -10.36283        -0.39144
| 53>    S       10.33785       -12.06859        -0.31718
| 54>    C       12.05341       -11.73221        -0.20803
| 55>    C       12.36263       -10.35541        -0.22676
| 56>    S       14.06133       -10.07172        -0.13746
| 57>    C       14.36180       -11.80450        -0.06438
| 58>    C       13.17108       -12.53574        -0.11286
| 59>    C       15.61191       -12.42655         0.02896
| 60>    C       16.87705       -11.89252         0.07214
| 61>    C       18.10217       -12.66637         0.16299
| 62>    C       18.25960       -14.02602         0.25232
| 63>    C       19.54223       -14.60579         0.33538
| 64>    N       20.57948       -15.09277         0.40179
| 65>    C       17.22976       -14.98506         0.27728
| 66>    N       16.44091       -15.82030         0.30291
| 67>    C       19.20069       -11.71835         0.14935
| 68>    C       20.56028       -11.73828         0.19244
| 69>    S       21.20100       -10.13704         0.12997
| 70>    C       19.62925        -9.43048         0.04427
| 71>    C       18.67078       -10.39032         0.06417
| 72>    C       17.20642       -10.45924         0.01957
| 73>    O       16.42847        -9.52280        -0.04726
| 74>    H        2.54814         4.29094        -1.40371
| 75>    H        0.20295         0.78362         0.29614
| 76>    H        6.57591         0.43497        -0.71893
| 77>    H        3.95883        -2.41648        -1.03533
| 78>    H       10.56996        -5.47272         0.51450
| 79>    H        9.43692        -4.13952         0.69900
| 80>    H       11.38266        -3.55846        -0.79778
| 81>    H        9.80722        -3.34502        -1.55851
| 82>    H       10.79385        -4.73845        -1.97769
| 83>    H        4.99731       -12.31585        -1.41368
| 84>    H        4.03363       -11.03893        -2.21508
| 85>    H        4.15168       -11.54494         0.80278
| 86>    H        2.78790       -11.92134        -0.25653
| 87>    H        3.25686       -10.23745         0.01573
| 88>    H       11.57624        -6.40060        -1.02344
| 89>    H       12.71158        -7.73693        -1.17949
| 90>    H       11.85188        -6.70526         1.56642
| 91>    H       13.29809        -6.15605         0.70467
| 92>    H       13.13908        -7.84186         1.18465
| 93>    H       13.15345       -13.61009        -0.08042
| 94>    H       15.54313       -13.50735         0.06785
| 95>    H       21.23168       -12.57087         0.25564
| 96>    H       19.51990        -8.36621        -0.01419
| 97> *
| 98> 
| 99>                          ****END OF INPUT****
================================================================================

                       ****************************
                       * Single Point Calculation *
                       ****************************

---------------------------------
CARTESIAN COORDINATES (ANGSTROEM)
---------------------------------
  C      4.489780    1.941510   -0.729630
  O      5.422050    2.629760   -1.076050
  C      3.060890    2.283210   -0.677490
  C      2.271820    3.340070   -0.994450
  S      0.617470    2.995000   -0.646130
  C      0.992120    1.417190   -0.056210
  C      2.327740    1.175350   -0.137730
  C      3.257540    0.117690    0.214330
  C      2.967460   -0.906300    1.081280
  C      1.658050   -1.114520    1.557190
  N      0.590530   -1.303720    1.934160
  C      3.925640   -1.769310    1.641600
  N      4.682170   -2.468160    2.149160
  C      4.550500    0.512330   -0.301600
  C      5.707580   -0.182700   -0.508770
  C      5.907860   -1.574830   -0.578340
  S      7.543610   -2.199850   -0.412200
  C      6.990160   -3.811110   -0.659830
  C      5.603650   -3.838930   -0.900290
  C      5.002200   -2.589580   -0.844500
  S      4.978820   -5.445900   -1.177260
  C      6.575330   -6.075160   -0.944800
  C      7.540270   -5.094380   -0.685350
  N      8.757880   -5.680860   -0.479600
  C      9.850900   -4.857630   -0.017370
  C     10.502150   -4.080250   -1.161700
  C      8.605740   -7.052720   -0.611700
  C      7.226030   -7.310340   -0.886400
  C      6.726080   -8.624350   -0.980670
  N      5.508030   -9.114650   -1.216240
  N      5.667920  -10.412100   -1.134940
  C      4.568920  -11.318380   -1.303950
  C      3.629310  -11.251600   -0.104550
  N      6.876940  -10.838030   -0.866440
  C      7.597230   -9.719600   -0.759740
  C      8.968750   -9.481390   -0.539810
  C      9.503370   -8.153050   -0.519970
  N     10.879550   -8.256990   -0.405710
  C     11.948770   -7.293530   -0.530330
  C     12.594770   -6.975900    0.818640
  C     11.203200   -9.583100   -0.320420
  C     10.041800  -10.362830   -0.391440
  S     10.337850  -12.068590   -0.317180
  C     12.053410  -11.732210   -0.208030
  C     12.362630  -10.355410   -0.226760
  S     14.061330  -10.071720   -0.137460
  C     14.361800  -11.804500   -0.064380
  C     13.171080  -12.535740   -0.112860
  C     15.611910  -12.426550    0.028960
  C     16.877050  -11.892520    0.072140
  C     18.102170  -12.666370    0.162990
  C     18.259600  -14.026020    0.252320
  C     19.542230  -14.605790    0.335380
  N     20.579480  -15.092770    0.401790
  C     17.229760  -14.985060    0.277280
  N     16.440910  -15.820300    0.302910
  C     19.200690  -11.718350    0.149350
  C     20.560280  -11.738280    0.192440
  S     21.201000  -10.137040    0.129970
  C     19.629250   -9.430480    0.044270
  C     18.670780  -10.390320    0.064170
  C     17.206420  -10.459240    0.019570
  O     16.428470   -9.522800   -0.047260
  H      2.548140    4.290940   -1.403710
  H      0.202950    0.783620    0.296140
  H      6.575910    0.434970   -0.718930
  H      3.958830   -2.416480   -1.035330
  H     10.569960   -5.472720    0.514500
  H      9.436920   -4.139520    0.699000
  H     11.382660   -3.558460   -0.797780
  H      9.807220   -3.345020   -1.558510
  H     10.793850   -4.738450   -1.977690
  H      4.997310  -12.315850   -1.413680
  H      4.033630  -11.038930   -2.215080
  H      4.151680  -11.544940    0.802780
  H      2.787900  -11.921340   -0.256530
  H      3.256860  -10.237450    0.015730
  H     11.576240   -6.400600   -1.023440
  H     12.711580   -7.736930   -1.179490
  H     11.851880   -6.705260    1.566420
  H     13.298090   -6.156050    0.704670
  H     13.139080   -7.841860    1.184650
  H     13.153450  -13.610090   -0.080420
  H     15.543130  -13.507350    0.067850
  H     21.231680  -12.570870    0.255640
  H     19.519900   -8.366210   -0.014190

----------------------------
CARTESIAN COORDINATES (A.U.)
----------------------------
  NO LB      ZA    FRAG     MASS         X           Y           Z
   0 C     6.0000    0    12.011    8.484455    3.668922   -1.378801
   1 O     8.0000    0    15.999   10.246190    4.969526   -2.033440
   2 C     6.0000    0    12.011    5.784244    4.314642   -1.280271
   3 C     6.0000    0    12.011    4.293118    6.311818   -1.879238
   4 S    16.0000    0    32.060    1.166849    5.659730   -1.221009
   5 C     6.0000    0    12.011    1.874835    2.678101   -0.106222
   6 C     6.0000    0    12.011    4.398791    2.221090   -0.260272
   7 C     6.0000    0    12.011    6.155858    0.222402    0.405025
   8 C     6.0000    0    12.011    5.607687   -1.712659    2.043323
   9 C     6.0000    0    12.011    3.133260   -2.106138    2.942663
  10 N     7.0000    0    14.007    1.115940   -2.463674    3.655033
  11 C     6.0000    0    12.011    7.418385   -3.343511    3.102174
  12 N     7.0000    0    14.007    8.848019   -4.664146    4.061324
  13 C     6.0000    0    12.011    8.599199    0.968163   -0.569941
  14 C     6.0000    0    12.011   10.785763   -0.345253   -0.961436
  15 C     6.0000    0    12.011   11.164237   -2.975997   -1.092904
  16 S    16.0000    0    32.060   14.255357   -4.157114   -0.778945
  17 C     6.0000    0    12.011   13.209488   -7.201954   -1.246898
  18 C     6.0000    0    12.011   10.589364   -7.254526   -1.701302
  19 C     6.0000    0    12.011    9.452788   -4.893597   -1.595874
  20 S    16.0000    0    32.060    9.408606  -10.291260   -2.224699
  21 C     6.0000    0    12.011   12.425573  -11.480389   -1.785413
  22 C     6.0000    0    12.011   14.249045   -9.626983   -1.295124
  23 N     7.0000    0    14.007   16.549995  -10.735270   -0.906313
  24 C     6.0000    0    12.011   18.615503   -9.179590   -0.032825
  25 C     6.0000    0    12.011   19.846187   -7.710555   -2.195295
  26 C     6.0000    0    12.011   16.262492  -13.327709   -1.155945
  27 C     6.0000    0    12.011   13.655218  -13.814541   -1.675053
  28 C     6.0000    0    12.011   12.710449  -16.297660   -1.853198
  29 N     7.0000    0    14.007   10.408668  -17.224192   -2.298361
  30 N     7.0000    0    14.007   10.710817  -19.676017   -2.144726
  31 C     6.0000    0    12.011    8.634008  -21.388638   -2.464108
  32 C     6.0000    0    12.011    6.858402  -21.262443   -0.197571
  33 N     7.0000    0    14.007   12.995533  -20.480909   -1.637334
  34 C     6.0000    0    12.011   14.356684  -18.367382   -1.435701
  35 C     6.0000    0    12.011   16.948481  -17.917230   -1.020093
  36 C     6.0000    0    12.011   17.958767  -15.407032   -0.982601
  37 N     7.0000    0    14.007   20.559370  -15.603450   -0.766681
  38 C     6.0000    0    12.011   22.579903  -13.782774   -1.002178
  39 C     6.0000    0    12.011   23.800666  -13.182541    1.547005
  40 C     6.0000    0    12.011   21.170980  -18.109435   -0.605506
  41 C     6.0000    0    12.011   18.976252  -19.582911   -0.739714
  42 S    16.0000    0    32.060   19.535705  -22.806330   -0.599383
  43 C     6.0000    0    12.011   22.777644  -22.170664   -0.393120
  44 C     6.0000    0    12.011   23.361985  -19.568889   -0.428514
  45 S    16.0000    0    32.060   26.572063  -19.032792   -0.259762
  46 C     6.0000    0    12.011   27.139869  -22.307272   -0.121661
  47 C     6.0000    0    12.011   24.889734  -23.689115   -0.213274
  48 C     6.0000    0    12.011   29.502234  -23.482776    0.054726
  49 C     6.0000    0    12.011   31.893002  -22.473606    0.136325
  50 C     6.0000    0    12.011   34.208144  -23.935970    0.308006
  51 C     6.0000    0    12.011   34.505643  -26.505337    0.476816
  52 C     6.0000    0    12.011   36.929463  -27.600943    0.633776
  53 N     7.0000    0    14.007   38.889581  -28.521202    0.759273
  54 C     6.0000    0    12.011   32.559528  -28.317660    0.523983
  55 N     7.0000    0    14.007   31.068817  -29.896034    0.572417
  56 C     6.0000    0    12.011   36.284046  -22.144472    0.282231
  57 C     6.0000    0    12.011   38.853298  -22.182134    0.363659
  58 S    16.0000    0    32.060   40.064084  -19.156229    0.245608
  59 C     6.0000    0    12.011   37.093907  -17.821025    0.083658
  60 C     6.0000    0    12.011   35.282661  -19.634859    0.121264
  61 C     6.0000    0    12.011   32.515422  -19.765099    0.036982
  62 O     8.0000    0    15.999   31.045309  -17.995484   -0.089308
  63 H     1.0000    0     1.008    4.815287    8.108701   -2.652627
  64 H     1.0000    0     1.008    0.383520    1.480827    0.559623
  65 H     1.0000    0     1.008   12.426669    0.821974   -1.358581
  66 H     1.0000    0     1.008    7.481105   -4.566485   -1.956490
  67 H     1.0000    0     1.008   19.974330  -10.341942    0.972264
  68 H     1.0000    0     1.008   17.833194   -7.822559    1.320919
  69 H     1.0000    0     1.008   21.510110   -6.724515   -1.507586
  70 H     1.0000    0     1.008   18.532960   -6.321172   -2.945157
  71 H     1.0000    0     1.008   20.397420   -8.954373   -3.737292
  72 H     1.0000    0     1.008    9.443547  -23.273584   -2.671468
  73 H     1.0000    0     1.008    7.622456  -20.860555   -4.185895
  74 H     1.0000    0     1.008    7.845538  -21.816775    1.517034
  75 H     1.0000    0     1.008    5.268367  -22.528068   -0.484771
  76 H     1.0000    0     1.008    6.154573  -19.345977    0.029725
  77 H     1.0000    0     1.008   21.875923  -12.095381   -1.934021
  78 H     1.0000    0     1.008   24.021405  -14.620679   -2.228913
  79 H     1.0000    0     1.008   22.396807  -12.671105    2.960105
  80 H     1.0000    0     1.008   25.129748  -11.633249    1.331633
  81 H     1.0000    0     1.008   24.829263  -14.818968    2.238664
  82 H     1.0000    0     1.008   24.856418  -25.719343   -0.151972
  83 H     1.0000    0     1.008   29.372259  -25.525192    0.128218
  84 H     1.0000    0     1.008   40.122061  -23.755502    0.483090
  85 H     1.0000    0     1.008   36.887265  -15.809846   -0.026815

--------------------------------
INTERNAL COORDINATES (ANGSTROEM)
--------------------------------
 C      0   0   0     0.000000000000     0.00000000     0.00000000
 O      1   0   0     1.209471881360     0.00000000     0.00000000
 C      1   2   0     1.470103432314   128.83583536     0.00000000
 C      3   1   2     1.356483750769   137.57829357     2.83254578
 S      4   3   1     1.725477919244   110.77765283   179.76973794
 C      5   4   3     1.725645567607    92.50489449     0.42507014
 C      6   5   4     1.359784130074   110.81611418   359.56423077
 C      7   6   5     1.451591870741   138.09059114   177.39601440
 C      8   7   6     1.372699613535   124.14884630   343.67864429
 C      9   8   7     1.408687490042   121.33615557     9.23958133
 N     10   9   8     1.147824887036   178.88496834   114.74234946
 C      9   8   7     1.406006285512   124.44081501   193.75825579
 N     12   9   8     1.148192543522   177.17387282   135.72863360
 C      8   7   6     1.446951988181   106.68842569   174.48062302
 C     14   8   7     1.365584210585   132.25406515   195.35488797
 C     15  14   8     1.408182516650   129.13611834    16.89529893
 S     16  15  14     1.758957237257   118.61241426   196.69196958
 C     17  16  15     1.721565074866    91.14711712   182.20274281
 C     18  17  16     1.407481773985   111.08571431     1.76520137
 C     16  15  14     1.385921622495   129.82053868    21.02017834
 S     19  18  17     1.746275319272   113.43833324   179.38574781
 C     21  19  18     1.731718793367    89.03879400     0.82757106
 C     18  17  16     1.396443402147   137.39701308   181.86849005
 N     23  18  17     1.367064725973   137.93259388     3.06952019
 C     24  23  18     1.444318845062   118.53397643     5.28194446
 C     25  24  23     1.529031515633   111.87591449   279.13076564
 C     24  23  18     1.386577386661   108.20311943   177.39543966
 C     22  21  19     1.397315527145   139.12503001   176.20329658
 C     28  22  21     1.409063204934   131.01918744   358.15755474
 N     29  28  22     1.333991423286   132.72938960     3.77456568
 N     30  29  28     1.309790443010   103.98432049   182.09875406
 C     31  30  29     1.434471616485   121.66800411   178.78895140
 C     32  31  30     1.525085860042   110.59099450   288.62143940
 N     31  30  29     1.309670941611   116.58799732     0.04388051
 C     34  31  30     1.334574178905   104.00936381   359.88593026
 C     35  34  31     1.409319097792   132.79414224   183.07220839
 C     27  24  23     1.422982824457   133.60577921   179.41455628
 N     37  27  24     1.384821383284   133.64825506   351.86807890
 C     38  37  27     1.444651073581   132.71336365   349.39671703
 C     39  38  37     1.529027428727   112.03241645   109.07548551
 C     38  37  27     1.367695667428   108.24506497   178.38516136
 C     36  35  34     1.396562362732   131.12030160     1.78294883
 S     42  36  35     1.732852367543   139.20956348   356.70949397
 C     43  42  36     1.751631051477    88.90913426   177.13162622
 C     41  38  37     1.396249568165   137.47638752   177.98413138
 S     45  41  38     1.724539415641   136.92237624     1.33216199
 C     46  45  41     1.760156082767    90.47872726   180.10040000
 C     44  43  42     1.379820284928   133.29828093   180.45942428
 C     47  46  45     1.399440448965   126.35921400   180.04711719
 C     49  47  46     1.373911122635   130.68456187   359.22834450
 C     50  49  47     1.451901015703   124.87567318   180.37731599
 C     51  50  49     1.371645791121   128.99495407   358.40192216
 C     52  51  50     1.410025508067   121.05241678   180.10140104
 N     53  52  51     1.147801102543   179.17331905   186.47755208
 C     52  51  50     1.407462663377   126.34256108   359.89176849
 N     55  52  51     1.149159291395   176.31653707   180.22329328
 C     51  50  49     1.451094125272   106.85708340   178.65189973
 C     57  51  50     1.360418656554   138.30523276   180.57758532
 S     58  57  51     1.725802467521   110.87277053   179.93516524
 C     59  58  57     1.725389691084    92.49594572   359.97487617
 C     60  59  58     1.356596320392   110.67963672     0.00000000
 C     61  60  59     1.466659243315   137.57999020   180.14385168
 O     62  61  60     1.219258924511   127.05827175   359.46599506
 H      4   3   1     1.071447734096   129.09972406   359.62952960
 H      6   5   4     1.071611289741   119.54446325   180.18173947
 H     15  14   8     1.086130951313   114.66535655   192.02787104
 H     20  16  15     1.074709568116   123.40717643   359.42794213
 H     25  24  23     1.085480855934   109.58131326   154.44730124
 H     25  24  23     1.095558026487   107.27202379    37.98871958
 H     26  25  24     1.086278247320   109.79958500   186.08530887
 H     26  25  24     1.086714789584   110.17453006    66.76219138
 H     26  25  24     1.088189234508   111.58320415   306.96796672
 H     32  31  30     1.091102683481   106.77522903   167.55394451
 H     32  31  30     1.093062470081   108.17242114    49.18934406
 H     33  32  31     1.087274804914   110.39411984   298.48746030
 H     33  32  31     1.086103299001   109.89198969   178.45168696
 H     33  32  31     1.087054048058   109.81357651    58.57599118
 H     39  38  37     1.085937409753   109.49073120   344.18107091
 H     39  38  37     1.095395527515   107.25172122   227.68983771
 H     40  39  38     1.088258466588   111.68292086   308.58793725
 H     40  39  38     1.086187003144   109.74252971   187.53077565
 H     40  39  38     1.086334855282   110.08071155    68.53088733
 H     48  44  43     1.074984229187   124.80584966   359.45824592
 H     49  47  46     1.083684345416   112.89312956   179.52136671
 H     58  57  51     1.071437496124   129.75495779   359.96037800
 H     60  59  58     1.071468910888   120.16120085   180.00995472

---------------------------
INTERNAL COORDINATES (A.U.)
---------------------------
 C      0   0   0     0.000000000000     0.00000000     0.00000000
 O      1   0   0     2.285570622449     0.00000000     0.00000000
 C      1   2   0     2.778092875610   128.83583536     0.00000000
 C      3   1   2     2.563382794067   137.57829357     2.83254578
 S      4   3   1     3.260680717500   110.77765283   179.76973794
 C      5   4   3     3.260997526991    92.50489449     0.42507014
 C      6   5   4     2.569619607091   110.81611418   359.56423077
 C      7   6   5     2.743111093926   138.09059114   177.39601440
 C      8   7   6     2.594026333721   124.14884630   343.67864429
 C      9   8   7     2.662033564460   121.33615557     9.23958133
 N     10   9   8     2.169074686198   178.88496834   114.74234946
 C      9   8   7     2.656966822190   124.44081501   193.75825579
 N     12   9   8     2.169769456267   177.17387282   135.72863360
 C      8   7   6     2.734342986594   106.68842569   174.48062302
 C     14   8   7     2.580580170813   132.25406515   195.35488797
 C     15  14   8     2.661079303045   129.13611834    16.89529893
 S     16  15  14     3.323947459695   118.61241426   196.69196958
 C     17  16  15     3.253286513221    91.14711712   182.20274281
 C     18  17  16     2.659755091317   111.08571431     1.76520137
 C     16  15  14     2.619012309596   129.82053868    21.02017834
 S     19  18  17     3.299982107851   113.43833324   179.38574781
 C     21  19  18     3.272474260428    89.03879400     0.82757106
 C     18  17  16     2.638895591579   137.39701308   181.86849005
 N     23  18  17     2.583377939433   137.93259388     3.06952019
 C     24  23  18     2.729367067228   118.53397643     5.28194446
 C     25  24  23     2.889450814682   111.87591449   279.13076564
 C     24  23  18     2.620251524278   108.20311943   177.39543966
 C     22  21  19     2.640543668980   139.12503001   176.20329658
 C     28  22  21     2.662743562711   131.01918744   358.15755474
 N     29  28  22     2.520878455010   132.72938960     3.77456568
 N     30  29  28     2.475145230116   103.98432049   182.09875406
 C     31  30  29     2.710758502039   121.66800411   178.78895140
 C     32  31  30     2.881994606195   110.59099450   288.62143940
 N     31  30  29     2.474919405199   116.58799732     0.04388051
 C     34  31  30     2.521979703533   104.00936381   359.88593026
 C     35  34  31     2.663227130131   132.79414224   183.07220839
 C     27  24  23     2.689047831498   133.60577921   179.41455628
 N     37  27  24     2.616933158804   133.64825506   351.86807890
 C     38  37  27     2.729994888144   132.71336365   349.39671703
 C     39  38  37     2.889443091548   112.03241645   109.07548551
 C     38  37  27     2.584570245989   108.24506497   178.38516136
 C     36  35  34     2.639120394506   131.12030160     1.78294883
 S     42  36  35     3.274616405174   139.20956348   356.70949397
 C     43  42  36     3.310102974965    88.90913426   177.13162622
 C     41  38  37     2.638529298437   137.47638752   177.98413138
 S     45  41  38     3.258907202714   136.92237624     1.33216199
 C     46  45  41     3.326212949384    90.47872726   180.10040000
 C     44  43  42     2.607482452544   133.29828093   180.45942428
 C     47  46  45     2.644559189276   126.35921400   180.04711719
 C     49  47  46     2.596315754128   130.68456187   359.22834450
 C     50  49  47     2.743695293241   124.87567318   180.37731599
 C     51  50  49     2.592034897964   128.99495407   358.40192216
 C     52  51  50     2.664562052090   121.05241678   180.10140104
 N     53  52  51     2.169029740020   179.17331905   186.47755208
 C     52  51  50     2.659718977502   126.34256108   359.89176849
 N     55  52  51     2.171596344988   176.31653707   180.22329328
 C     51  50  49     2.742170491307   106.85708340   178.65189973
 C     57  51  50     2.570818688364   138.30523276   180.57758532
 S     58  57  51     3.261294024859   110.87277053   179.93516524
 C     59  58  57     3.260513990440    92.49594572   359.97487617
 C     60  59  58     2.563595519825   110.67963672     0.00000000
 C     61  60  59     2.771584301649   137.57999020   180.14385168
 O     62  61  60     2.304065453665   127.05827175   359.46599506
 H      4   3   1     2.024742784252   129.09972406   359.62952960
 H      6   5   4     2.025051859628   119.54446325   180.18173947
 H     15  14   8     2.052490043557   114.66535655   192.02787104
 H     20  16  15     2.030906757244   123.40717643   359.42794213
 H     25  24  23     2.051261541330   109.58131326   154.44730124
 H     25  24  23     2.070304633880   107.27202379    37.98871958
 H     26  25  24     2.052768392670   109.79958500   186.08530887
 H     26  25  24     2.053593337995   110.17453006    66.76219138
 H     26  25  24     2.056379635102   111.58320415   306.96796672
 H     32  31  30     2.061885255766   106.77522903   167.55394451
 H     32  31  30     2.065588715721   108.17242114    49.18934406
 H     33  32  31     2.054651613599   110.39411984   298.48746030
 H     33  32  31     2.052437788260   109.89198969   178.45168696
 H     33  32  31     2.054234443601   109.81357651    58.57599118
 H     39  38  37     2.052124303012   109.49073120   344.18107091
 H     39  38  37     2.069997555326   107.25172122   227.68983771
 H     40  39  38     2.056510464772   111.68292086   308.58793725
 H     40  39  38     2.052595966168   109.74252971   187.53077565
 H     40  39  38     2.052875366215   110.08071155    68.53088733
 H     48  44  43     2.031425791447   124.80584966   359.45824592
 H     49  47  46     2.047866628454   112.89312956   179.52136671
 H     58  57  51     2.024723437288   129.75495779   359.96037800
 H     60  59  58     2.024782802590   120.16120085   180.00995472

---------------------
BASIS SET INFORMATION
---------------------
There are 5 groups of distinct atoms

 Group   1 Type C   : 7s4p1d contracted to 3s2p1d pattern {511/31/1}
 Group   2 Type O   : 7s4p1d contracted to 3s2p1d pattern {511/31/1}
 Group   3 Type S   : 10s7p1d contracted to 4s3p1d pattern {5311/511/1}
 Group   4 Type N   : 7s4p1d contracted to 3s2p1d pattern {511/31/1}
 Group   5 Type H   : 4s1p contracted to 2s1p pattern {31/1}

Atom   0C    basis set group =>   1
Atom   1O    basis set group =>   2
Atom   2C    basis set group =>   1
Atom   3C    basis set group =>   1
Atom   4S    basis set group =>   3
Atom   5C    basis set group =>   1
Atom   6C    basis set group =>   1
Atom   7C    basis set group =>   1
Atom   8C    basis set group =>   1
Atom   9C    basis set group =>   1
Atom  10N    basis set group =>   4
Atom  11C    basis set group =>   1
Atom  12N    basis set group =>   4
Atom  13C    basis set group =>   1
Atom  14C    basis set group =>   1
Atom  15C    basis set group =>   1
Atom  16S    basis set group =>   3
Atom  17C    basis set group =>   1
Atom  18C    basis set group =>   1
Atom  19C    basis set group =>   1
Atom  20S    basis set group =>   3
Atom  21C    basis set group =>   1
Atom  22C    basis set group =>   1
Atom  23N    basis set group =>   4
Atom  24C    basis set group =>   1
Atom  25C    basis set group =>   1
Atom  26C    basis set group =>   1
Atom  27C    basis set group =>   1
Atom  28C    basis set group =>   1
Atom  29N    basis set group =>   4
Atom  30N    basis set group =>   4
Atom  31C    basis set group =>   1
Atom  32C    basis set group =>   1
Atom  33N    basis set group =>   4
Atom  34C    basis set group =>   1
Atom  35C    basis set group =>   1
Atom  36C    basis set group =>   1
Atom  37N    basis set group =>   4
Atom  38C    basis set group =>   1
Atom  39C    basis set group =>   1
Atom  40C    basis set group =>   1
Atom  41C    basis set group =>   1
Atom  42S    basis set group =>   3
Atom  43C    basis set group =>   1
Atom  44C    basis set group =>   1
Atom  45S    basis set group =>   3
Atom  46C    basis set group =>   1
Atom  47C    basis set group =>   1
Atom  48C    basis set group =>   1
Atom  49C    basis set group =>   1
Atom  50C    basis set group =>   1
Atom  51C    basis set group =>   1
Atom  52C    basis set group =>   1
Atom  53N    basis set group =>   4
Atom  54C    basis set group =>   1
Atom  55N    basis set group =>   4
Atom  56C    basis set group =>   1
Atom  57C    basis set group =>   1
Atom  58S    basis set group =>   3
Atom  59C    basis set group =>   1
Atom  60C    basis set group =>   1
Atom  61C    basis set group =>   1
Atom  62O    basis set group =>   2
Atom  63H    basis set group =>   5
Atom  64H    basis set group =>   5
Atom  65H    basis set group =>   5
Atom  66H    basis set group =>   5
Atom  67H    basis set group =>   5
Atom  68H    basis set group =>   5
Atom  69H    basis set group =>   5
Atom  70H    basis set group =>   5
Atom  71H    basis set group =>   5
Atom  72H    basis set group =>   5
Atom  73H    basis set group =>   5
Atom  74H    basis set group =>   5
Atom  75H    basis set group =>   5
Atom  76H    basis set group =>   5
Atom  77H    basis set group =>   5
Atom  78H    basis set group =>   5
Atom  79H    basis set group =>   5
Atom  80H    basis set group =>   5
Atom  81H    basis set group =>   5
Atom  82H    basis set group =>   5
Atom  83H    basis set group =>   5
Atom  84H    basis set group =>   5
Atom  85H    basis set group =>   5
---------------------------------
AUXILIARY/J BASIS SET INFORMATION
---------------------------------
There are 5 groups of distinct atoms

 Group   1 Type C   : 12s5p4d2f1g contracted to 6s4p3d1f1g pattern {711111/2111/211/2/1}
 Group   2 Type O   : 12s5p4d2f1g contracted to 6s4p3d1f1g pattern {711111/2111/211/2/1}
 Group   3 Type S   : 14s5p5d2f1g contracted to 8s4p3d1f1g pattern {71111111/2111/311/2/1}
 Group   4 Type N   : 12s5p4d2f1g contracted to 6s4p3d1f1g pattern {711111/2111/211/2/1}
 Group   5 Type H   : 5s2p1d contracted to 3s1p1d pattern {311/2/1}

Atom   0C    basis set group =>   1
Atom   1O    basis set group =>   2
Atom   2C    basis set group =>   1
Atom   3C    basis set group =>   1
Atom   4S    basis set group =>   3
Atom   5C    basis set group =>   1
Atom   6C    basis set group =>   1
Atom   7C    basis set group =>   1
Atom   8C    basis set group =>   1
Atom   9C    basis set group =>   1
Atom  10N    basis set group =>   4
Atom  11C    basis set group =>   1
Atom  12N    basis set group =>   4
Atom  13C    basis set group =>   1
Atom  14C    basis set group =>   1
Atom  15C    basis set group =>   1
Atom  16S    basis set group =>   3
Atom  17C    basis set group =>   1
Atom  18C    basis set group =>   1
Atom  19C    basis set group =>   1
Atom  20S    basis set group =>   3
Atom  21C    basis set group =>   1
Atom  22C    basis set group =>   1
Atom  23N    basis set group =>   4
Atom  24C    basis set group =>   1
Atom  25C    basis set group =>   1
Atom  26C    basis set group =>   1
Atom  27C    basis set group =>   1
Atom  28C    basis set group =>   1
Atom  29N    basis set group =>   4
Atom  30N    basis set group =>   4
Atom  31C    basis set group =>   1
Atom  32C    basis set group =>   1
Atom  33N    basis set group =>   4
Atom  34C    basis set group =>   1
Atom  35C    basis set group =>   1
Atom  36C    basis set group =>   1
Atom  37N    basis set group =>   4
Atom  38C    basis set group =>   1
Atom  39C    basis set group =>   1
Atom  40C    basis set group =>   1
Atom  41C    basis set group =>   1
Atom  42S    basis set group =>   3
Atom  43C    basis set group =>   1
Atom  44C    basis set group =>   1
Atom  45S    basis set group =>   3
Atom  46C    basis set group =>   1
Atom  47C    basis set group =>   1
Atom  48C    basis set group =>   1
Atom  49C    basis set group =>   1
Atom  50C    basis set group =>   1
Atom  51C    basis set group =>   1
Atom  52C    basis set group =>   1
Atom  53N    basis set group =>   4
Atom  54C    basis set group =>   1
Atom  55N    basis set group =>   4
Atom  56C    basis set group =>   1
Atom  57C    basis set group =>   1
Atom  58S    basis set group =>   3
Atom  59C    basis set group =>   1
Atom  60C    basis set group =>   1
Atom  61C    basis set group =>   1
Atom  62O    basis set group =>   2
Atom  63H    basis set group =>   5
Atom  64H    basis set group =>   5
Atom  65H    basis set group =>   5
Atom  66H    basis set group =>   5
Atom  67H    basis set group =>   5
Atom  68H    basis set group =>   5
Atom  69H    basis set group =>   5
Atom  70H    basis set group =>   5
Atom  71H    basis set group =>   5
Atom  72H    basis set group =>   5
Atom  73H    basis set group =>   5
Atom  74H    basis set group =>   5
Atom  75H    basis set group =>   5
Atom  76H    basis set group =>   5
Atom  77H    basis set group =>   5
Atom  78H    basis set group =>   5
Atom  79H    basis set group =>   5
Atom  80H    basis set group =>   5
Atom  81H    basis set group =>   5
Atom  82H    basis set group =>   5
Atom  83H    basis set group =>   5
Atom  84H    basis set group =>   5
Atom  85H    basis set group =>   5
------------------------------------------------------------------------------
                           ORCA GTO INTEGRAL CALCULATION
                           -- RI-GTO INTEGRALS CHOSEN --
------------------------------------------------------------------------------

                         BASIS SET STATISTICS AND STARTUP INFO

Gaussian basis set:
 # of primitive gaussian shells          ...  907
 # of primitive gaussian functions       ... 1745
 # of contracted shells                  ...  459
 # of contracted basis functions         ... 1021
 Highest angular momentum                ...    2
 Maximum contraction depth               ...    5
Auxiliary gaussian basis set:
 # of primitive gaussian shells          ... 1714
 # of primitive gaussian functions       ... 4820
 # of contracted shells                  ... 1072
 # of contracted aux-basis functions     ... 3352
 Highest angular momentum                ...    4
 Maximum contraction depth               ...    7
Ratio of auxiliary to basis functions    ...  3.28
Integral package used                  ... LIBINT
 One Electron integrals                  ... done
 Ordering auxiliary basis shells         ... done
 Integral threshhold             Thresh  ...  2.500e-11
 Primitive cut-off               TCut    ...  2.500e-12
 Pre-screening matrix                    ... done
 Shell pair data                         ... 
 Ordering of the shell pairs             ... done (   0.008 sec) 38300 of 105570 pairs
 Determination of significant pairs      ... done (   0.000 sec)
 Creation of shell pair data             ... done (   0.006 sec)
 Storage of shell pair data              ... done (   0.008 sec)
 Shell pair data done in (   0.022 sec)
 Computing two index integrals           ... done
 Cholesky decomposition of the V-matrix  ... done


Timings:
 Total evaluation time                   ...   1.667 sec (  0.028 min)
 One electron matrix time                ...   0.424 sec (  0.007 min) = 25.4%
 Schwartz matrix evaluation time         ...   0.555 sec (  0.009 min) = 33.3%
 Two index repulsion integral time       ...   0.265 sec (  0.004 min) = 15.9%
 Cholesky decomposition of V             ...   0.383 sec (  0.006 min) = 23.0%
 Three index repulsion integral time     ...   0.000 sec (  0.000 min) =  0.0%

-------------------------------------------------------------------------------
                                 ORCA SCF
-------------------------------------------------------------------------------

------------
SCF SETTINGS
------------
Hamiltonian:
 Density Functional     Method          .... DFT(GTOs)
 Exchange Functional    Exchange        .... WB88
 Correlation Functional Correlation     .... LYP
 LDA part of GGA corr.  LDAOpt          .... VWN-5
 Gradients option       PostSCFGGA      .... off
 Hybrid DFT is turned on
   Fraction HF Exchange ScalHFX         ....  0.190000
   Scaling of DF-GGA-X  ScalDFX         ....  0.350000
   Scaling of DF-GGA-C  ScalDFC         ....  0.810000
   Scaling of DF-LDA-C  ScalLDAC        ....  1.000000
   Perturbative correction              ....  0.000000
   Density functional embedding theory  .... OFF
 Long-range corrected/Screened/Range-Separated Hybrid DFT is turned on
   Amount of maximum screened exact exchange              ....  0.460000
   Range separation parameter mu (erf(mu*r12)/r12)        ....  0.330000
 RI-approximation to the Coulomb term is turned on
   Number of auxiliary basis functions  .... 3352
   RIJ-COSX (HFX calculated with COS-X)).... on


General Settings:
 Integral files         IntName         .... Y2
 Hartree-Fock type      HFTyp           .... RHF
 Total Charge           Charge          ....    0
 Multiplicity           Mult            ....    1
 Number of Electrons    NEL             ....  474
 Basis Dimension        Dim             .... 1021
 Nuclear Repulsion      ENuc            ....   9260.5282471130 Eh

Convergence Acceleration:
 DIIS                   CNVDIIS         .... on
   Start iteration      DIISMaxIt       ....    12
   Startup error        DIISStart       ....  0.200000
   # of expansion vecs  DIISMaxEq       ....     5
   Bias factor          DIISBfac        ....   1.050
   Max. coefficient     DIISMaxC        ....  10.000
 Newton-Raphson         CNVNR           .... off
 SOSCF                  CNVSOSCF        .... on
   Start iteration      SOSCFMaxIt      ....   150
   Startup grad/error   SOSCFStart      ....  0.003300
 Level Shifting         CNVShift        .... on
   Level shift para.    LevelShift      ....    0.2500
   Turn off err/grad.   ShiftErr        ....    0.0010
 Zerner damping         CNVZerner       .... off
 Static damping         CNVDamp         .... on
   Fraction old density DampFac         ....    0.7000
   Max. Damping (<1)    DampMax         ....    0.9800
   Min. Damping (>=0)   DampMin         ....    0.0000
   Turn off err/grad.   DampErr         ....    0.1000
 Fernandez-Rico         CNVRico         .... off

SCF Procedure:
 Maximum # iterations   MaxIter         ....   125
 SCF integral mode      SCFMode         .... Direct
   Integral package                     .... LIBINT
 Reset frequency        DirectResetFreq ....    20
 Integral Threshold     Thresh          ....  2.500e-11 Eh
 Primitive CutOff       TCut            ....  2.500e-12 Eh

Convergence Tolerance:
 Convergence Check Mode ConvCheckMode   .... Total+1el-Energy
 Convergence forced     ConvForced      .... 1
 Energy Change          TolE            ....  1.000e-08 Eh
 1-El. energy change                    ....  1.000e-05 Eh
 Orbital Gradient       TolG            ....  1.000e-05
 Orbital Rotation angle TolX            ....  1.000e-05
 DIIS Error             TolErr          ....  5.000e-07


Diagonalization of the overlap matrix:
Smallest eigenvalue                        ... 8.717e-05
Time for diagonalization                   ...    0.375 sec
Threshold for overlap eigenvalues          ... 1.000e-08
Number of eigenvalues below threshold      ... 0
Time for construction of square roots      ...    0.111 sec
Total time needed                          ...    0.489 sec

-------------------
DFT GRID GENERATION
-------------------

General Integration Accuracy     IntAcc      ...  4.670
Radial Grid Type                 RadialGrid  ... Gauss-Chebyshev
Angular Grid (max. acc.)         AngularGrid ... Lebedev-302
Angular grid pruning method      GridPruning ... 3 (G Style)
Weight generation scheme         WeightScheme... Becke
Basis function cutoff            BFCut       ...    1.0000e-11
Integration weight cutoff        WCut        ...    1.0000e-14
Grids for H and He will be reduced by one unit

# of grid points (after initial pruning)     ... 473222 (   1.1 sec)
# of grid points (after weights+screening)   ... 406636 (  15.9 sec)
nearest neighbour list constructed           ...    0.0 sec
Grid point re-assignment to atoms done       ...    0.1 sec
Grid point division into batches done        ...    1.5 sec
Reduced shell lists constructed in    6.8 sec

Total number of grid points                  ...   406636
Total number of batches                      ...     6395
Average number of points per batch           ...       63
Average number of grid points per atom       ...     4728
Average number of shells per batch           ...    91.25 (19.88%)
Average number of basis functions per batch  ...   191.40 (18.75%)
Average number of large shells per batch     ...    55.76 (61.10%)
Average number of large basis fcns per batch ...   118.56 (61.94%)
Maximum spatial batch extension              ...  19.85, 19.98, 22.53 au
Average spatial batch extension              ...   2.10,  2.07,  2.39 au

Time for grid setup =   23.774 sec

------------------------------
INITIAL GUESS: MODEL POTENTIAL
------------------------------
Loading Hartree-Fock densities                     ... done
Calculating cut-offs                               ... done
Setting up the integral package                    ... done
Initializing the effective Hamiltonian             ... done
Starting the Coulomb interaction                   ... done (   6.4 sec)
Reading the grid                                   ... done
Mapping shells                                     ... done
Starting the XC term evaluation                    ... done (   7.0 sec)
  promolecular density results
     # of electrons  =    473.989489491
     EX              =   -466.979986435
     EC              =    -16.662347843
     EX+EC           =   -483.642334278
Transforming the Hamiltonian                       ... done (   0.1 sec)
Diagonalizing the Hamiltonian                      ... done (   0.2 sec)
Back transforming the eigenvectors                 ... done (   0.0 sec)
Now organizing SCF variables                       ... done
                      ------------------
                      INITIAL GUESS DONE (  37.7 sec)
                      ------------------
--------------------
COSX GRID GENERATION
--------------------

General Integration Accuracy     IntAcc      ...  3.340
Radial Grid Type                 RadialGrid  ... Gauss-Chebyshev
Angular Grid (max. acc.)         AngularGrid ... Lebedev-50
Angular grid pruning method      GridPruning ... 3 (G Style)
Weight generation scheme         WeightScheme... Becke
Basis function cutoff            BFCut       ...    1.0000e-11
Integration weight cutoff        WCut        ...    1.0000e-14
Grids for H and He will be reduced by one unit

# of grid points (after initial pruning)     ...  44530 (   0.0 sec)
# of grid points (after weights+screening)   ...  40007 (   1.5 sec)
nearest neighbour list constructed           ...    0.0 sec
Grid point re-assignment to atoms done       ...    0.0 sec
Grid point division into batches done        ...    0.0 sec
Reduced shell lists constructed in    0.7 sec

Total number of grid points                  ...    40007
Total number of batches                      ...      674
Average number of points per batch           ...       59
Average number of grid points per atom       ...      465
Average number of shells per batch           ...   110.79 (24.14%)
Average number of basis functions per batch  ...   235.44 (23.06%)
Average number of large shells per batch     ...    68.03 (61.40%)
Average number of large basis fcns per batch ...   146.39 (62.18%)
Maximum spatial batch extension              ...  17.81, 17.66, 30.36 au
Average spatial batch extension              ...   3.90,  3.89,  5.42 au

Overlap Fitting                  UseSFitting ... on
Constructing numerical overlap ... done (      0.4 sec)
Inverting numerical overlap    ... done (      0.0 sec)
Obtaining analytic overlap     ... done (      0.0 sec)
Final contraction and storage  ... done (      0.0 sec)


General Integration Accuracy     IntAcc      ...  3.670
Radial Grid Type                 RadialGrid  ... Gauss-Chebyshev
Angular Grid (max. acc.)         AngularGrid ... Lebedev-50
Angular grid pruning method      GridPruning ... 3 (G Style)
Weight generation scheme         WeightScheme... Becke
Basis function cutoff            BFCut       ...    1.0000e-11
Integration weight cutoff        WCut        ...    1.0000e-14
Grids for H and He will be reduced by one unit

# of grid points (after initial pruning)     ...  55538 (   0.0 sec)
# of grid points (after weights+screening)   ...  49676 (   1.8 sec)
nearest neighbour list constructed           ...    0.0 sec
Grid point re-assignment to atoms done       ...    0.0 sec
Grid point division into batches done        ...    0.0 sec
Reduced shell lists constructed in    0.8 sec

Total number of grid points                  ...    49676
Total number of batches                      ...      821
Average number of points per batch           ...       60
Average number of grid points per atom       ...      578
Average number of shells per batch           ...   108.67 (23.67%)
Average number of basis functions per batch  ...   230.43 (22.57%)
Average number of large shells per batch     ...    66.40 (61.11%)
Average number of large basis fcns per batch ...   142.84 (61.99%)
Maximum spatial batch extension              ...  19.08, 17.12, 39.19 au
Average spatial batch extension              ...   3.69,  3.71,  5.09 au

Overlap Fitting                  UseSFitting ... on
Constructing numerical overlap ... done (      0.5 sec)
Inverting numerical overlap    ... done (      0.0 sec)
Obtaining analytic overlap     ... done (      0.0 sec)
Final contraction and storage  ... done (      0.0 sec)


General Integration Accuracy     IntAcc      ...  4.010
Radial Grid Type                 RadialGrid  ... Gauss-Chebyshev
Angular Grid (max. acc.)         AngularGrid ... Lebedev-110
Angular grid pruning method      GridPruning ... 3 (G Style)
Weight generation scheme         WeightScheme... Becke
Basis function cutoff            BFCut       ...    1.0000e-11
Integration weight cutoff        WCut        ...    1.0000e-14
Grids for H and He will be reduced by one unit

# of grid points (after initial pruning)     ... 108740 (   0.1 sec)
# of grid points (after weights+screening)   ...  96241 (   3.6 sec)
nearest neighbour list constructed           ...    0.0 sec
Grid point re-assignment to atoms done       ...    0.0 sec
Grid point division into batches done        ...    0.1 sec
Reduced shell lists constructed in    1.5 sec

Total number of grid points                  ...    96241
Total number of batches                      ...     1551
Average number of points per batch           ...       62
Average number of grid points per atom       ...     1119
Average number of shells per batch           ...   102.78 (22.39%)
Average number of basis functions per batch  ...   217.45 (21.30%)
Average number of large shells per batch     ...    63.32 (61.61%)
Average number of large basis fcns per batch ...   135.84 (62.47%)
Maximum spatial batch extension              ...  20.37, 18.06, 24.23 au
Average spatial batch extension              ...   3.21,  3.21,  4.09 au

Overlap Fitting                  UseSFitting ... on
Constructing numerical overlap ... done (      0.9 sec)
Inverting numerical overlap    ... done (      0.0 sec)
Obtaining analytic overlap     ... done (      0.0 sec)
Final contraction and storage  ... done (      0.0 sec)

Time for X-Grid setup             =   12.354 sec
--------------
SCF ITERATIONS
--------------
ITER       Energy         Delta-E        Max-DP      RMS-DP      [F,P]     Damp
               ***  Starting incremental Fock matrix formation  ***
  0  -4794.0489587875   0.000000000000 0.07946195  0.00105571  0.2288403 0.7000
  1  -4794.5716228502  -0.522664062752 0.04891852  0.00074941  0.1014783 0.7000
                               ***Turning on DIIS***
  2  -4794.7964238290  -0.224800978775 0.11150383  0.00137227  0.0410085 0.0000
  3  -4795.1577285258  -0.361304696798 0.05491973  0.00054563  0.0566753 0.0000
  4  -4795.2291960643  -0.071467538528 0.01566181  0.00018080  0.0190034 0.0000
  5  -4795.2342911541  -0.005095089778 0.00623552  0.00007379  0.0084324 0.0000
                      *** Initiating the SOSCF procedure ***
                           *** Shutting down DIIS ***
                      *** Re-Reading the Fockian *** 
                      *** Removing any level shift *** 
ITER      Energy       Delta-E        Grad      Rot      Max-DP    RMS-DP
  6  -4795.23532551  -0.0010343555  0.003247  0.003247  0.002739  0.000039
               *** Restarting incremental Fock matrix formation ***
  7  -4795.23562603  -0.0003005184  0.002311  0.015438  0.002316  0.000042
  8  -4795.23585577  -0.0002297399  0.000705  0.012926  0.002180  0.000046
  9  -4795.23585918  -0.0000034117  0.001155  0.003840  0.001503  0.000017
 10  -4795.23591634  -0.0000571592  0.000240  0.001394  0.000943  0.000008
 11  -4795.23591528   0.0000010559  0.000187  0.000889  0.000593  0.000005
 12  -4795.23591999  -0.0000047042  0.000023  0.000115  0.000146  0.000002
 13  -4795.23592000  -0.0000000160  0.000022  0.000067  0.000060  0.000001
 14  -4795.23592012  -0.0000001129  0.000005  0.000038  0.000032  0.000000
 15  -4795.23592009   0.0000000219  0.000006  0.000010  0.000020  0.000000
                  ***Gradient check signals convergence***
              ***Rediagonalizing the Fockian in SOSCF/NRSCF***

               *****************************************************
               *                     SUCCESS                       *
               *           SCF CONVERGED AFTER  16 CYCLES          *
               *****************************************************

Setting up the final grid:

General Integration Accuracy     IntAcc      ...  5.010
Radial Grid Type                 RadialGrid  ... Gauss-Chebyshev
Angular Grid (max. acc.)         AngularGrid ... Lebedev-434
Angular grid pruning method      GridPruning ... 3 (G Style)
Weight generation scheme         WeightScheme... Becke
Basis function cutoff            BFCut       ...    1.0000e-11
Integration weight cutoff        WCut        ...    1.0000e-14
Grids for H and He will be reduced by one unit

# of grid points (after initial pruning)     ... 833458 (   1.2 sec)
# of grid points (after weights+screening)   ... 713669 (  29.0 sec)
nearest neighbour list constructed           ...    0.0 sec
Grid point re-assignment to atoms done       ...    0.1 sec
Grid point division into batches done        ...    5.1 sec
Reduced shell lists constructed in   14.5 sec

Total number of grid points                  ...   713669
Total number of batches                      ...    11195
Average number of points per batch           ...       63
Average number of grid points per atom       ...     8298
Average number of shells per batch           ...    87.98 (19.17%)
Average number of basis functions per batch  ...   183.94 (18.02%)
Average number of large shells per batch     ...    53.66 (60.99%)
Average number of large basis fcns per batch ...   113.75 (61.84%)
Maximum spatial batch extension              ...  21.26, 20.18, 27.49 au
Average spatial batch extension              ...   1.72,  1.72,  1.91 au

Final grid set up in   44.9 sec
Final integration                            ... done (  17.6 sec)
Change in XC energy                          ...    -0.000013190
Integrated number of electrons               ...   474.000147250
Previous integrated no of electrons          ...   474.000275482
Old exchange energy                            =   -127.086443659 Eh
New exchange energy                            =   -127.084098189 Eh
Exchange energy change after final integration =      0.002345470 Eh
Total energy after final integration           =  -4795.233587808 Eh
Final COS-X integration done in                =   316.179 sec

----------------
TOTAL SCF ENERGY
----------------

Total Energy       :        -4795.23358781 Eh         -130484.93965 eV

Components:
Nuclear Repulsion  :         9260.52824711 Eh          251991.78462 eV
Electronic Energy  :       -14055.76183492 Eh         -382476.72427 eV
One Electron Energy:       -25010.90720215 Eh         -680581.38506 eV
Two Electron Energy:        10955.14536722 Eh          298104.66079 eV

Virial components:
Potential Energy   :        -9562.78685676 Eh         -260216.65953 eV
Kinetic Energy     :         4767.55326895 Eh          129731.71988 eV
Virial Ratio       :            2.00580598


DFT components:
N(Alpha)           :      237.000073624877 electrons
N(Beta)            :      237.000073624877 electrons
N(Total)           :      474.000147249753 electrons
E(XC)              :     -363.560000355727 Eh       
DFET-embed. en.    :        0.000000000000 Eh       

---------------
SCF CONVERGENCE
---------------

  Last Energy change         ...    6.8703e-09  Tolerance :   1.0000e-08
  Last MAX-Density change    ...    6.2172e-15  Tolerance :   1.0000e-07
  Last RMS-Density change    ...    3.9571e-17  Tolerance :   5.0000e-09
  Last Orbital Gradient      ...    1.8639e-06  Tolerance :   1.0000e-05
  Last Orbital Rotation      ...    8.3848e-06  Tolerance :   1.0000e-05

             **** THE GBW FILE WAS UPDATED (Y2.gbw) ****
             **** DENSITY FILE WAS UPDATED (Y2.scfp) ****
             **** ENERGY FILE WAS UPDATED (Y2.en.tmp) ****
             **** THE GBW FILE WAS UPDATED (Y2.gbw) ****
             **** DENSITY FILE WAS UPDATED (Y2.scfp) ****
----------------
ORBITAL ENERGIES
----------------

  NO   OCC          E(Eh)            E(eV) 
   0   2.0000     -88.981318     -2421.3047 
   1   2.0000     -88.980980     -2421.2956 
   2   2.0000     -88.976250     -2421.1668 
   3   2.0000     -88.969238     -2420.9761 
   4   2.0000     -88.963381     -2420.8167 
   5   2.0000     -88.961337     -2420.7611 
   6   2.0000     -19.219170      -522.9802 
   7   2.0000     -19.211079      -522.7600 
   8   2.0000     -14.524515      -395.2322 
   9   2.0000     -14.482069      -394.0771 
  10   2.0000     -14.481054      -394.0495 
  11   2.0000     -14.436722      -392.8432 
  12   2.0000     -14.436142      -392.8274 
  13   2.0000     -14.413535      -392.2122 
  14   2.0000     -14.412751      -392.1909 
  15   2.0000     -14.412636      -392.1878 
  16   2.0000     -14.409225      -392.0949 
  17   2.0000     -10.371972      -282.2357 
  18   2.0000     -10.366823      -282.0956 
  19   2.0000     -10.341924      -281.4181 
  20   2.0000     -10.339596      -281.3547 
  21   2.0000     -10.338439      -281.3232 
  22   2.0000     -10.337499      -281.2976 
  23   2.0000     -10.336898      -281.2813 
  24   2.0000     -10.335058      -281.2312 
  25   2.0000     -10.334796      -281.2241 
  26   2.0000     -10.332776      -281.1691 
  27   2.0000     -10.324749      -280.9507 
  28   2.0000     -10.321515      -280.8627 
  29   2.0000     -10.321311      -280.8572 
  30   2.0000     -10.321069      -280.8506 
  31   2.0000     -10.321043      -280.8499 
  32   2.0000     -10.320706      -280.8407 
  33   2.0000     -10.319242      -280.8009 
  34   2.0000     -10.319192      -280.7995 
  35   2.0000     -10.318718      -280.7866 
  36   2.0000     -10.318356      -280.7767 
  37   2.0000     -10.317069      -280.7417 
  38   2.0000     -10.316745      -280.7329 
  39   2.0000     -10.315952      -280.7113 
  40   2.0000     -10.315716      -280.7049 
  41   2.0000     -10.315523      -280.6997 
  42   2.0000     -10.314091      -280.6607 
  43   2.0000     -10.312494      -280.6172 
  44   2.0000     -10.311777      -280.5977 
  45   2.0000     -10.309130      -280.5257 
  46   2.0000     -10.305748      -280.4337 
  47   2.0000     -10.304189      -280.3913 
  48   2.0000     -10.303130      -280.3624 
  49   2.0000     -10.302766      -280.3525 
  50   2.0000     -10.301728      -280.3243 
  51   2.0000     -10.300497      -280.2908 
  52   2.0000     -10.297554      -280.2107 
  53   2.0000     -10.296642      -280.1859 
  54   2.0000     -10.295339      -280.1504 
  55   2.0000     -10.294474      -280.1269 
  56   2.0000     -10.289631      -279.9951 
  57   2.0000     -10.289613      -279.9946 
  58   2.0000     -10.289566      -279.9933 
  59   2.0000     -10.289185      -279.9830 
  60   2.0000     -10.285415      -279.8804 
  61   2.0000     -10.280869      -279.7567 
  62   2.0000     -10.266320      -279.3608 
  63   2.0000      -8.077035      -219.7873 
  64   2.0000      -8.076903      -219.7837 
  65   2.0000      -8.070827      -219.6184 
  66   2.0000      -8.061598      -219.3672 
  67   2.0000      -8.057837      -219.2649 
  68   2.0000      -8.055823      -219.2101 
  69   2.0000      -6.046277      -164.5276 
  70   2.0000      -6.046171      -164.5247 
  71   2.0000      -6.041588      -164.4000 
  72   2.0000      -6.041451      -164.3962 
  73   2.0000      -6.040381      -164.3671 
  74   2.0000      -6.039776      -164.3507 
  75   2.0000      -6.039545      -164.3444 
  76   2.0000      -6.036284      -164.2556 
  77   2.0000      -6.032511      -164.1530 
  78   2.0000      -6.031437      -164.1237 
  79   2.0000      -6.027728      -164.0228 
  80   2.0000      -6.026735      -163.9958 
  81   2.0000      -6.025747      -163.9689 
  82   2.0000      -6.023760      -163.9148 
  83   2.0000      -6.023293      -163.9021 
  84   2.0000      -6.021784      -163.8611 
  85   2.0000      -6.018676      -163.7765 
  86   2.0000      -6.016569      -163.7192 
  87   2.0000      -1.207772       -32.8651 
  88   2.0000      -1.134986       -30.8845 
  89   2.0000      -1.127134       -30.6709 
  90   2.0000      -1.111399       -30.2427 
  91   2.0000      -1.099969       -29.9317 
  92   2.0000      -1.022289       -27.8179 
  93   2.0000      -1.020867       -27.7792 
  94   2.0000      -1.014181       -27.5973 
  95   2.0000      -1.009633       -27.4735 
  96   2.0000      -1.004075       -27.3223 
  97   2.0000      -1.003817       -27.3153 
  98   2.0000      -0.991144       -26.9704 
  99   2.0000      -0.990042       -26.9404 
 100   2.0000      -0.983218       -26.7547 
 101   2.0000      -0.976625       -26.5753 
 102   2.0000      -0.963789       -26.2260 
 103   2.0000      -0.962763       -26.1981 
 104   2.0000      -0.952651       -25.9230 
 105   2.0000      -0.950236       -25.8572 
 106   2.0000      -0.929912       -25.3042 
 107   2.0000      -0.911322       -24.7983 
 108   2.0000      -0.899627       -24.4801 
 109   2.0000      -0.897501       -24.4222 
 110   2.0000      -0.883052       -24.0291 
 111   2.0000      -0.881100       -23.9760 
 112   2.0000      -0.879442       -23.9308 
 113   2.0000      -0.865137       -23.5416 
 114   2.0000      -0.859202       -23.3801 
 115   2.0000      -0.845791       -23.0151 
 116   2.0000      -0.839913       -22.8552 
 117   2.0000      -0.839800       -22.8521 
 118   2.0000      -0.831702       -22.6318 
 119   2.0000      -0.823715       -22.4144 
 120   2.0000      -0.810421       -22.0527 
 121   2.0000      -0.804733       -21.8979 
 122   2.0000      -0.800425       -21.7807 
 123   2.0000      -0.780710       -21.2442 
 124   2.0000      -0.768901       -20.9229 
 125   2.0000      -0.762347       -20.7445 
 126   2.0000      -0.757361       -20.6088 
 127   2.0000      -0.753540       -20.5049 
 128   2.0000      -0.745070       -20.2744 
 129   2.0000      -0.729593       -19.8532 
 130   2.0000      -0.718376       -19.5480 
 131   2.0000      -0.713813       -19.4238 
 132   2.0000      -0.699068       -19.0226 
 133   2.0000      -0.697172       -18.9710 
 134   2.0000      -0.688590       -18.7375 
 135   2.0000      -0.680127       -18.5072 
 136   2.0000      -0.668644       -18.1947 
 137   2.0000      -0.667765       -18.1708 
 138   2.0000      -0.663979       -18.0678 
 139   2.0000      -0.657748       -17.8982 
 140   2.0000      -0.650582       -17.7032 
 141   2.0000      -0.647105       -17.6086 
 142   2.0000      -0.639853       -17.4113 
 143   2.0000      -0.634859       -17.2754 
 144   2.0000      -0.633504       -17.2385 
 145   2.0000      -0.631623       -17.1873 
 146   2.0000      -0.621526       -16.9126 
 147   2.0000      -0.616872       -16.7859 
 148   2.0000      -0.606275       -16.4976 
 149   2.0000      -0.600497       -16.3404 
 150   2.0000      -0.597697       -16.2642 
 151   2.0000      -0.595553       -16.2058 
 152   2.0000      -0.592396       -16.1199 
 153   2.0000      -0.585734       -15.9386 
 154   2.0000      -0.573960       -15.6183 
 155   2.0000      -0.569912       -15.5081 
 156   2.0000      -0.567647       -15.4465 
 157   2.0000      -0.560687       -15.2571 
 158   2.0000      -0.551530       -15.0079 
 159   2.0000      -0.547405       -14.8956 
 160   2.0000      -0.542420       -14.7600 
 161   2.0000      -0.540197       -14.6995 
 162   2.0000      -0.538932       -14.6651 
 163   2.0000      -0.537530       -14.6269 
 164   2.0000      -0.534776       -14.5520 
 165   2.0000      -0.531481       -14.4623 
 166   2.0000      -0.528545       -14.3825 
 167   2.0000      -0.527459       -14.3529 
 168   2.0000      -0.522665       -14.2224 
 169   2.0000      -0.521526       -14.1915 
 170   2.0000      -0.519107       -14.1256 
 171   2.0000      -0.513195       -13.9647 
 172   2.0000      -0.510653       -13.8956 
 173   2.0000      -0.509021       -13.8512 
 174   2.0000      -0.505661       -13.7597 
 175   2.0000      -0.501844       -13.6559 
 176   2.0000      -0.496901       -13.5214 
 177   2.0000      -0.495060       -13.4713 
 178   2.0000      -0.493849       -13.4383 
 179   2.0000      -0.493710       -13.4345 
 180   2.0000      -0.487701       -13.2710 
 181   2.0000      -0.486998       -13.2519 
 182   2.0000      -0.482355       -13.1255 
 183   2.0000      -0.479710       -13.0536 
 184   2.0000      -0.478241       -13.0136 
 185   2.0000      -0.476192       -12.9578 
 186   2.0000      -0.474435       -12.9100 
 187   2.0000      -0.471414       -12.8278 
 188   2.0000      -0.470117       -12.7925 
 189   2.0000      -0.469535       -12.7767 
 190   2.0000      -0.467192       -12.7129 
 191   2.0000      -0.464538       -12.6407 
 192   2.0000      -0.463011       -12.5992 
 193   2.0000      -0.458270       -12.4702 
 194   2.0000      -0.456308       -12.4168 
 195   2.0000      -0.448238       -12.1972 
 196   2.0000      -0.446840       -12.1591 
 197   2.0000      -0.446541       -12.1510 
 198   2.0000      -0.446203       -12.1418 
 199   2.0000      -0.443975       -12.0812 
 200   2.0000      -0.443369       -12.0647 
 201   2.0000      -0.439171       -11.9504 
 202   2.0000      -0.438031       -11.9194 
 203   2.0000      -0.437679       -11.9098 
 204   2.0000      -0.434574       -11.8253 
 205   2.0000      -0.433787       -11.8040 
 206   2.0000      -0.426346       -11.6015 
 207   2.0000      -0.426070       -11.5939 
 208   2.0000      -0.424143       -11.5415 
 209   2.0000      -0.423504       -11.5241 
 210   2.0000      -0.422242       -11.4898 
 211   2.0000      -0.419352       -11.4111 
 212   2.0000      -0.410586       -11.1726 
 213   2.0000      -0.409381       -11.1398 
 214   2.0000      -0.406442       -11.0599 
 215   2.0000      -0.403418       -10.9776 
 216   2.0000      -0.402997       -10.9661 
 217   2.0000      -0.395247       -10.7552 
 218   2.0000      -0.388977       -10.5846 
 219   2.0000      -0.386923       -10.5287 
 220   2.0000      -0.370232       -10.0745 
 221   2.0000      -0.366483        -9.9725 
 222   2.0000      -0.365794        -9.9538 
 223   2.0000      -0.350774        -9.5450 
 224   2.0000      -0.339969        -9.2510 
 225   2.0000      -0.336284        -9.1508 
 226   2.0000      -0.335578        -9.1315 
 227   2.0000      -0.334776        -9.1097 
 228   2.0000      -0.333796        -9.0831 
 229   2.0000      -0.320369        -8.7177 
 230   2.0000      -0.315017        -8.5720 
 231   2.0000      -0.310864        -8.4590 
 232   2.0000      -0.302878        -8.2417 
 233   2.0000      -0.287488        -7.8229 
 234   2.0000      -0.276264        -7.5175 
 235   2.0000      -0.267482        -7.2785 
 236   2.0000      -0.235486        -6.4079 
 237   0.0000      -0.096874        -2.6361 
 238   0.0000      -0.085659        -2.3309 
 239   0.0000      -0.048100        -1.3089 
 240   0.0000      -0.044546        -1.2122 
 241   0.0000      -0.024929        -0.6784 
 242   0.0000      -0.008113        -0.2208 
 243   0.0000       0.006263         0.1704 
 244   0.0000       0.030458         0.8288 
 245   0.0000       0.037159         1.0112 
 246   0.0000       0.040372         1.0986 
 247   0.0000       0.043605         1.1865 
 248   0.0000       0.048493         1.3196 
 249   0.0000       0.060316         1.6413 
 250   0.0000       0.064479         1.7546 
 251   0.0000       0.068895         1.8747 
 252   0.0000       0.069751         1.8980 
 253   0.0000       0.071099         1.9347 
 254   0.0000       0.072956         1.9852 
 255   0.0000       0.074380         2.0240 
 256   0.0000       0.080537         2.1915 
 257   0.0000       0.089208         2.4275 
 258   0.0000       0.095386         2.5956 
 259   0.0000       0.097633         2.6567 
 260   0.0000       0.101116         2.7515 
 261   0.0000       0.102519         2.7897 
 262   0.0000       0.106503         2.8981 
 263   0.0000       0.106867         2.9080 
 264   0.0000       0.109667         2.9842 
 265   0.0000       0.112553         3.0627 
 266   0.0000       0.112937         3.0732 
 267   0.0000       0.116545         3.1713 
 268   0.0000       0.122390         3.3304 
 269   0.0000       0.123450         3.3593 
 270   0.0000       0.123839         3.3698 
 271   0.0000       0.127238         3.4623 
 272   0.0000       0.128956         3.5091 
 273   0.0000       0.133486         3.6323 
 274   0.0000       0.136654         3.7185 
 275   0.0000       0.139470         3.7952 
 276   0.0000       0.141446         3.8490 
 277   0.0000       0.144930         3.9437 
 278   0.0000       0.145957         3.9717 
 279   0.0000       0.148962         4.0535 
 280   0.0000       0.152544         4.1509 
 281   0.0000       0.154673         4.2089 
 282   0.0000       0.158236         4.3058 
 283   0.0000       0.160744         4.3741 
 284   0.0000       0.162982         4.4350 
 285   0.0000       0.165960         4.5160 
 286   0.0000       0.167285         4.5521 
 287   0.0000       0.167697         4.5633 
 288   0.0000       0.171719         4.6727 
 289   0.0000       0.172965         4.7066 
 290   0.0000       0.175135         4.7657 
 291   0.0000       0.178431         4.8553 
 292   0.0000       0.182061         4.9541 
 293   0.0000       0.183970         5.0061 
 294   0.0000       0.187645         5.1061 
 295   0.0000       0.189810         5.1650 
 296   0.0000       0.191427         5.2090 
 297   0.0000       0.201862         5.4929 
 298   0.0000       0.205324         5.5871 
 299   0.0000       0.211021         5.7422 
 300   0.0000       0.214352         5.8328 
 301   0.0000       0.218330         5.9411 
 302   0.0000       0.222963         6.0671 
 303   0.0000       0.227391         6.1876 
 304   0.0000       0.230456         6.2710 
 305   0.0000       0.236282         6.4296 
 306   0.0000       0.237139         6.4529 
 307   0.0000       0.239275         6.5110 
 308   0.0000       0.240274         6.5382 
 309   0.0000       0.245016         6.6672 
 310   0.0000       0.245965         6.6931 
 311   0.0000       0.250797         6.8245 
 312   0.0000       0.252358         6.8670 
 313   0.0000       0.256828         6.9886 
 314   0.0000       0.257702         7.0124 
 315   0.0000       0.262051         7.1308 
 316   0.0000       0.264064         7.1856 
 317   0.0000       0.267261         7.2725 
 318   0.0000       0.273410         7.4399 
 319   0.0000       0.277422         7.5490 
 320   0.0000       0.283815         7.7230 
 321   0.0000       0.287218         7.8156 
 322   0.0000       0.292628         7.9628 
 323   0.0000       0.293900         7.9974 
 324   0.0000       0.299909         8.1609 
 325   0.0000       0.300143         8.1673 
 326   0.0000       0.305485         8.3127 
 327   0.0000       0.312800         8.5117 
 328   0.0000       0.318161         8.6576 
 329   0.0000       0.322913         8.7869 
 330   0.0000       0.323508         8.8031 
 331   0.0000       0.324765         8.8373 
 332   0.0000       0.325677         8.8621 
 333   0.0000       0.327414         8.9094 
 334   0.0000       0.331903         9.0315 
 335   0.0000       0.338459         9.2099 
 336   0.0000       0.344194         9.3660 
 337   0.0000       0.346321         9.4239 
 338   0.0000       0.350437         9.5359 
 339   0.0000       0.353834         9.6283 
 340   0.0000       0.356376         9.6975 
 341   0.0000       0.359873         9.7926 
 342   0.0000       0.362738         9.8706 
 343   0.0000       0.371837        10.1182 
 344   0.0000       0.377123        10.2620 
 345   0.0000       0.379371        10.3232 
 346   0.0000       0.383022        10.4226 
 347   0.0000       0.385364        10.4863 
 348   0.0000       0.396420        10.7871 
 349   0.0000       0.401848        10.9348 
 350   0.0000       0.404049        10.9947 
 351   0.0000       0.405967        11.0469 
 352   0.0000       0.407878        11.0989 
 353   0.0000       0.409483        11.1426 
 354   0.0000       0.413621        11.2552 
 355   0.0000       0.414644        11.2831 
 356   0.0000       0.421782        11.4773 
 357   0.0000       0.425750        11.5852 
 358   0.0000       0.426830        11.6146 
 359   0.0000       0.430140        11.7047 
 360   0.0000       0.431284        11.7358 
 361   0.0000       0.435411        11.8481 
 362   0.0000       0.438835        11.9413 
 363   0.0000       0.448447        12.2029 
 364   0.0000       0.452422        12.3110 
 365   0.0000       0.452905        12.3242 
 366   0.0000       0.455350        12.3907 
 367   0.0000       0.456729        12.4282 
 368   0.0000       0.457858        12.4589 
 369   0.0000       0.462018        12.5722 
 370   0.0000       0.465177        12.6581 
 371   0.0000       0.465870        12.6770 
 372   0.0000       0.472070        12.8457 
 373   0.0000       0.474198        12.9036 
 374   0.0000       0.477290        12.9877 
 375   0.0000       0.478501        13.0207 
 376   0.0000       0.481807        13.1106 
 377   0.0000       0.483466        13.1558 
 378   0.0000       0.486886        13.2489 
 379   0.0000       0.491187        13.3659 
 380   0.0000       0.491814        13.3829 
 381   0.0000       0.495438        13.4816 
 382   0.0000       0.498283        13.5590 
 383   0.0000       0.499429        13.5902 
 384   0.0000       0.503539        13.7020 
 385   0.0000       0.503822        13.7097 
 386   0.0000       0.504185        13.7196 
 387   0.0000       0.505496        13.7552 
 388   0.0000       0.512871        13.9559 
 389   0.0000       0.515309        14.0223 
 390   0.0000       0.516347        14.0505 
 391   0.0000       0.517249        14.0751 
 392   0.0000       0.520168        14.1545 
 393   0.0000       0.523434        14.2434 
 394   0.0000       0.527121        14.3437 
 395   0.0000       0.528230        14.3739 
 396   0.0000       0.532262        14.4836 
 397   0.0000       0.533178        14.5085 
 398   0.0000       0.537850        14.6357 
 399   0.0000       0.540284        14.7019 
 400   0.0000       0.544553        14.8180 
 401   0.0000       0.548108        14.9148 
 402   0.0000       0.549309        14.9474 
 403   0.0000       0.551587        15.0094 
 404   0.0000       0.553035        15.0489 
 405   0.0000       0.556693        15.1484 
 406   0.0000       0.559825        15.2336 
 407   0.0000       0.563889        15.3442 
[...]
   1.755   1.461   2.138   3.889   2.135   3.885   2.115   2.180   3.667   2.136
   2.109   1.776   4.202   0.386   0.434   0.541   0.406   0.502   0.530   0.660
   0.647   0.635   0.609   0.562   0.664   0.634   0.666   0.510   0.533   0.633
   0.657   0.660   0.404   0.496   0.407   0.379

Number of electrons in sTDA:  166.000

ax(DF)   :  0.3800
s^k      :  2.0000
beta  (J):  1.8600
alpha (K):  0.9000

hardness table read
setting up gammas ...
computing q(ij,n)
memory needed for q data:             5.9 MB 
memory available for q data:       2485.8 MB 

CSF included by energy:           30 
CSF considered in PT2:          5946 

ordered frontier orbitals
           eV         # centers 
  72      -9.132       8.3
  73      -9.110       3.0
  74      -9.083       5.7
  75      -8.718      25.9
  76      -8.572      28.2
  77      -8.459      29.5
  78      -8.242      25.9
  79      -7.823      10.4
  80      -7.518      22.8
  81      -7.279      15.7
  82      -6.408      21.6

  83      -2.636      25.8
  84      -2.331      23.3
  85      -1.309      15.3
  86      -1.212      17.1
  87      -0.678      30.8
  88      -0.221      23.8
  89       0.170      22.1
  90       0.829      21.6
  91       1.011      22.8
  92       1.099      11.3
  93       1.187       6.3

           eV        nm       excitation i->a                     eV 
   0      2.20     564.4    82 ->  83      gap,J,K:    3.772     1.887     0.156
   1      2.66     466.0    82 ->  84      gap,J,K:    4.077     1.817     0.200
   2      3.07     404.4    81 ->  83      gap,J,K:    4.642     1.786     0.105
   3      3.33     372.2    81 ->  84      gap,J,K:    4.948     1.699     0.041
   4      3.42     362.4    80 ->  83      gap,J,K:    4.881     1.912     0.226
   5      3.57     347.2    79 ->  83      gap,J,K:    5.187     1.843     0.114
   6      3.61     343.0    82 ->  85      gap,J,K:    5.099     1.672     0.094
   7      3.73     332.8    80 ->  84      gap,J,K:    5.187     1.881     0.210
   8      3.74     331.9    82 ->  86      gap,J,K:    5.196     1.638     0.089
   9      3.86     320.8    79 ->  84      gap,J,K:    5.492     1.756     0.064
  10      4.21     294.6    78 ->  83      gap,J,K:    5.606     1.808     0.206
  11      4.22     294.1    82 ->  87      gap,J,K:    5.730     1.925     0.206
  12      4.36     284.5    77 ->  83      gap,J,K:    5.823     1.805     0.170
  13      4.42     280.8    76 ->  83      gap,J,K:    5.936     1.770     0.125
  14      4.54     273.2    78 ->  84      gap,J,K:    5.911     1.810     0.219
  15      4.54     273.0    81 ->  85      gap,J,K:    5.970     1.500     0.036
  16      4.63     268.0    75 ->  83      gap,J,K:    6.082     1.755     0.150
  17      4.65     266.7    81 ->  86      gap,J,K:    6.066     1.467     0.025
  18      4.68     265.1    73 ->  83      gap,J,K:    6.474     1.801     0.002
  19      4.69     264.3    80 ->  85      gap,J,K:    6.209     1.811     0.147
  20      4.69     264.1    77 ->  84      gap,J,K:    6.128     1.751     0.158
  21      4.72     262.5    76 ->  84      gap,J,K:    6.241     1.751     0.116
  22      4.76     260.5    71 ->  83      gap,J,K:    6.515     1.843     0.044
  23      4.76     260.2    82 ->  88      gap,J,K:    6.187     1.728     0.153
  24      4.80     258.3    73 ->  84      gap,J,K:    6.779     1.984     0.002

average / max PT2 energy lowering (eV):       0.043       0.075

CSF included by PT:                   177 
total number of CSF included:         207 
 
sTD-DFT procedure...
setting up A+B and A-B matrices...  done
estimated time (min):    0.000
calculating (A-B)^0.5 ... done
calculating (A+B)*(A-B)^0.5 ... done
calculating (A-B)^0.5 *(A+B)*(A-B)^0.5 ... done
diagonalizing ...using LAPACKE_ssyevr ...done

   34 roots found, lowest/highest eigenvalue :     1.961     4.998

excitation energies, transition moments and amplitudes

molecular weight:  926.111
state   eV        nm        fL         fV        Rl        RV
   0   1.961     632.2   2.165805   2.584551  -657.499674  -719.612177     0.90 (  82->  83)    0.08 (  80->  84)    0.01 (  80->  83)
   1   2.386     519.6   0.368335   0.414233  698.201591  733.499547     0.86 (  82->  84)    0.10 (  80->  83)    0.01 (  82->  83)
   2   2.832     437.8   0.060520   0.052506  -17.784942  -22.665580     0.85 (  81->  83)    0.10 (  79->  84)    0.02 (  79->  83)
   3   3.013     411.5   0.061167   0.055227  -15.898594  -16.654966     0.60 (  81->  84)    0.35 (  79->  83)    0.01 (  76->  84)
   4   3.230     383.9   0.037584   0.036933  275.088536  272.106875     0.72 (  80->  83)    0.11 (  82->  84)    0.08 (  78->  84)
   5   3.318     373.6   0.004678   0.004003  22.725577  21.211480     0.74 (  82->  85)    0.07 (  80->  86)    0.06 (  80->  85)
   6   3.397     365.0   0.260732   0.237025  -18.780920  -8.617909     0.64 (  82->  86)    0.09 (  80->  85)    0.05 (  80->  84)
   7   3.521     352.2   0.067161   0.075851  -99.947288  -103.964794     0.45 (  80->  84)    0.27 (  78->  83)    0.04 (  82->  83)
   8   3.591     345.3   0.041287   0.038763  27.724645  25.842564     0.42 (  79->  83)    0.29 (  81->  84)    0.05 (  77->  84)
   9   3.648     339.8   0.030071   0.030338   1.644669  -2.270900     0.44 (  79->  84)    0.14 (  77->  83)    0.07 (  79->  83)
  10   3.667     338.1   0.002288   0.002484   6.856029   7.968703     0.41 (  73->  83)    0.36 (  73->  84)    0.10 (  73->  85)
  11   3.688     336.2   0.130648   0.136061  -21.998276  -12.585762     0.19 (  71->  83)    0.10 (  71->  84)    0.10 (  80->  84)
  12   3.892     318.6   0.380004   0.346509   1.100512  -0.807256     0.15 (  82->  87)    0.10 (  71->  83)    0.09 (  74->  83)
  13   3.933     315.3   0.263560   0.242128  -122.483140  -119.931787     0.16 (  78->  83)    0.14 (  78->  84)    0.13 (  77->  83)
  14   3.967     312.5   0.070861   0.064895  -92.574276  -88.948930     0.61 (  82->  87)    0.06 (  78->  83)    0.05 (  82->  89)
  15   4.196     295.5   0.031878   0.028657  -33.711661  -32.547036     0.27 (  75->  83)    0.19 (  76->  84)    0.10 (  78->  83)
  16   4.249     291.8   0.011745   0.009068  -6.690308  -6.088978     0.31 (  76->  83)    0.22 (  79->  84)    0.16 (  77->  83)
  17   4.286     289.3   0.033017   0.026179  -3.025756  -3.731131     0.33 (  74->  83)    0.18 (  74->  84)    0.16 (  71->  83)
  18   4.330     286.3   0.012333   0.011249  -42.707248  -36.229016     0.47 (  81->  85)    0.12 (  73->  85)    0.08 (  79->  85)
  19   4.354     284.8   0.001430   0.001287  -1.368670  -1.344717     0.51 (  73->  85)    0.13 (  73->  86)    0.12 (  81->  85)
  20   4.383     282.9   0.090407   0.072421   2.913965   3.628827     0.13 (  81->  86)    0.12 (  72->  83)    0.11 (  78->  83)
  21   4.436     279.5   0.043670   0.034029  79.750293  72.794996     0.23 (  81->  86)    0.19 (  72->  83)    0.13 (  82->  88)
  22   4.460     278.0   0.027721   0.023381  24.739964  22.964258     0.17 (  72->  84)    0.13 (  70->  83)    0.10 (  78->  84)
  23   4.477     276.9   0.100407   0.083427  60.541536  56.579443     0.34 (  82->  88)    0.18 (  81->  86)    0.13 (  80->  85)
  24   4.494     275.9   0.242533   0.212618  -201.265344  -203.731147     0.20 (  82->  88)    0.18 (  80->  85)    0.15 (  78->  84)
  25   4.600     269.6   0.020183   0.015643  21.695503  21.479332     0.39 (  82->  89)    0.13 (  80->  86)    0.06 (  77->  84)
  26   4.631     267.7   0.061555   0.054641  239.168009  218.775998     0.26 (  71->  86)    0.11 (  74->  86)    0.08 (  77->  86)
  27   4.655     266.3   0.095837   0.086938  -136.385528  -121.964312     0.31 (  82->  89)    0.09 (  78->  84)    0.06 (  80->  85)
  28   4.712     263.1   0.317296   0.270355  -233.497428  -215.940175     0.21 (  80->  86)    0.11 (  78->  84)    0.10 (  81->  87)
  29   4.786     259.1   0.160772   0.134915  107.895520  103.752160     0.38 (  81->  87)    0.14 (  79->  86)    0.07 (  81->  89)
  30   4.846     255.9   0.549410   0.454314  26.656235  24.694033     0.18 (  75->  85)    0.15 (  78->  85)    0.14 (  77->  85)
  31   4.895     253.3   0.021740   0.018506  34.153771  38.108818     0.33 (  70->  83)    0.10 (  69->  83)    0.08 (  76->  84)
  32   4.944     250.8   0.304195   0.249860  -77.955138  -72.912792     0.15 (  71->  86)    0.15 (  77->  86)    0.08 (  75->  86)
  33   4.998     248.1   0.026347   0.022826  191.137756  170.706083     0.23 (  70->  84)    0.16 (  69->  83)    0.15 (  70->  83)

-----------------------------------------------------------------------------
         ABSORPTION SPECTRUM VIA TRANSITION ELECTRIC DIPOLE MOMENTS
-----------------------------------------------------------------------------
State   Energy  Wavelength   fosc         T2         TX        TY        TZ  
        (cm-1)    (nm)                  (au**2)     (au)      (au)      (au) 
-----------------------------------------------------------------------------
   0   15818.6    632.2   2.165804549  45.07395   5.01313  -4.46125  -0.19925
   1   19244.8    519.6   0.368335084   6.30094   2.40073   0.13566   0.72044
   2   22841.6    437.8   0.060519713   0.87226  -0.75530  -0.54625  -0.05815
   3   24300.3    411.5   0.061166771   0.82867  -0.64320   0.64387  -0.01979
   4   26051.4    383.9   0.037584345   0.47495   0.38933  -0.12409   0.55496
   5   26764.6    373.6   0.004678293   0.05754  -0.13879   0.18260  -0.07028
   6   27397.8    365.0   0.260732045   3.13296  -0.35806  -1.73109   0.08981
   7   28395.9    352.2   0.067161440   0.77865   0.74632   0.09565  -0.46098
   8   28960.1    345.3   0.041286888   0.46934   0.03504  -0.65112   0.21012
   9   29425.5    339.8   0.030070615   0.33643  -0.41900   0.36830  -0.15883
  10   29573.9    338.1   0.002287614   0.02547   0.12721  -0.05197  -0.08114
  11   29748.0    336.2   0.130647799   1.44584  -0.32137   1.14712  -0.16331
  12   31390.6    318.6   0.380003676   3.98532   1.07079  -1.63056   0.42425
  13   31718.6    315.3   0.263560011   2.73553   1.13727   1.19846  -0.07632
  14   31997.4    312.5   0.070860589   0.72906  -0.79074   0.29547   0.12839
  15   33839.5    295.5   0.031878046   0.31013   0.41141   0.35781  -0.11332
  16   34270.9    291.8   0.011744611   0.11282  -0.21020  -0.25504   0.05995
  17   34570.4    289.3   0.033016882   0.31442  -0.16285   0.49585  -0.20501
  18   34924.6    286.3   0.012333412   0.11626   0.25430   0.20243  -0.10303
  19   35115.6    284.8   0.001429947   0.01341  -0.10164  -0.04600   0.03096
  20   35350.5    282.9   0.090407348   0.84194   0.87697   0.26968   0.01187
  21   35777.9    279.5   0.043670456   0.40184  -0.57868  -0.21409  -0.14535
  22   35974.0    278.0   0.027720501   0.25368  -0.19491   0.40439  -0.22839
  23   36112.4    276.9   0.100406576   0.91534   0.84128  -0.32744   0.31681
  24   36244.1    275.9   0.242532576   2.20297  -0.78026  -1.25869   0.09929
  25   37097.8    269.6   0.020183388   0.17911  -0.01678   0.42021   0.04748
  26   37353.4    267.7   0.061554699   0.54251  -0.09196  -0.49667   0.53607
  27   37546.9    266.3   0.095836623   0.84030  -0.77198  -0.48412   0.09991
  28   38004.1    263.1   0.317296193   2.74859   0.36809   1.60571  -0.18651
  29   38598.6    259.1   0.160772383   1.37125   1.13345  -0.02564   0.29303
  30   39083.8    255.9   0.549409581   4.62780  -0.27600  -2.13203   0.07784
  31   39477.4    253.3   0.021740148   0.18130   0.37528   0.20077   0.01224
  32   39879.6    250.8   0.304195154   2.51118   0.50014  -1.32066   0.71896
  33   40307.9    248.1   0.026347442   0.21519   0.38619   0.14884   0.20951

-----------------------------------------------------------------------------
         ABSORPTION SPECTRUM VIA TRANSITION VELOCITY DIPOLE MOMENTS
-----------------------------------------------------------------------------
State   Energy  Wavelength   fosc         P2         PX        PY        PZ  
        (cm-1)    (nm)                  (au**2)     (au)      (au)      (au) 
-----------------------------------------------------------------------------
   0   15818.6    632.2   2.584551347   0.27942   0.39504  -0.35088  -0.01569
   1   19244.8    519.6   0.414233056   0.05448   0.22312   0.01486   0.06694
   2   22841.6    437.8   0.052505997   0.00820  -0.07358  -0.05260  -0.00397
   3   24300.3    411.5   0.055226909   0.00917  -0.06949   0.06590  -0.00007
   4   26051.4    383.9   0.036932733   0.00658   0.04577  -0.01359   0.06554
   5   26764.6    373.6   0.004002998   0.00073  -0.01474   0.02126  -0.00793
   6   27397.8    365.0   0.237024690   0.04438  -0.04935  -0.20458   0.00969
   7   28395.9    352.2   0.075851066   0.01472   0.10724   0.00173  -0.05672
   8   28960.1    345.3   0.038763486   0.00767   0.00616  -0.08266   0.02832
   9   29425.5    339.8   0.030337755   0.00610  -0.06019   0.04486  -0.02158
  10   29573.9    338.1   0.002484101   0.00050   0.01872  -0.00683  -0.01025
  11   29748.0    336.2   0.136061277   0.02766  -0.04533   0.15879  -0.01988
  12   31390.6    318.6   0.346509338   0.07434   0.14372  -0.22395   0.05943
  13   31718.6    315.3   0.242127591   0.05249   0.15994   0.16368  -0.01072
  14   31997.4    312.5   0.064895299   0.01419  -0.11054   0.04062   0.01797
  15   33839.5    295.5   0.028657467   0.00663   0.05689   0.05575  -0.01685
  16   34270.9    291.8   0.009067892   0.00212  -0.02916  -0.03429   0.00987
  17   34570.4    289.3   0.026179379   0.00619  -0.02213   0.06924  -0.03004
  18   34924.6    286.3   0.011248742   0.00268   0.03651   0.03365  -0.01482
  19   35115.6    284.8   0.001286729   0.00031  -0.01556  -0.00643   0.00504
  20   35350.5    282.9   0.072420656   0.01750   0.12454   0.04453   0.00198
  21   35777.9    279.5   0.034029441   0.00832  -0.08371  -0.02926  -0.02141
  22   35974.0    278.0   0.023381020   0.00575  -0.02942   0.06106  -0.03397
  23   36112.4    276.9   0.083426766   0.02059   0.12570  -0.05037   0.04747
  24   36244.1    275.9   0.212618063   0.05267  -0.12050  -0.19454   0.01736
  25   37097.8    269.6   0.015642763   0.00397   0.00050   0.06248   0.00791
  26   37353.4    267.7   0.054641433   0.01395  -0.02330  -0.07744   0.08608
  27   37546.9    266.3   0.086937534   0.02231  -0.12936  -0.07312   0.01512
  28   38004.1    263.1   0.270355275   0.07022   0.05604   0.25727  -0.02991
  29   38598.6    259.1   0.134915129   0.03559   0.18240  -0.00788   0.04752
  30   39083.8    255.9   0.454314492   0.12136  -0.04902  -0.34466   0.01263
  31   39477.4    253.3   0.018506195   0.00499   0.06234   0.03307   0.00372
  32   39879.6    250.8   0.249860482   0.06810   0.08853  -0.21502   0.11845
  33   40307.9    248.1   0.022825999   0.00629   0.06875   0.01991   0.03413

-------------------------------------------------------------------
                             CD SPECTRUM
-------------------------------------------------------------------
State   Energy Wavelength       R         MX        MY        MZ   
        (cm-1)   (nm)       (1e40*cgs)   (au)      (au)      (au)  
-------------------------------------------------------------------
   0   15818.6    632.2    -657.49967   0.85562   0.34779  -0.25867
   1   19244.8    519.6    698.20159   0.35242   1.04686  -5.48281
   2   22841.6    437.8    -17.78494  -0.07464  -0.21027   1.64738
   3   24300.3    411.5    -15.89859  -0.25304  -0.14814  -0.00358
   4   26051.4    383.9    275.08854   0.14745   0.78343  -2.03113
   5   26764.6    373.6     22.72558  -0.06620  -0.05788   1.35208
   6   27397.8    365.0    -18.78092   0.14983   0.13706   4.12660
   7   28395.9    352.2    -99.94729   0.04824  -0.41309  -0.92740
   8   28960.1    345.3     27.72464   0.14113   0.23200   0.13564
   9   29425.5    339.8      1.64467  -0.22273  -0.29178  -0.04510
  10   29573.9    338.1      6.85603  -0.34507  -0.12127  -0.10486
  11   29748.0    336.2    -21.99828  -0.27015  -0.30336  -2.17067
  12   31390.6    318.6      1.10051   0.20879   0.54762   1.56673
  13   31718.6    315.3    -122.48314   0.01932  -0.10982  -8.24458
  14   31997.4    312.5    -92.57428  -0.37282  -0.13475   1.07282
  15   33839.5    295.5    -33.71166  -0.12248  -0.19506  -2.32271
  16   34270.9    291.8     -6.69031  -0.05513  -0.04410   0.09250
  17   34570.4    289.3     -3.02576   0.04425  -0.15717  -0.47789
  18   34924.6    286.3    -42.70725   0.15160  -0.34982  -2.07157
  19   35115.6    284.8     -1.36867   0.29451  -0.30819   0.69653
  20   35350.5    282.9      2.91396   0.01912  -0.00889  -2.25242
  21   35777.9    279.5     79.75029   0.01254  -0.23673   2.62633
  22   35974.0    278.0     24.73996  -0.11352  -0.44444  -0.23051
  23   36112.4    276.9     60.54154   0.25181   0.70369  -0.75205
  24   36244.1    275.9    -201.26534  -0.17974  -0.14531   5.34496
  25   37097.8    269.6     21.69550   0.02381   0.02099  -2.11566
  26   37353.4    267.7    239.16801  -0.54215   0.14598  -1.85046
  27   37546.9    266.3    -136.38553  -0.07633   0.17142   6.03210
  28   38004.1    263.1    -233.49743   0.07186   0.07393  -4.53268
  29   38598.6    259.1    107.89552   0.20164   0.78091  -2.27361
  30   39083.8    255.9     26.65624   0.23408   0.49373  12.90070
  31   39477.4    253.3     34.15377  -0.16103  -0.23723  -3.01016
  32   39879.6    250.8    -77.95514  -0.03006   0.73969   1.83961
  33   40307.9    248.1    191.13776  -0.04710   0.14227  -3.88460

sTD-DFT done

Total run time:        3.214 sec

           *** ORCA-CIS/TD-DFT FINISHED WITHOUT ERROR ***

-------------------------   --------------------
FINAL SINGLE POINT ENERGY     -4795.233587807502
-------------------------   --------------------


                            ***************************************
                            *     ORCA property calculations      *
                            ***************************************

                                    ---------------------
                                    Active property flags
                                    ---------------------
   (+) Dipole Moment


------------------------------------------------------------------------------
                       ORCA ELECTRIC PROPERTIES CALCULATION
------------------------------------------------------------------------------

Dipole Moment Calculation                       ... on
Quadrupole Moment Calculation                   ... off
Polarizability Calculation                      ... off
GBWName                                         ... Y2.gbw
Electron density file                           ... Y2.scfp
The origin for moment calculation is the CENTER OF MASS  = (18.282711, -12.894734 -0.441482)

-------------
DIPOLE MOMENT
-------------
                                X             Y             Z
Electronic contribution:      5.42005       3.67698       0.60135
Nuclear contribution   :     -5.64307      -1.21269      -2.01926
                        -----------------------------------------
Total Dipole Moment    :     -0.22302       2.46429      -1.41791
                        -----------------------------------------
Magnitude (a.u.)       :      2.85183
Magnitude (Debye)      :      7.24878



--------------------
Rotational spectrum 
--------------------
 
Rotational constants in cm-1:     0.002349     0.000322     0.000288 
Rotational constants in MHz :    70.428933     9.652594     8.620909 

 Dipole components along the rotational axes: 
x,y,z [a.u.] :    -1.787217     1.662463     1.474790 
x,y,z [Debye]:    -4.542746     4.225645     3.748617 

 

Timings for individual modules:

Sum of individual times         ...     2909.481 sec (=  48.491 min)
GTO integral calculation        ...        2.503 sec (=   0.042 min)   0.1 %
SCF iterations                  ...     2902.308 sec (=  48.372 min)  99.8 %
CIS module                      ...        4.670 sec (=   0.078 min)   0.2 %
                             ****ORCA TERMINATED NORMALLY****
TOTAL RUN TIME: 0 days 0 hours 48 minutes 31 seconds 45 msec
