
                                 *****************
                                 * O   R   C   A *
                                 *****************

           --- An Ab Initio, DFT and Semiempirical electronic structure package ---

                  #######################################################
                  #                        -***-                        #
                  #          Department of theory and spectroscopy      #
                  #               Directorship: Frank Neese             #
                  #        Max Planck Institute fuer Kohlenforschung    #
                  #                Kaiser Wilhelm Platz 1               #
                  #                 D-45470 Muelheim/Ruhr               #
                  #                      Germany                        #
                  #                                                     #
                  #                  All rights reserved                #
                  #                        -***-                        #
                  #######################################################


                         Program Version 4.2.0 -  RELEASE  -


 With contributions from (in alphabetic order):
   Daniel Aravena         : Magnetic Suceptibility
   Michael Atanasov       : Ab Initio Ligand Field Theory (pilot matlab implementation)
   Alexander A. Auer      : GIAO ZORA, VPT2
   Ute Becker             : Parallelization
   Giovanni Bistoni       : ED, misc. LED, open-shell LED, HFLED
   Martin Brehm           : Molecular dynamics
   Dmytro Bykov           : SCF Hessian
   Vijay G. Chilkuri      : MRCI spin determinant printing, contributions to CSF-ICE
   Dipayan Datta          : RHF DLPNO-CCSD density
   Achintya Kumar Dutta   : EOM-CC, STEOM-CC
   Dmitry Ganyushin       : Spin-Orbit,Spin-Spin,Magnetic field MRCI
   Miquel Garcia          : C-PCM Hessian, Gaussian charge scheme
   Yang Guo               : DLPNO-NEVPT2, CIM, IAO-localization
   Andreas Hansen         : Spin unrestricted coupled pair/coupled cluster methods
   Benjamin Helmich-Paris : CASSCF linear response (MC-RPA)
   Lee Huntington         : MR-EOM, pCC
   Robert Izsak           : Overlap fitted RIJCOSX, COSX-SCS-MP3, EOM
   Christian Kollmar      : KDIIS, OOCD, Brueckner-CCSD(T), CCSD density
   Simone Kossmann        : Meta GGA functionals, TD-DFT gradient, OOMP2, MP2 Hessian
   Martin Krupicka        : AUTO-CI
   Lucas Lang             : DCDCAS
   Dagmar Lenk            : GEPOL surface, SMD
   Dimitrios Liakos       : Extrapolation schemes; Compound Job, initial MDCI parallelization
   Dimitrios Manganas     : Further ROCIS development; embedding schemes
   Dimitrios Pantazis     : SARC Basis sets
   Taras Petrenko         : DFT Hessian,TD-DFT gradient, ASA, ECA, R-Raman, ABS, FL, XAS/XES, NRVS
   Peter Pinski           : DLPNO-MP2, DLPNO-MP2 Gradient
   Christoph Reimann      : Effective Core Potentials
   Marius Retegan         : Local ZFS, SOC
   Christoph Riplinger    : Optimizer, TS searches, QM/MM, DLPNO-CCSD(T), (RO)-DLPNO pert. Triples
   Tobias Risthaus        : Range-separated hybrids, TD-DFT gradient, RPA, STAB
   Michael Roemelt        : Original ROCIS implementation
   Masaaki Saitow         : Open-shell DLPNO-CCSD energy and density
   Barbara Sandhoefer     : DKH picture change effects
   Avijit Sen             : IP-ROCIS
   Kantharuban Sivalingam : CASSCF convergence, NEVPT2, FIC-MRCI
   Bernardo de Souza      : ESD, SOC TD-DFT
   Georgi Stoychev        : AutoAux, RI-MP2 NMR
   Willem Van den Heuvel  : Paramagnetic NMR
   Boris Wezisla          : Elementary symmetry handling
   Frank Wennmohs         : Technical directorship


 We gratefully acknowledge several colleagues who have allowed us to
 interface, adapt or use parts of their codes:
   Stefan Grimme, W. Hujo, H. Kruse,             : VdW corrections, initial TS optimization,
                  C. Bannwarth                     DFT functionals, gCP, sTDA/sTD-DF
   Ed Valeev, F. Pavosevic, A. Kumar             : LibInt (2-el integral package), F12 methods
   Garnet Chan, S. Sharma, J. Yang, R. Olivares  : DMRG
   Ulf Ekstrom                                   : XCFun DFT Library
   Mihaly Kallay                                 : mrcc  (arbitrary order and MRCC methods)
   Andreas Klamt, Michael Diedenhofen            : otool_cosmo (COSMO solvation model)
   Jiri Pittner, Ondrej Demel                    : Mk-CCSD
   Frank Weinhold                                : gennbo (NPA and NBO analysis)
   Christopher J. Cramer and Donald G. Truhlar   : smd solvation model
   Lars Goerigk                                  : TD-DFT with DH, B97 family of functionals
   V. Asgeirsson, H. Jonsson                     : NEB implementation
   FAccTs GmbH                                   : IRC, NEB, NEB-TS, Multilevel, MM, QM/MM, CI optimization
   S Lehtola, MJT Oliveira, MAL Marques          : LibXC Library


 Your calculation uses the libint2 library for the computation of 2-el integrals
 For citations please refer to: http://libint.valeyev.net

 Your ORCA version has been built with support for libXC version: 4.2.3
 For citations please refer to: https://tddft.org/programs/libxc/

 This ORCA versions uses:
   CBLAS   interface :  Fast vector & matrix operations
   LAPACKE interface :  Fast linear algebra routines
   SCALAPACK package :  Parallel linear algebra routines


XCFun DFT library Copyright 2009-2010 Ulf Ekstrom and contributors.
See http://admol.org/xcfun for more information. This is free soft-
ware; see the source code for copying conditions. There is ABSOLUTELY
NO WARRANTY; not even for MERCHANTABILITY or FITNESS FOR A PARTICULAR
PURPOSE. For details see the documentation. Scientific users of this 
library should cite U. Ekstrom, L. Visscher, R. Bast, A. J. Thorvald-
sen and K. Ruud; J.Chem.Theor.Comp. 2010, DOI: 10.1021/ct100117s
XCFun Version 0.99 
----- Orbital basis set information -----
Your calculation utilizes the basis: def2-SVP
   F. Weigend and R. Ahlrichs, Phys. Chem. Chem. Phys. 7, 3297 (2005).

----- AuxJ basis set information -----
Your calculation utilizes the auxiliary basis: def2/J
   F. Weigend, Phys. Chem. Chem. Phys. 8, 1057 (2006).

================================================================================
                                        WARNINGS
                       Please study these warnings very carefully!
================================================================================

INFO   : Checking CIS options ...

WARNING: CIS/ROCIS methods need fully converged wavefunctions
  ===> : Setting SCFConvForced true
         You can overwrite this default with %scf ConvForced false 


INFO   : the flag for use of LIBINT has been found!

================================================================================
                                       INPUT FILE
================================================================================
NAME = Y6.inp
|  1> # ORCA input file
|  2> # Y6.out: Geometry 184
|  3> ! CAM-B3LYP def2-SVP def2/J RIJCOSX Grid4 TightSCF
|  4> %maxcore 5000
|  5> %tddft
|  6>     Mode sTDDFT
|  7>     Ethresh 5.0
|  8>     maxcore 5000
|  9> end
| 10> * xyz 0 1
| 11>    C        2.66734         3.95000         1.81746
| 12>    O        2.70140         4.19135         0.62820
| 13>    C        1.96722         4.73311         2.86767
| 14>    C        1.23032         5.90147         2.71096
| 15>    C        0.66812         6.46740         3.84933
| 16>    F       -0.04883         7.58522         3.76940
| 17>    C        0.84907         5.86672         5.10953
| 18>    F        0.29260         6.45292         6.16751
| 19>    C        1.58046         4.68872         5.26353
| 20>    C        2.14479         4.10882         4.11927
| 21>    C        2.89282         2.83977         3.91260
| 22>    C        2.92844         1.77783         4.80123
| 23>    C        3.34024         0.47889         4.38339
| 24>    N        3.66087        -0.58030         4.02808
| 25>    C        2.47165         1.87998         6.15023
| 26>    N        2.12545         1.96749         7.25645
| 27>    C        3.35919         2.82347         2.53727
| 28>    C        4.24544         2.07391         1.79145
| 29>    C        5.32957         1.18553         2.03895
| 30>    S        5.82015         0.22939         0.61555
| 31>    C        7.19791        -0.38732         1.44991
| 32>    C        7.26449         0.11928         2.76613
| 33>    C        6.22834         1.01566         3.11454
| 34>    C        6.26119         1.84028         4.37329
| 35>    C        6.37122         1.04582         5.68196
| 36>    S        8.74293        -0.36263         3.60956
| 37>    C        9.27479        -1.19256         2.17212
| 38>    C        8.34048        -1.15385         1.12444
| 39>    N        8.89135        -1.71691        -0.01544
| 40>    C        8.30581        -1.43867        -1.32712
| 41>    C        8.73730        -0.09501        -1.90971
| 42>    C       10.20700        -2.07234         0.28610
| 43>    C       10.46292        -1.75281         1.65568
| 44>    C       11.79040        -1.82349         2.19290
| 45>    N       12.16355        -1.58475         3.44216
| 46>    S       13.81611        -1.69106         3.48056
| 47>    N       14.08581        -2.04072         1.88465
| 48>    C       12.90045        -2.08652         1.29294
| 49>    C       12.62512        -2.39906        -0.07855
| 50>    C       11.28557        -2.50994        -0.55079
| 51>    N       11.29888        -2.92669        -1.88893
| 52>    C       10.30744        -3.85605        -2.46167
| 53>    C        9.80341        -3.48881        -3.85246
| 54>    C       12.63723        -2.98106        -2.28038
| 55>    C       13.46124        -2.65605        -1.18857
| 56>    S       15.15812        -2.59384        -1.57738
| 57>    C       14.75991        -3.01573        -3.24639
| 58>    C       13.37702        -3.21565        -3.46146
| 59>    S       13.03243        -3.60279        -5.11144
| 60>    C       14.75549        -3.44606        -5.53540
| 61>    C       15.54854        -3.12211        -4.40032
| 62>    C       17.01807        -2.80267        -4.40546
| 63>    C       17.27746        -1.29137        -4.49402
| 64>    C       15.31533        -3.57307        -6.82656
| 65>    C       14.79600        -3.86545        -8.07614
| 66>    C       15.54332        -3.93750        -9.33480
| 67>    C       16.88234        -3.65436        -9.55260
| 68>    C       17.49679        -3.74735       -10.84000
| 69>    N       18.02180        -3.81006       -11.87500
| 70>    C       17.78380        -3.23561        -8.52390
| 71>    N       18.53807        -2.89977        -7.70456
| 72>    C       14.58867        -4.36717       -10.39284
| 73>    C       14.74844        -4.64376       -11.75863
| 74>    C       13.62918        -5.06856       -12.47349
| 75>    F       13.72869        -5.36061       -13.76697
| 76>    C       12.36784        -5.21371       -11.86934
| 77>    F       11.34878        -5.63414       -12.61165
| 78>    C       12.19633        -4.92746       -10.52235
| 79>    C       13.31594        -4.51592        -9.81172
| 80>    C       13.38319        -4.19424        -8.36982
| 81>    O       12.43402        -4.21520        -7.60301
| 82>    H        1.08945         6.36137         1.73145
| 83>    H        1.68442         4.26836         6.26290
| 84>    H        4.09880         2.28726         0.72194
| 85>    H        5.39161         2.50450         4.40808
| 86>    H        7.14106         2.50523         4.28836
| 87>    H        5.54105         0.33734         5.79978
| 88>    H        6.36489         1.73607         6.53885
| 89>    H        7.30374         0.46416         5.73327
| 90>    H        7.21423        -1.47311        -1.19484
| 91>    H        8.54970        -2.25110        -2.01308
| 92>    H        9.81456        -0.08831        -2.13564
| 93>    H        8.51679         0.72454        -1.20933
| 94>    H        8.18896         0.10148        -2.84363
| 95>    H        9.47691        -3.92063        -1.74756
| 96>    H       10.76525        -4.85981        -2.48214
| 97>    H        9.00792        -4.18874        -4.14923
| 98>    H       10.59328        -3.55948        -4.61195
| 99>    H        9.39567        -2.46767        -3.88537
|100>    H       17.53954        -3.30814        -5.22917
|101>    H       17.45740        -3.19869        -3.47496
|102>    H       16.88977        -0.88532        -5.44043
|103>    H       18.35657        -1.08116        -4.45267
|104>    H       16.78842        -0.75460        -3.66804
|105>    H       16.38742        -3.39213        -6.80328
|106>    H       15.69397        -4.54853       -12.28959
|107>    H       11.22402        -5.03760       -10.04041
|108> *
|109> 
|110>                          ****END OF INPUT****
================================================================================

                       ****************************
                       * Single Point Calculation *
                       ****************************

---------------------------------
CARTESIAN COORDINATES (ANGSTROEM)
---------------------------------
  C      2.667340    3.950000    1.817460
  O      2.701400    4.191350    0.628200
  C      1.967220    4.733110    2.867670
  C      1.230320    5.901470    2.710960
  C      0.668120    6.467400    3.849330
  F     -0.048830    7.585220    3.769400
  C      0.849070    5.866720    5.109530
  F      0.292600    6.452920    6.167510
  C      1.580460    4.688720    5.263530
  C      2.144790    4.108820    4.119270
  C      2.892820    2.839770    3.912600
  C      2.928440    1.777830    4.801230
  C      3.340240    0.478890    4.383390
  N      3.660870   -0.580300    4.028080
  C      2.471650    1.879980    6.150230
  N      2.125450    1.967490    7.256450
  C      3.359190    2.823470    2.537270
  C      4.245440    2.073910    1.791450
  C      5.329570    1.185530    2.038950
  S      5.820150    0.229390    0.615550
  C      7.197910   -0.387320    1.449910
  C      7.264490    0.119280    2.766130
  C      6.228340    1.015660    3.114540
  C      6.261190    1.840280    4.373290
  C      6.371220    1.045820    5.681960
  S      8.742930   -0.362630    3.609560
  C      9.274790   -1.192560    2.172120
  C      8.340480   -1.153850    1.124440
  N      8.891350   -1.716910   -0.015440
  C      8.305810   -1.438670   -1.327120
  C      8.737300   -0.095010   -1.909710
  C     10.207000   -2.072340    0.286100
  C     10.462920   -1.752810    1.655680
  C     11.790400   -1.823490    2.192900
  N     12.163550   -1.584750    3.442160
  S     13.816110   -1.691060    3.480560
  N     14.085810   -2.040720    1.884650
  C     12.900450   -2.086520    1.292940
  C     12.625120   -2.399060   -0.078550
  C     11.285570   -2.509940   -0.550790
  N     11.298880   -2.926690   -1.888930
  C     10.307440   -3.856050   -2.461670
  C      9.803410   -3.488810   -3.852460
  C     12.637230   -2.981060   -2.280380
  C     13.461240   -2.656050   -1.188570
  S     15.158120   -2.593840   -1.577380
  C     14.759910   -3.015730   -3.246390
  C     13.377020   -3.215650   -3.461460
  S     13.032430   -3.602790   -5.111440
  C     14.755490   -3.446060   -5.535400
  C     15.548540   -3.122110   -4.400320
  C     17.018070   -2.802670   -4.405460
  C     17.277460   -1.291370   -4.494020
  C     15.315330   -3.573070   -6.826560
  C     14.796000   -3.865450   -8.076140
  C     15.543320   -3.937500   -9.334800
  C     16.882340   -3.654360   -9.552600
  C     17.496790   -3.747350  -10.840000
  N     18.021800   -3.810060  -11.875000
  C     17.783800   -3.235610   -8.523900
  N     18.538070   -2.899770   -7.704560
  C     14.588670   -4.367170  -10.392840
  C     14.748440   -4.643760  -11.758630
  C     13.629180   -5.068560  -12.473490
  F     13.728690   -5.360610  -13.766970
  C     12.367840   -5.213710  -11.869340
  F     11.348780   -5.634140  -12.611650
  C     12.196330   -4.927460  -10.522350
  C     13.315940   -4.515920   -9.811720
  C     13.383190   -4.194240   -8.369820
  O     12.434020   -4.215200   -7.603010
  H      1.089450    6.361370    1.731450
  H      1.684420    4.268360    6.262900
  H      4.098800    2.287260    0.721940
  H      5.391610    2.504500    4.408080
  H      7.141060    2.505230    4.288360
  H      5.541050    0.337340    5.799780
  H      6.364890    1.736070    6.538850
  H      7.303740    0.464160    5.733270
  H      7.214230   -1.473110   -1.194840
  H      8.549700   -2.251100   -2.013080
  H      9.814560   -0.088310   -2.135640
  H      8.516790    0.724540   -1.209330
  H      8.188960    0.101480   -2.843630
  H      9.476910   -3.920630   -1.747560
  H     10.765250   -4.859810   -2.482140
  H      9.007920   -4.188740   -4.149230
  H     10.593280   -3.559480   -4.611950
  H      9.395670   -2.467670   -3.885370
  H     17.539540   -3.308140   -5.229170
  H     17.457400   -3.198690   -3.474960
  H     16.889770   -0.885320   -5.440430
  H     18.356570   -1.081160   -4.452670
  H     16.788420   -0.754600   -3.668040
  H     16.387420   -3.392130   -6.803280
  H     15.693970   -4.548530  -12.289590
  H     11.224020   -5.037600  -10.040410

----------------------------
CARTESIAN COORDINATES (A.U.)
----------------------------
  NO LB      ZA    FRAG     MASS         X           Y           Z
   0 C     6.0000    0    12.011    5.040542    7.464418    3.434502
   1 O     8.0000    0    15.999    5.104906    7.920504    1.187126
   2 C     6.0000    0    12.011    3.717507    8.944282    5.419111
   3 C     6.0000    0    12.011    2.324968   11.152162    5.122972
   4 C     6.0000    0    12.011    1.262564   12.221615    7.274179
   5 F     9.0000    0    18.998   -0.092275   14.333988    7.123134
   6 C     6.0000    0    12.011    1.604510   11.086494    9.655612
   7 F     9.0000    0    18.998    0.552934   12.194252   11.654905
   8 C     6.0000    0    12.011    2.986637    8.860397    9.946630
   9 C     6.0000    0    12.011    4.053066    7.764545    7.784292
  10 C     6.0000    0    12.011    5.466638    5.366388    7.393742
  11 C     6.0000    0    12.011    5.533950    3.359612    9.073010
  12 C     6.0000    0    12.011    6.312139    0.904971    8.283407
  13 N     7.0000    0    14.007    6.918042   -1.096608    7.611968
  14 C     6.0000    0    12.011    4.670742    3.552647   11.622250
  15 N     7.0000    0    14.007    4.016518    3.718017   13.712703
  16 C     6.0000    0    12.011    6.347949    5.335585    4.794745
  17 C     6.0000    0    12.011    8.022719    3.919122    3.385350
  18 C     6.0000    0    12.011   10.071428    2.240327    3.853057
  19 S    16.0000    0    32.060   10.998490    0.433484    1.163221
  20 C     6.0000    0    12.011   13.602079   -0.731929    2.739933
  21 C     6.0000    0    12.011   13.727897    0.225407    5.227228
  22 C     6.0000    0    12.011   11.769857    1.919319    5.885628
  23 C     6.0000    0    12.011   11.831934    3.477625    8.264320
  24 C     6.0000    0    12.011   12.039861    1.976313   10.737348
  25 S    16.0000    0    32.060   16.521743   -0.685271    6.821080
  26 C     6.0000    0    12.011   17.526813   -2.253612    4.104712
  27 C     6.0000    0    12.011   15.761223   -2.180460    2.124884
  28 N     7.0000    0    14.007   16.802216   -3.244490   -0.029177
  29 C     6.0000    0    12.011   15.695706   -2.718692   -2.507893
  30 C     6.0000    0    12.011   16.511104   -0.179543   -3.608829
  31 C     6.0000    0    12.011   19.288435   -3.916155    0.540651
  32 C     6.0000    0    12.011   19.772053   -3.312331    3.128782
  33 C     6.0000    0    12.011   22.280627   -3.445897    4.143980
  34 N     7.0000    0    14.007   22.985778   -2.994743    6.504740
  35 S    16.0000    0    32.060   26.108664   -3.195640    6.577305
  36 N     7.0000    0    14.007   26.618323   -3.856402    3.561472
  37 C     6.0000    0    12.011   24.378318   -3.942951    2.443303
  38 C     6.0000    0    12.011   23.858019   -4.533566   -0.148438
  39 C     6.0000    0    12.011   21.326637   -4.743099   -1.040842
  40 N     7.0000    0    14.007   21.351789   -5.530643   -3.569560
  41 C     6.0000    0    12.011   19.478239   -7.286878   -4.651882
  42 C     6.0000    0    12.011   18.525760   -6.592895   -7.280094
  43 C     6.0000    0    12.011   23.880904   -5.633387   -4.309294
  44 C     6.0000    0    12.011   25.438057   -5.019207   -2.246072
  45 S    16.0000    0    32.060   28.644696   -4.901647   -2.980816
  46 C     6.0000    0    12.011   27.892188   -5.698904   -6.134788
  47 C     6.0000    0    12.011   25.278904   -6.076698   -6.541211
  48 S    16.0000    0    32.060   24.627724   -6.808286   -9.659222
  49 C     6.0000    0    12.011   27.883835   -6.512110  -10.460390
  50 C     6.0000    0    12.011   29.382482   -5.899933   -8.315400
  51 C     6.0000    0    12.011   32.159492   -5.296279   -8.325113
  52 C     6.0000    0    12.011   32.649668   -2.440336   -8.492467
  53 C     6.0000    0    12.011   28.941779   -6.752124  -12.900329
  54 C     6.0000    0    12.011   27.960388   -7.304642  -15.261693
  55 C     6.0000    0    12.011   29.372618   -7.440797  -17.640216
  56 C     6.0000    0    12.011   31.902999   -6.905740  -18.051798
  57 C     6.0000    0    12.011   33.064141   -7.081465  -20.484631
  58 N     7.0000    0    14.007   34.056266   -7.199970  -22.440498
  59 C     6.0000    0    12.011   33.606512   -6.114417  -16.107837
  60 N     7.0000    0    14.007   35.031875   -5.479771  -14.559508
  61 C     6.0000    0    12.011   27.568591   -8.252755  -19.639621
  62 C     6.0000    0    12.011   27.870513   -8.775435  -22.220590
  63 C     6.0000    0    12.011   25.755418   -9.578190  -23.571480
  64 F     9.0000    0    18.998   25.943464  -10.130085  -26.015803
  65 C     6.0000    0    12.011   23.371830   -9.852484  -22.429802
  66 F     9.0000    0    18.998   21.446086  -10.646982  -23.832565
  67 C     6.0000    0    12.011   23.047724   -9.311550  -19.884360
  68 C     6.0000    0    12.011   25.163480   -8.533852  -18.541464
  69 C     6.0000    0    12.011   25.290564   -7.925965  -15.816668
  70 O     8.0000    0    15.999   23.496893   -7.965574  -14.367607
  71 H     1.0000    0     1.008    2.058762   12.021247    3.271966
  72 H     1.0000    0     1.008    3.183092    8.066031   11.835166
  73 H     1.0000    0     1.008    7.745609    4.322295    1.364269
  74 H     1.0000    0     1.008   10.188666    4.732819    8.330064
  75 H     1.0000    0     1.008   13.494648    4.734199    8.103826
  76 H     1.0000    0     1.008   10.471067    0.637480   10.959996
  77 H     1.0000    0     1.008   12.027899    3.280697   12.356636
  78 H     1.0000    0     1.008   13.802068    0.877135   10.834310
  79 H     1.0000    0     1.008   13.632919   -2.783774   -2.257920
  80 H     1.0000    0     1.008   16.156592   -4.253963   -3.804170
  81 H     1.0000    0     1.008   18.546831   -0.166882   -4.035775
  82 H     1.0000    0     1.008   16.094401    1.369182   -2.285303
  83 H     1.0000    0     1.008   15.474892    0.191769   -5.373682
  84 H     1.0000    0     1.008   17.908764   -7.408917   -3.302410
  85 H     1.0000    0     1.008   20.343374   -9.183710   -4.690565
  86 H     1.0000    0     1.008   17.022502   -7.915571   -7.840908
  87 H     1.0000    0     1.008   20.018398   -6.726442   -8.715322
  88 H     1.0000    0     1.008   17.755243   -4.663220   -7.342285
  89 H     1.0000    0     1.008   33.144927   -6.251479   -9.881699
  90 H     1.0000    0     1.008   32.989705   -6.044648   -6.566723
  91 H     1.0000    0     1.008   31.917040   -1.673012  -10.280923
  92 H     1.0000    0     1.008   34.688890   -2.043096   -8.414327
  93 H     1.0000    0     1.008   31.725516   -1.425987   -6.931591
  94 H     1.0000    0     1.008   30.967736   -6.410197  -12.856336
  95 H     1.0000    0     1.008   29.657305   -8.595476  -23.223959
  96 H     1.0000    0     1.008   21.210324   -9.519684  -18.973625

--------------------------------
INTERNAL COORDINATES (ANGSTROEM)
--------------------------------
 C      0   0   0     0.000000000000     0.00000000     0.00000000
 O      1   0   0     1.213980746841     0.00000000     0.00000000
 C      1   2   0     1.485385583140   126.94450499     0.00000000
 C      3   1   2     1.390195929968   127.82302000   359.01224944
 C      4   3   1     1.390047431493   117.66058006   180.44201176
 F      5   4   3     1.330386282175   120.71946705   180.00387412
 C      5   4   3     1.407715669054   120.49164645     0.05862261
 F      7   5   4     1.331394374819   118.01936727   179.77954147
 C      7   5   4     1.395109792131   121.76976063   359.44779153
 C      9   7   5     1.401457565002   118.05798758     0.23365142
 C     10   9   7     1.487531267671   131.98511639   184.41890387
 C     11  10   9     1.385152924734   125.29983282    16.13125717
 C     12  11  10     1.425277035948   121.20192620   162.06624225
 N     13  12  11     1.162296110765   178.96259926   302.60182400
 C     12  11  10     1.427898009873   122.88938761   346.69902711
 N     15  12  11     1.162426397025   178.65735056   263.36100336
 C     11  10   9     1.452342685388   107.61508768   185.91135870
 C     17  11  10     1.379683561002   136.40873289   167.83945582
 C     18  17  11     1.423310623617   137.25478632   341.95022807
 S     19  18  17     1.783518992329   113.91293968   165.86285370
 C     20  19  18     1.724734893049    91.45177460   172.23725460
 C     21  20  19     1.411917683436   111.12141103     0.32910933
 C     19  18  17     1.411926760813   133.82224623   335.62230651
 C     23  19  18     1.505167375876   125.80669460   358.86972885
 C     24  23  19     1.534891025904   115.53240755   133.66345708
 S     22  21  20     1.769009962267   112.71398046   185.48849630
 C     26  22  21     1.742955139440    89.51488922     1.69739430
 C     27  26  22     1.404303038023   113.52387837   357.33462398
 N     28  27  26     1.385575957824   109.75758289   174.11425021
 C     29  28  27     1.463140120289   120.07475044   198.81338635
 C     30  29  28     1.526766820376   113.34966814    80.58463673
 C     29  28  27     1.395776407237   107.48788118   357.68913349
 C     27  26  22     1.411468466881   138.38460023   165.69584249
 C     33  27  26     1.433807567702   131.43886847   359.04957160
 N     34  33  27     1.325476615297   127.22176331    13.80875560
 S     35  34  33     1.656421120881   106.92709714   184.53688803
 N     36  35  34     1.655877088947    98.84165998     0.23979172
 C     37  36  35     1.325630677715   106.96886038   359.77749478
 C     38  37  36     1.433343183121   127.32939043   182.21707630
 C     39  38  37     1.424675118931   120.98077150   175.12645645
 N     40  39  38     1.401597794733   109.30987537   184.75928627
 C     41  40  39     1.474684505513   123.49050750   142.86466548
 C     42  41  40     1.524207427682   115.14208167   138.10077249
 C     41  40  39     1.395481967601   106.76843779   355.76080646
 C     44  41  40     1.405942052967   109.58788366     2.36318872
 S     45  44  41     1.741965853454   113.94414348   183.55271582
 C     46  45  44     1.766962579202    89.01276642   359.93459321
 C     44  41  40     1.413248625897   137.98192665   185.57588018
 S     48  44  41     1.729466289958   136.90053547   358.58003545
 C     49  48  44     1.781359631882    90.83878234   174.40755651
 C     47  46  45     1.401716243111   131.98355409   175.19660929
 C     51  47  46     1.503857291800   122.44352765   357.18702571
 C     52  51  47     1.535953689308   111.97644024   279.78134070
 C     50  49  48     1.413027427653   126.35564680   182.86548830
 C     54  50  49     1.384427639749   134.03611447   358.15637177
 C     55  54  50     1.465572714163   126.46043657   179.07306639
 C     56  55  54     1.385849797056   128.14206859   355.71129195
 C     57  56  55     1.429543529453   122.92503661   180.78939583
 N     58  57  56     1.162236225644   178.48019175   171.90239239
 C     57  56  55     1.430456355189   123.75785136     0.44423891
 N     60  57  56     1.163198080337   178.63554245   167.04695592
 C     56  55  54     1.488429230095   107.31505924   176.39111740
 C     62  56  55     1.402644219002   132.53440412   182.47018036
 C     63  62  56     1.394353903139   117.89506053   178.22949501
 F     64  63  62     1.329769135226   120.36670045   180.85648705
 C     64  63  62     1.406074087877   122.08975672     0.44294071
 F     66  64  63     1.329010460681   118.71931391   180.56139478
 C     66  64  63     1.387709192410   120.44028538     0.30486813
 C     68  66  64     1.388483604729   117.27521647   359.16580779
 C     69  68  66     1.478876666561   126.88028361   181.78636398
 O     70  69  68     1.220393619534   124.99580723   357.95917284
 H      4   3   1     1.091234258535   121.58815406     0.74617840
 H      9   7   5     1.089151324702   118.50370988   180.17882454
 H     18  17  11     1.100396815790   109.53997055   167.01376510
 H     24  23  19     1.094791271841   109.97629961     8.27437414
 H     24  23  19     1.106138700299   106.40904471   254.32001068
 H     25  24  23     1.097728423473   111.79954807   301.71241141
 H     25  24  23     1.100338858489   109.80790295   181.25710533
 H     25  24  23     1.100252072073   111.97202344    61.95750563
 H     30  29  28     1.100104998807   106.45986596   318.61687333
 H     30  29  28     1.090901443119   109.42762867   204.58112578
 H     31  30  29     1.100717203690   111.11701214    65.93109131
 H     31  30  29     1.100372212935   110.85219401   304.81629526
 H     31  30  29     1.100677810306   109.88203455   185.64660648
 H     42  41  40     1.097225477921   107.05051303    14.23232222
 H     42  41  40     1.103423379578   107.55089579   260.90162818
 H     43  42  41     1.100353933014   109.38418695   185.03570489
 H     43  42  41     1.098050056191   112.19425241    66.44856416
 H     43  42  41     1.100028124777   111.93350950   305.10371372
 H     52  51  47     1.098148007283   111.64255011   156.93788970
 H     52  51  47     1.102575593463   108.07032155    40.53920598
 H     53  52  51     1.100396304383   110.68138417   297.09255944
 H     53  52  51     1.100171104283   110.57799874   177.57523228
 H     53  52  51     1.099784121953   111.21299143    57.15952261
 H     54  50  49     1.087500901195   110.85895198   177.83617648
 H     63  62  56     1.088583600556   123.82268296   358.40434746
 H     68  66  64     1.090772074863   121.21227793   180.12676003

---------------------------
INTERNAL COORDINATES (A.U.)
---------------------------
 C      0   0   0     0.000000000000     0.00000000     0.00000000
 O      1   0   0     2.294091143382     0.00000000     0.00000000
 C      1   2   0     2.806971955409   126.94450499     0.00000000
 C      3   1   2     2.627089580132   127.82302000   359.01224944
 C      4   3   1     2.626808958682   117.66058006   180.44201176
 F      5   4   3     2.514065725637   120.71946705   180.00387412
 C      5   4   3     2.660197088942   120.49164645     0.05862261
 F      7   5   4     2.515970744651   118.01936727   179.77954147
 C      7   5   4     2.636375433880   121.76976063   359.44779153
 C      9   7   5     2.648370986165   118.05798758     0.23365142
 C     10   9   7     2.811026711544   131.98511639   184.41890387
 C     11  10   9     2.617559681348   125.29983282    16.13125717
 C     12  11  10     2.693383262908   121.20192620   162.06624225
 N     13  12  11     2.196421335868   178.96259926   302.60182400
 C     12  11  10     2.698336185832   122.88938761   346.69902711
 N     15  12  11     2.196667541218   178.65735056   263.36100336
 C     11  10   9     2.744529927987   107.61508768   185.91135870
 C     17  11  10     2.607224081768   136.40873289   167.83945582
 C     18  17  11     2.689667282136   137.25478632   341.95022807
 S     19  18  17     3.370362450150   113.91293968   165.86285370
 C     20  19  18     3.259276601480    91.45177460   172.23725460
 C     21  20  19     2.668137745335   111.12141103     0.32910933
 C     19  18  17     2.668154899091   133.82224623   335.62230651
 C     23  19  18     2.844354126118   125.80669460   358.86972885
 C     24  23  19     2.900523684372   115.53240755   133.66345708
 S     22  21  20     3.342944356863   112.71398046   185.48849630
 C     26  22  21     3.293707877252    89.51488922     1.69739430
 C     27  26  22     2.653748150897   113.52387837   357.33462398
 N     28  27  26     2.618359098033   109.75758289   174.11425021
 C     29  28  27     2.764934122899   120.07475044   198.81338635
 C     30  29  28     2.885171160868   113.34966814    80.58463673
 C     29  28  27     2.637635153867   107.48788118   357.68913349
 C     27  26  22     2.667288849071   138.38460023   165.69584249
 C     33  27  26     2.709503631701   131.43886847   359.04957160
 N     34  33  27     2.504787799829   127.22176331    13.80875560
 S     35  34  33     3.130182280908   106.92709714   184.53688803
 N     36  35  34     3.129154209545    98.84165998     0.23979172
 C     37  36  35     2.505078935606   106.96886038   359.77749478
 C     38  37  36     2.708626072022   127.32939043   182.21707630
 C     39  38  37     2.692245804591   120.98077150   175.12645645
 N     40  39  38     2.648635981953   109.30987537   184.75928627
 C     41  40  39     2.786749849357   123.49050750   142.86466548
 C     42  41  40     2.880334609607   115.14208167   138.10077249
 C     41  40  39     2.637078743592   106.76843779   355.76080646
 C     44  41  40     2.656845440270   109.58788366     2.36318872
 S     45  44  41     3.291838397671   113.94414348   183.55271582
 C     46  45  44     3.339075363579    89.01276642   359.93459321
 C     44  41  40     2.670652862086   137.98192665   185.57588018
 S     48  44  41     3.268217645869   136.90053547   358.58003545
 C     49  48  44     3.366281850280    90.83878234   174.40755651
 C     47  46  45     2.648859816948   131.98355409   175.19660929
 C     51  47  46     2.841878426002   122.44352765   357.18702571
 C     52  51  47     2.902531827179   111.97644024   279.78134070
 C     50  49  48     2.670234857984   126.35564680   182.86548830
 C     54  50  49     2.616189091356   134.03611447   358.15637177
 C     55  54  50     2.769531059116   126.46043657   179.07306639
 C     56  55  54     2.618876579186   128.14206859   355.71129195
 C     57  56  55     2.701445767185   122.92503661   180.78939583
 N     58  57  56     2.196308169390   178.48019175   171.90239239
 C     57  56  55     2.703170757834   123.75785136     0.44423891
 N     60  57  56     2.198125811340   178.63554245   167.04695592
 C     56  55  54     2.812723614602   107.31505924   176.39111740
 C     62  56  55     2.650613437242   132.53440412   182.47018036
 C     63  62  56     2.634947010698   117.89506053   178.22949501
 F     64  63  62     2.512899486919   120.36670045   180.85648705
 C     64  63  62     2.657094950091   122.08975672     0.44294071
 F     66  64  63     2.511465799804   118.71931391   180.56139478
 C     66  64  63     2.622390327180   120.44028538     0.30486813
 C     68  66  64     2.623853754377   117.27521647   359.16580779
 C     69  68  66     2.794671885648   126.88028361   181.78636398
 O     70  69  68     2.306209716505   124.99580723   357.95917284
 H      4   3   1     2.062133896583   121.58815406     0.74617840
 H      9   7   5     2.058197722084   118.50370988   180.17882454
 H     18  17  11     2.079448620481   109.53997055   167.01376510
 H     24  23  19     2.068855677587   109.97629961     8.27437414
 H     24  23  19     2.090299209697   106.40904471   254.32001068
 H     25  24  23     2.074406089785   111.79954807   301.71241141
 H     25  24  23     2.079339097055   109.80790295   181.25710533
 H     25  24  23     2.079175094497   111.97202344    61.95750563
 H     30  29  28     2.078897166303   106.45986596   318.61687333
 H     30  29  28     2.061504966595   109.42762867   204.58112578
 H     31  30  29     2.080054065870   111.11701214    65.93109131
 H     31  30  29     2.079402127824   110.85219401   304.81629526
 H     31  30  29     2.079979623162   109.88203455   185.64660648
 H     42  41  40     2.073455660432   107.05051303    14.23232222
 H     42  41  40     2.085167997169   107.55089579   260.90162818
 H     43  42  41     2.079367583780   109.38418695   185.03570489
 H     43  42  41     2.075013887537   112.19425241    66.44856416
 H     43  42  41     2.078751895439   111.93350950   305.10371372
 H     52  51  47     2.075198988277   111.64255011   156.93788970
 H     52  51  47     2.083565913591   108.07032155    40.53920598
 H     53  52  51     2.079447654063   110.68138417   297.09255944
 H     53  52  51     2.079022087549   110.57799874   177.57523228
 H     53  52  51     2.078290796926   111.21299143    57.15952261
 H     54  50  49     2.055078873651   110.85895198   177.83617648
 H     63  62  56     2.057124878929   123.82268296   358.40434746
 H     68  66  64     2.061260496019   121.21227793   180.12676003

---------------------
BASIS SET INFORMATION
---------------------
There are 6 groups of distinct atoms

 Group   1 Type C   : 7s4p1d contracted to 3s2p1d pattern {511/31/1}
 Group   2 Type O   : 7s4p1d contracted to 3s2p1d pattern {511/31/1}
 Group   3 Type F   : 7s4p1d contracted to 3s2p1d pattern {511/31/1}
 Group   4 Type N   : 7s4p1d contracted to 3s2p1d pattern {511/31/1}
 Group   5 Type S   : 10s7p1d contracted to 4s3p1d pattern {5311/511/1}
 Group   6 Type H   : 4s1p contracted to 2s1p pattern {31/1}

Atom   0C    basis set group =>   1
Atom   1O    basis set group =>   2
Atom   2C    basis set group =>   1
Atom   3C    basis set group =>   1
Atom   4C    basis set group =>   1
Atom   5F    basis set group =>   3
Atom   6C    basis set group =>   1
Atom   7F    basis set group =>   3
Atom   8C    basis set group =>   1
Atom   9C    basis set group =>   1
Atom  10C    basis set group =>   1
Atom  11C    basis set group =>   1
Atom  12C    basis set group =>   1
Atom  13N    basis set group =>   4
Atom  14C    basis set group =>   1
Atom  15N    basis set group =>   4
Atom  16C    basis set group =>   1
Atom  17C    basis set group =>   1
Atom  18C    basis set group =>   1
Atom  19S    basis set group =>   5
Atom  20C    basis set group =>   1
Atom  21C    basis set group =>   1
Atom  22C    basis set group =>   1
Atom  23C    basis set group =>   1
Atom  24C    basis set group =>   1
Atom  25S    basis set group =>   5
Atom  26C    basis set group =>   1
Atom  27C    basis set group =>   1
Atom  28N    basis set group =>   4
Atom  29C    basis set group =>   1
Atom  30C    basis set group =>   1
Atom  31C    basis set group =>   1
Atom  32C    basis set group =>   1
Atom  33C    basis set group =>   1
Atom  34N    basis set group =>   4
Atom  35S    basis set group =>   5
Atom  36N    basis set group =>   4
Atom  37C    basis set group =>   1
Atom  38C    basis set group =>   1
Atom  39C    basis set group =>   1
Atom  40N    basis set group =>   4
Atom  41C    basis set group =>   1
Atom  42C    basis set group =>   1
Atom  43C    basis set group =>   1
Atom  44C    basis set group =>   1
Atom  45S    basis set group =>   5
Atom  46C    basis set group =>   1
Atom  47C    basis set group =>   1
Atom  48S    basis set group =>   5
Atom  49C    basis set group =>   1
Atom  50C    basis set group =>   1
Atom  51C    basis set group =>   1
Atom  52C    basis set group =>   1
Atom  53C    basis set group =>   1
Atom  54C    basis set group =>   1
Atom  55C    basis set group =>   1
Atom  56C    basis set group =>   1
Atom  57C    basis set group =>   1
Atom  58N    basis set group =>   4
Atom  59C    basis set group =>   1
Atom  60N    basis set group =>   4
Atom  61C    basis set group =>   1
Atom  62C    basis set group =>   1
Atom  63C    basis set group =>   1
Atom  64F    basis set group =>   3
Atom  65C    basis set group =>   1
Atom  66F    basis set group =>   3
Atom  67C    basis set group =>   1
Atom  68C    basis set group =>   1
Atom  69C    basis set group =>   1
Atom  70O    basis set group =>   2
Atom  71H    basis set group =>   6
Atom  72H    basis set group =>   6
Atom  73H    basis set group =>   6
Atom  74H    basis set group =>   6
Atom  75H    basis set group =>   6
Atom  76H    basis set group =>   6
Atom  77H    basis set group =>   6
Atom  78H    basis set group =>   6
Atom  79H    basis set group =>   6
Atom  80H    basis set group =>   6
Atom  81H    basis set group =>   6
Atom  82H    basis set group =>   6
Atom  83H    basis set group =>   6
Atom  84H    basis set group =>   6
Atom  85H    basis set group =>   6
Atom  86H    basis set group =>   6
Atom  87H    basis set group =>   6
Atom  88H    basis set group =>   6
Atom  89H    basis set group =>   6
Atom  90H    basis set group =>   6
Atom  91H    basis set group =>   6
Atom  92H    basis set group =>   6
Atom  93H    basis set group =>   6
Atom  94H    basis set group =>   6
Atom  95H    basis set group =>   6
Atom  96H    basis set group =>   6
---------------------------------
AUXILIARY/J BASIS SET INFORMATION
---------------------------------
There are 6 groups of distinct atoms

 Group   1 Type C   : 12s5p4d2f1g contracted to 6s4p3d1f1g pattern {711111/2111/211/2/1}
 Group   2 Type O   : 12s5p4d2f1g contracted to 6s4p3d1f1g pattern {711111/2111/211/2/1}
 Group   3 Type F   : 12s5p4d2f1g contracted to 6s4p3d1f1g pattern {711111/2111/211/2/1}
 Group   4 Type N   : 12s5p4d2f1g contracted to 6s4p3d1f1g pattern {711111/2111/211/2/1}
 Group   5 Type S   : 14s5p5d2f1g contracted to 8s4p3d1f1g pattern {71111111/2111/311/2/1}
 Group   6 Type H   : 5s2p1d contracted to 3s1p1d pattern {311/2/1}

Atom   0C    basis set group =>   1
Atom   1O    basis set group =>   2
Atom   2C    basis set group =>   1
Atom   3C    basis set group =>   1
Atom   4C    basis set group =>   1
Atom   5F    basis set group =>   3
Atom   6C    basis set group =>   1
Atom   7F    basis set group =>   3
Atom   8C    basis set group =>   1
Atom   9C    basis set group =>   1
Atom  10C    basis set group =>   1
Atom  11C    basis set group =>   1
Atom  12C    basis set group =>   1
Atom  13N    basis set group =>   4
Atom  14C    basis set group =>   1
Atom  15N    basis set group =>   4
Atom  16C    basis set group =>   1
Atom  17C    basis set group =>   1
Atom  18C    basis set group =>   1
Atom  19S    basis set group =>   5
Atom  20C    basis set group =>   1
Atom  21C    basis set group =>   1
Atom  22C    basis set group =>   1
Atom  23C    basis set group =>   1
Atom  24C    basis set group =>   1
Atom  25S    basis set group =>   5
Atom  26C    basis set group =>   1
Atom  27C    basis set group =>   1
Atom  28N    basis set group =>   4
Atom  29C    basis set group =>   1
Atom  30C    basis set group =>   1
Atom  31C    basis set group =>   1
Atom  32C    basis set group =>   1
Atom  33C    basis set group =>   1
Atom  34N    basis set group =>   4
Atom  35S    basis set group =>   5
Atom  36N    basis set group =>   4
Atom  37C    basis set group =>   1
Atom  38C    basis set group =>   1
Atom  39C    basis set group =>   1
Atom  40N    basis set group =>   4
Atom  41C    basis set group =>   1
Atom  42C    basis set group =>   1
Atom  43C    basis set group =>   1
Atom  44C    basis set group =>   1
Atom  45S    basis set group =>   5
Atom  46C    basis set group =>   1
Atom  47C    basis set group =>   1
Atom  48S    basis set group =>   5
Atom  49C    basis set group =>   1
Atom  50C    basis set group =>   1
Atom  51C    basis set group =>   1
Atom  52C    basis set group =>   1
Atom  53C    basis set group =>   1
Atom  54C    basis set group =>   1
Atom  55C    basis set group =>   1
Atom  56C    basis set group =>   1
Atom  57C    basis set group =>   1
Atom  58N    basis set group =>   4
Atom  59C    basis set group =>   1
Atom  60N    basis set group =>   4
Atom  61C    basis set group =>   1
Atom  62C    basis set group =>   1
Atom  63C    basis set group =>   1
Atom  64F    basis set group =>   3
Atom  65C    basis set group =>   1
Atom  66F    basis set group =>   3
Atom  67C    basis set group =>   1
Atom  68C    basis set group =>   1
Atom  69C    basis set group =>   1
Atom  70O    basis set group =>   2
Atom  71H    basis set group =>   6
Atom  72H    basis set group =>   6
Atom  73H    basis set group =>   6
Atom  74H    basis set group =>   6
Atom  75H    basis set group =>   6
Atom  76H    basis set group =>   6
Atom  77H    basis set group =>   6
Atom  78H    basis set group =>   6
Atom  79H    basis set group =>   6
Atom  80H    basis set group =>   6
Atom  81H    basis set group =>   6
Atom  82H    basis set group =>   6
Atom  83H    basis set group =>   6
Atom  84H    basis set group =>   6
Atom  85H    basis set group =>   6
Atom  86H    basis set group =>   6
Atom  87H    basis set group =>   6
Atom  88H    basis set group =>   6
Atom  89H    basis set group =>   6
Atom  90H    basis set group =>   6
Atom  91H    basis set group =>   6
Atom  92H    basis set group =>   6
Atom  93H    basis set group =>   6
Atom  94H    basis set group =>   6
Atom  95H    basis set group =>   6
Atom  96H    basis set group =>   6
------------------------------------------------------------------------------
                           ORCA GTO INTEGRAL CALCULATION
                           -- RI-GTO INTEGRALS CHOSEN --
------------------------------------------------------------------------------

                         BASIS SET STATISTICS AND STARTUP INFO

Gaussian basis set:
 # of primitive gaussian shells          ... 1012
 # of primitive gaussian functions       ... 1946
 # of contracted shells                  ...  514
 # of contracted basis functions         ... 1144
 Highest angular momentum                ...    2
 Maximum contraction depth               ...    5
Auxiliary gaussian basis set:
 # of primitive gaussian shells          ... 1927
 # of primitive gaussian functions       ... 5421
 # of contracted shells                  ... 1205
 # of contracted aux-basis functions     ... 3775
 Highest angular momentum                ...    4
 Maximum contraction depth               ...    7
Ratio of auxiliary to basis functions    ...  3.30
Integral package used                  ... LIBINT
 One Electron integrals                  ... done
 Ordering auxiliary basis shells         ... done
 Integral threshhold             Thresh  ...  2.500e-11
 Primitive cut-off               TCut    ...  2.500e-12
 Pre-screening matrix                    ... done
 Shell pair data                         ... 
 Ordering of the shell pairs             ... done (   0.010 sec) 45591 of 132355 pairs
 Determination of significant pairs      ... done (   0.000 sec)
 Creation of shell pair data             ... done (   0.007 sec)
 Storage of shell pair data              ... done (   0.010 sec)
 Shell pair data done in (   0.027 sec)
 Computing two index integrals           ... done
 Cholesky decomposition of the V-matrix  ... done


Timings:
 Total evaluation time                   ...   2.073 sec (  0.035 min)
 One electron matrix time                ...   0.537 sec (  0.009 min) = 25.9%
 Schwartz matrix evaluation time         ...   0.671 sec (  0.011 min) = 32.4%
 Two index repulsion integral time       ...   0.348 sec (  0.006 min) = 16.8%
 Cholesky decomposition of V             ...   0.472 sec (  0.008 min) = 22.8%
 Three index repulsion integral time     ...   0.000 sec (  0.000 min) =  0.0%

-------------------------------------------------------------------------------
                                 ORCA SCF
-------------------------------------------------------------------------------

------------
SCF SETTINGS
------------
Hamiltonian:
 Density Functional     Method          .... DFT(GTOs)
 Exchange Functional    Exchange        .... WB88
 Correlation Functional Correlation     .... LYP
 LDA part of GGA corr.  LDAOpt          .... VWN-5
 Gradients option       PostSCFGGA      .... off
 Hybrid DFT is turned on
   Fraction HF Exchange ScalHFX         ....  0.190000
   Scaling of DF-GGA-X  ScalDFX         ....  0.350000
   Scaling of DF-GGA-C  ScalDFC         ....  0.810000
   Scaling of DF-LDA-C  ScalLDAC        ....  1.000000
   Perturbative correction              ....  0.000000
   Density functional embedding theory  .... OFF
 Long-range corrected/Screened/Range-Separated Hybrid DFT is turned on
   Amount of maximum screened exact exchange              ....  0.460000
   Range separation parameter mu (erf(mu*r12)/r12)        ....  0.330000
 RI-approximation to the Coulomb term is turned on
   Number of auxiliary basis functions  .... 3775
   RIJ-COSX (HFX calculated with COS-X)).... on


General Settings:
 Integral files         IntName         .... Y6
 Hartree-Fock type      HFTyp           .... RHF
 Total Charge           Charge          ....    0
 Multiplicity           Mult            ....    1
 Number of Electrons    NEL             ....  526
 Basis Dimension        Dim             .... 1144
 Nuclear Repulsion      ENuc            ....  10878.1330512977 Eh

Convergence Acceleration:
 DIIS                   CNVDIIS         .... on
   Start iteration      DIISMaxIt       ....    12
   Startup error        DIISStart       ....  0.200000
   # of expansion vecs  DIISMaxEq       ....     5
   Bias factor          DIISBfac        ....   1.050
   Max. coefficient     DIISMaxC        ....  10.000
 Newton-Raphson         CNVNR           .... off
 SOSCF                  CNVSOSCF        .... on
   Start iteration      SOSCFMaxIt      ....   150
   Startup grad/error   SOSCFStart      ....  0.003300
 Level Shifting         CNVShift        .... on
   Level shift para.    LevelShift      ....    0.2500
   Turn off err/grad.   ShiftErr        ....    0.0010
 Zerner damping         CNVZerner       .... off
 Static damping         CNVDamp         .... on
   Fraction old density DampFac         ....    0.7000
   Max. Damping (<1)    DampMax         ....    0.9800
   Min. Damping (>=0)   DampMin         ....    0.0000
   Turn off err/grad.   DampErr         ....    0.1000
 Fernandez-Rico         CNVRico         .... off

SCF Procedure:
 Maximum # iterations   MaxIter         ....   125
 SCF integral mode      SCFMode         .... Direct
   Integral package                     .... LIBINT
 Reset frequency        DirectResetFreq ....    20
 Integral Threshold     Thresh          ....  2.500e-11 Eh
 Primitive CutOff       TCut            ....  2.500e-12 Eh

Convergence Tolerance:
 Convergence Check Mode ConvCheckMode   .... Total+1el-Energy
 Convergence forced     ConvForced      .... 1
 Energy Change          TolE            ....  1.000e-08 Eh
 1-El. energy change                    ....  1.000e-05 Eh
 Orbital Gradient       TolG            ....  1.000e-05
 Orbital Rotation angle TolX            ....  1.000e-05
 DIIS Error             TolErr          ....  5.000e-07


Diagonalization of the overlap matrix:
Smallest eigenvalue                        ... 1.158e-04
Time for diagonalization                   ...    0.309 sec
Threshold for overlap eigenvalues          ... 1.000e-08
Number of eigenvalues below threshold      ... 0
Time for construction of square roots      ...    0.132 sec
Total time needed                          ...    0.446 sec

-------------------
DFT GRID GENERATION
-------------------

General Integration Accuracy     IntAcc      ...  4.670
Radial Grid Type                 RadialGrid  ... Gauss-Chebyshev
Angular Grid (max. acc.)         AngularGrid ... Lebedev-302
Angular grid pruning method      GridPruning ... 3 (G Style)
Weight generation scheme         WeightScheme... Becke
Basis function cutoff            BFCut       ...    1.0000e-11
Integration weight cutoff        WCut        ...    1.0000e-14
Grids for H and He will be reduced by one unit

# of grid points (after initial pruning)     ... 532706 (   1.2 sec)
# of grid points (after weights+screening)   ... 455016 (  21.6 sec)
nearest neighbour list constructed           ...    0.0 sec
Grid point re-assignment to atoms done       ...    0.1 sec
Grid point division into batches done        ...    1.7 sec
Reduced shell lists constructed in    8.0 sec

Total number of grid points                  ...   455016
Total number of batches                      ...     7158
Average number of points per batch           ...       63
Average number of grid points per atom       ...     4691
Average number of shells per batch           ...    96.06 (18.69%)
Average number of basis functions per batch  ...   199.60 (17.45%)
Average number of large shells per batch     ...    57.78 (60.15%)
Average number of large basis fcns per batch ...   121.67 (60.96%)
Maximum spatial batch extension              ...  20.65, 22.86, 23.45 au
Average spatial batch extension              ...   2.12,  2.27,  2.07 au

Time for grid setup =   30.819 sec

------------------------------
INITIAL GUESS: MODEL POTENTIAL
------------------------------
Loading Hartree-Fock densities                     ... done
Calculating cut-offs                               ... done
Setting up the integral package                    ... done
Initializing the effective Hamiltonian             ... done
Starting the Coulomb interaction                   ... done (   8.2 sec)
Reading the grid                                   ... done
Mapping shells                                     ... done
Starting the XC term evaluation                    ... done (   8.2 sec)
  promolecular density results
     # of electrons  =    525.989382460
     EX              =   -506.763729101
     EC              =    -18.338176924
     EX+EC           =   -525.101906025
Transforming the Hamiltonian                       ... done (   0.1 sec)
Diagonalizing the Hamiltonian                      ... done (   0.3 sec)
Back transforming the eigenvectors                 ... done (   0.0 sec)
Now organizing SCF variables                       ... done
                      ------------------
                      INITIAL GUESS DONE (  47.9 sec)
                      ------------------
--------------------
COSX GRID GENERATION
--------------------

General Integration Accuracy     IntAcc      ...  3.340
Radial Grid Type                 RadialGrid  ... Gauss-Chebyshev
Angular Grid (max. acc.)         AngularGrid ... Lebedev-50
Angular grid pruning method      GridPruning ... 3 (G Style)
Weight generation scheme         WeightScheme... Becke
Basis function cutoff            BFCut       ...    1.0000e-11
Integration weight cutoff        WCut        ...    1.0000e-14
Grids for H and He will be reduced by one unit

# of grid points (after initial pruning)     ...  50018 (   0.1 sec)
# of grid points (after weights+screening)   ...  44744 (   2.0 sec)
nearest neighbour list constructed           ...    0.0 sec
Grid point re-assignment to atoms done       ...    0.0 sec
Grid point division into batches done        ...    0.0 sec
Reduced shell lists constructed in    0.8 sec

Total number of grid points                  ...    44744
Total number of batches                      ...      753
Average number of points per batch           ...       59
Average number of grid points per atom       ...      461
Average number of shells per batch           ...   117.52 (22.86%)
Average number of basis functions per batch  ...   247.19 (21.61%)
Average number of large shells per batch     ...    71.05 (60.46%)
Average number of large basis fcns per batch ...   151.85 (61.43%)
Maximum spatial batch extension              ...  27.78, 24.51, 19.28 au
Average spatial batch extension              ...   4.31,  4.93,  3.97 au

Overlap Fitting                  UseSFitting ... on
Constructing numerical overlap ... done (      0.6 sec)
Inverting numerical overlap    ... done (      0.0 sec)
Obtaining analytic overlap     ... done (      0.0 sec)
Final contraction and storage  ... done (      0.1 sec)


General Integration Accuracy     IntAcc      ...  3.670
Radial Grid Type                 RadialGrid  ... Gauss-Chebyshev
Angular Grid (max. acc.)         AngularGrid ... Lebedev-50
Angular grid pruning method      GridPruning ... 3 (G Style)
Weight generation scheme         WeightScheme... Becke
Basis function cutoff            BFCut       ...    1.0000e-11
Integration weight cutoff        WCut        ...    1.0000e-14
Grids for H and He will be reduced by one unit

# of grid points (after initial pruning)     ...  62330 (   0.1 sec)
# of grid points (after weights+screening)   ...  55534 (   2.5 sec)
nearest neighbour list constructed           ...    0.0 sec
Grid point re-assignment to atoms done       ...    0.0 sec
Grid point division into batches done        ...    0.0 sec
Reduced shell lists constructed in    1.0 sec

Total number of grid points                  ...    55534
Total number of batches                      ...      922
Average number of points per batch           ...       60
Average number of grid points per atom       ...      573
Average number of shells per batch           ...   114.73 (22.32%)
Average number of basis functions per batch  ...   240.89 (21.06%)
Average number of large shells per batch     ...    69.14 (60.27%)
Average number of large basis fcns per batch ...   147.54 (61.25%)
Maximum spatial batch extension              ...  26.99, 23.65, 19.08 au
Average spatial batch extension              ...   4.01,  4.50,  3.67 au

Overlap Fitting                  UseSFitting ... on
Constructing numerical overlap ... done (      0.7 sec)
Inverting numerical overlap    ... done (      0.0 sec)
Obtaining analytic overlap     ... done (      0.0 sec)
Final contraction and storage  ... done (      0.1 sec)


General Integration Accuracy     IntAcc      ...  4.010
Radial Grid Type                 RadialGrid  ... Gauss-Chebyshev
Angular Grid (max. acc.)         AngularGrid ... Lebedev-110
Angular grid pruning method      GridPruning ... 3 (G Style)
Weight generation scheme         WeightScheme... Becke
Basis function cutoff            BFCut       ...    1.0000e-11
Integration weight cutoff        WCut        ...    1.0000e-14
Grids for H and He will be reduced by one unit

# of grid points (after initial pruning)     ... 122236 (   0.2 sec)
# of grid points (after weights+screening)   ... 107653 (   4.9 sec)
nearest neighbour list constructed           ...    0.0 sec
Grid point re-assignment to atoms done       ...    0.0 sec
Grid point division into batches done        ...    0.1 sec
Reduced shell lists constructed in    1.8 sec

Total number of grid points                  ...   107653
Total number of batches                      ...     1731
Average number of points per batch           ...       62
Average number of grid points per atom       ...     1110
Average number of shells per batch           ...   108.44 (21.10%)
Average number of basis functions per batch  ...   227.23 (19.86%)
Average number of large shells per batch     ...    65.71 (60.59%)
Average number of large basis fcns per batch ...   139.81 (61.53%)
Maximum spatial batch extension              ...  19.81, 21.15, 18.98 au
Average spatial batch extension              ...   3.41,  3.81,  3.19 au

Overlap Fitting                  UseSFitting ... on
Constructing numerical overlap ... done (      1.1 sec)
Inverting numerical overlap    ... done (      0.0 sec)
Obtaining analytic overlap     ... done (      0.0 sec)
Final contraction and storage  ... done (      0.1 sec)

Time for X-Grid setup             =   16.109 sec
--------------
SCF ITERATIONS
--------------
ITER       Energy         Delta-E        Max-DP      RMS-DP      [F,P]     Damp
               ***  Starting incremental Fock matrix formation  ***
  0  -4970.3903004986   0.000000000000 0.07774128  0.00092630  0.2378247 0.7000
  1  -4970.9443129540  -0.554012455399 0.04622749  0.00064839  0.0987199 0.7000
                               ***Turning on DIIS***
  2  -4971.1733633631  -0.229050409085 0.10506232  0.00116270  0.0393946 0.0000
  3  -4971.5531419754  -0.379778612345 0.06632522  0.00047776  0.0717442 0.0000
  4  -4971.6255131204  -0.072371144994 0.01619585  0.00015288  0.0220961 0.0000
  5  -4971.6309628616  -0.005449741166 0.00663945  0.00006411  0.0086423 0.0000
  6  -4971.6321102670  -0.001147405446 0.00478226  0.00003618  0.0032325 0.0000
                      *** Initiating the SOSCF procedure ***
                           *** Shutting down DIIS ***
                      *** Re-Reading the Fockian *** 
                      *** Removing any level shift *** 
ITER      Energy       Delta-E        Grad      Rot      Max-DP    RMS-DP
  7  -4971.63250141  -0.0003911469  0.002410  0.002410  0.002497  0.000022
               *** Restarting incremental Fock matrix formation ***
  8  -4971.63261894  -0.0001175308  0.001728  0.011108  0.002440  0.000026
  9  -4971.63273147  -0.0001125286  0.000356  0.008895  0.003273  0.000031
 10  -4971.63274041  -0.0000089385  0.000367  0.003036  0.000971  0.000012
 11  -4971.63276562  -0.0000252083  0.000102  0.000617  0.000443  0.000005
 12  -4971.63276512   0.0000004970  0.000151  0.000339  0.000262  0.000002
 13  -4971.63276670  -0.0000015794  0.000028  0.000137  0.000184  0.000001
 14  -4971.63276666   0.0000000397  0.000022  0.000071  0.000077  0.000001
 15  -4971.63276681  -0.0000001434  0.000004  0.000024  0.000033  0.000000
 16  -4971.63276680   0.0000000101  0.000004  0.000008  0.000014  0.000000
                  ***Gradient check signals convergence***
              ***Rediagonalizing the Fockian in SOSCF/NRSCF***

               *****************************************************
               *                     SUCCESS                       *
               *           SCF CONVERGED AFTER  17 CYCLES          *
               *****************************************************

Setting up the final grid:

General Integration Accuracy     IntAcc      ...  5.010
Radial Grid Type                 RadialGrid  ... Gauss-Chebyshev
Angular Grid (max. acc.)         AngularGrid ... Lebedev-434
Angular grid pruning method      GridPruning ... 3 (G Style)
Weight generation scheme         WeightScheme... Becke
Basis function cutoff            BFCut       ...    1.0000e-11
Integration weight cutoff        WCut        ...    1.0000e-14
Grids for H and He will be reduced by one unit

# of grid points (after initial pruning)     ... 938664 (   1.4 sec)
# of grid points (after weights+screening)   ... 798855 (  37.6 sec)
nearest neighbour list constructed           ...    0.0 sec
Grid point re-assignment to atoms done       ...    0.1 sec
Grid point division into batches done        ...    5.4 sec
Reduced shell lists constructed in   15.9 sec

Total number of grid points                  ...   798855
Total number of batches                      ...    12529
Average number of points per batch           ...       63
Average number of grid points per atom       ...     8236
Average number of shells per batch           ...    92.74 (18.04%)
Average number of basis functions per batch  ...   192.03 (16.79%)
Average number of large shells per batch     ...    55.73 (60.09%)
Average number of large basis fcns per batch ...   117.02 (60.94%)
Maximum spatial batch extension              ...  22.66, 22.97, 20.04 au
Average spatial batch extension              ...   1.74,  1.83,  1.70 au

Final grid set up in   55.0 sec
Final integration                            ... done (  20.6 sec)
Change in XC energy                          ...     0.000096600
Integrated number of electrons               ...   526.000055909
Previous integrated no of electrons          ...   526.000882093
Old exchange energy                            =   -138.816510895 Eh
New exchange energy                            =   -138.813674387 Eh
Exchange energy change after final integration =      0.002836508 Eh
Total energy after final integration           =  -4971.629833699 Eh
Final COS-X integration done in                =   372.155 sec

----------------
TOTAL SCF ENERGY
----------------

Total Energy       :        -4971.62983370 Eh         -135284.92553 eV

Components:
Nuclear Repulsion  :        10878.13305130 Eh          296009.04914 eV
Electronic Energy  :       -15849.76288500 Eh         -431293.97466 eV
One Electron Energy:       -28480.48973678 Eh         -774993.52565 eV
Two Electron Energy:        12630.72685178 Eh          343699.55098 eV

Virial components:
Potential Energy   :        -9909.54962422 Eh         -269652.55415 eV
Kinetic Energy     :         4937.91979052 Eh          134367.62862 eV
Virial Ratio       :            2.00682677


DFT components:
N(Alpha)           :      263.000027954578 electrons
N(Beta)            :      263.000027954578 electrons
N(Total)           :      526.000055909157 electrons
E(XC)              :     -393.905188046381 Eh       
DFET-embed. en.    :        0.000000000000 Eh       

---------------
SCF CONVERGENCE
---------------

  Last Energy change         ...   -1.1021e-08  Tolerance :   1.0000e-08
  Last MAX-Density change    ...    7.9936e-15  Tolerance :   1.0000e-07
  Last RMS-Density change    ...    3.6733e-17  Tolerance :   5.0000e-09
  Last Orbital Gradient      ...    8.2749e-07  Tolerance :   1.0000e-05
  Last Orbital Rotation      ...    5.3026e-06  Tolerance :   1.0000e-05

             **** THE GBW FILE WAS UPDATED (Y6.gbw) ****
             **** DENSITY FILE WAS UPDATED (Y6.scfp) ****
             **** ENERGY FILE WAS UPDATED (Y6.en.tmp) ****
             **** THE GBW FILE WAS UPDATED (Y6.gbw) ****
             **** DENSITY FILE WAS UPDATED (Y6.scfp) ****
----------------
ORBITAL ENERGIES
----------------

  NO   OCC          E(Eh)            E(eV) 
   0   2.0000     -89.011287     -2422.1203 
   1   2.0000     -88.978659     -2421.2324 
   2   2.0000     -88.975071     -2421.1348 
   3   2.0000     -88.973559     -2421.0936 
   4   2.0000     -88.972240     -2421.0577 
   5   2.0000     -24.806307      -675.0139 
   6   2.0000     -24.805871      -675.0021 
   7   2.0000     -24.804849      -674.9743 
   8   2.0000     -24.803744      -674.9442 
   9   2.0000     -19.226283      -523.1738 
  10   2.0000     -19.224015      -523.1121 
  11   2.0000     -14.493413      -394.3858 
  12   2.0000     -14.489034      -394.2667 
  13   2.0000     -14.444587      -393.0572 
  14   2.0000     -14.444155      -393.0454 
  15   2.0000     -14.429528      -392.6474 
  16   2.0000     -14.425744      -392.5445 
  17   2.0000     -14.424065      -392.4988 
  18   2.0000     -14.422720      -392.4622 
  19   2.0000     -10.390890      -282.7505 
  20   2.0000     -10.389823      -282.7215 
  21   2.0000     -10.389352      -282.7086 
  22   2.0000     -10.388979      -282.6985 
  23   2.0000     -10.376163      -282.3497 
  24   2.0000     -10.375703      -282.3372 
  25   2.0000     -10.354518      -281.7608 
  26   2.0000     -10.354266      -281.7539 
  27   2.0000     -10.353654      -281.7373 
  28   2.0000     -10.352749      -281.7126 
  29   2.0000     -10.349886      -281.6347 
  30   2.0000     -10.349198      -281.6160 
  31   2.0000     -10.343163      -281.4518 
  32   2.0000     -10.341542      -281.4077 
  33   2.0000     -10.334394      -281.2131 
  34   2.0000     -10.333993      -281.2022 
  35   2.0000     -10.333864      -281.1987 
  36   2.0000     -10.333313      -281.1837 
  37   2.0000     -10.333265      -281.1824 
  38   2.0000     -10.332903      -281.1726 
  39   2.0000     -10.331878      -281.1447 
  40   2.0000     -10.329919      -281.0914 
  41   2.0000     -10.329493      -281.0798 
  42   2.0000     -10.329099      -281.0691 
  43   2.0000     -10.328496      -281.0527 
  44   2.0000     -10.326837      -281.0075 
  45   2.0000     -10.325531      -280.9720 
  46   2.0000     -10.325159      -280.9619 
  47   2.0000     -10.325050      -280.9589 
  48   2.0000     -10.323343      -280.9124 
  49   2.0000     -10.322698      -280.8949 
  50   2.0000     -10.320879      -280.8454 
  51   2.0000     -10.319732      -280.8142 
  52   2.0000     -10.319251      -280.8011 
  53   2.0000     -10.316727      -280.7324 
  54   2.0000     -10.316697      -280.7316 
  55   2.0000     -10.314754      -280.6787 
  56   2.0000     -10.314047      -280.6595 
  57   2.0000     -10.313715      -280.6505 
  58   2.0000     -10.312826      -280.6263 
  59   2.0000     -10.307834      -280.4904 
  60   2.0000     -10.306316      -280.4491 
  61   2.0000     -10.305912      -280.4381 
  62   2.0000     -10.305541      -280.4280 
  63   2.0000     -10.304217      -280.3920 
  64   2.0000     -10.304030      -280.3869 
  65   2.0000     -10.292515      -280.0736 
  66   2.0000     -10.291071      -280.0343 
  67   2.0000     -10.289478      -279.9909 
  68   2.0000     -10.289317      -279.9865 
  69   2.0000     -10.270934      -279.4863 
  70   2.0000     -10.270049      -279.4622 
  71   2.0000      -8.103019      -220.4944 
  72   2.0000      -8.073095      -219.6801 
  73   2.0000      -8.067321      -219.5230 
  74   2.0000      -8.067204      -219.5198 
  75   2.0000      -8.065696      -219.4787 
  76   2.0000      -6.074663      -165.3000 
  77   2.0000      -6.067192      -165.0967 
  78   2.0000      -6.064212      -165.0156 
  79   2.0000      -6.042771      -164.4321 
  80   2.0000      -6.038646      -164.3199 
  81   2.0000      -6.037143      -164.2790 
  82   2.0000      -6.037117      -164.2783 
  83   2.0000      -6.035684      -164.2393 
  84   2.0000      -6.034556      -164.2086 
  85   2.0000      -6.033161      -164.1707 
  86   2.0000      -6.032766      -164.1599 
  87   2.0000      -6.031621      -164.1287 
  88   2.0000      -6.028834      -164.0529 
  89   2.0000      -6.028117      -164.0334 
  90   2.0000      -6.026570      -163.9913 
  91   2.0000      -1.332564       -36.2609 
  92   2.0000      -1.331924       -36.2435 
  93   2.0000      -1.315877       -35.8068 
  94   2.0000      -1.315813       -35.8051 
  95   2.0000      -1.137748       -30.9597 
  96   2.0000      -1.136100       -30.9148 
  97   2.0000      -1.114646       -30.3311 
  98   2.0000      -1.106085       -30.0981 
  99   2.0000      -1.098297       -29.8862 
 100   2.0000      -1.019758       -27.7490 
 101   2.0000      -1.019398       -27.7392 
 102   2.0000      -1.013867       -27.5887 
 103   2.0000      -1.011960       -27.5368 
 104   2.0000      -1.002379       -27.2761 
 105   2.0000      -1.000052       -27.2128 
 106   2.0000      -0.994990       -27.0750 
 107   2.0000      -0.994436       -27.0600 
 108   2.0000      -0.979088       -26.6423 
 109   2.0000      -0.966602       -26.3026 
 110   2.0000      -0.959982       -26.1224 
 111   2.0000      -0.956175       -26.0188 
 112   2.0000      -0.951064       -25.8798 
 113   2.0000      -0.944318       -25.6962 
 114   2.0000      -0.911655       -24.8074 
 115   2.0000      -0.903580       -24.5877 
 116   2.0000      -0.901207       -24.5231 
 117   2.0000      -0.900289       -24.4981 
 118   2.0000      -0.898941       -24.4614 
 119   2.0000      -0.890369       -24.2282 
 120   2.0000      -0.881653       -23.9910 
 121   2.0000      -0.878889       -23.9158 
 122   2.0000      -0.873954       -23.7815 
 123   2.0000      -0.873538       -23.7702 
 124   2.0000      -0.858397       -23.3582 
 125   2.0000      -0.850489       -23.1430 
 126   2.0000      -0.834403       -22.7053 
 127   2.0000      -0.832068       -22.6417 
 128   2.0000      -0.826423       -22.4881 
 129   2.0000      -0.814957       -22.1761 
 130   2.0000      -0.806098       -21.9350 
 131   2.0000      -0.802521       -21.8377 
 132   2.0000      -0.791859       -21.5476 
 133   2.0000      -0.773440       -21.0464 
 134   2.0000      -0.771589       -20.9960 
 135   2.0000      -0.765919       -20.8417 
 136   2.0000      -0.754745       -20.5377 
 137   2.0000      -0.748359       -20.3639 
 138   2.0000      -0.746679       -20.3182 
 139   2.0000      -0.733270       -19.9533 
 140   2.0000      -0.726726       -19.7752 
 141   2.0000      -0.721396       -19.6302 
 142   2.0000      -0.715487       -19.4694 
 143   2.0000      -0.712039       -19.3756 
 144   2.0000      -0.708568       -19.2811 
 145   2.0000      -0.701657       -19.0930 
 146   2.0000      -0.698128       -18.9970 
 147   2.0000      -0.689682       -18.7672 
 148   2.0000      -0.683436       -18.5972 
 149   2.0000      -0.675024       -18.3683 
 150   2.0000      -0.663020       -18.0417 
 151   2.0000      -0.660442       -17.9715 
 152   2.0000      -0.657966       -17.9042 
 153   2.0000      -0.652593       -17.7580 
 154   2.0000      -0.645490       -17.5647 
 155   2.0000      -0.644249       -17.5309 
 156   2.0000      -0.641060       -17.4441 
 157   2.0000      -0.636957       -17.3325 
 158   2.0000      -0.628968       -17.1151 
 159   2.0000      -0.621883       -16.9223 
 160   2.0000      -0.615682       -16.7536 
 161   2.0000      -0.612122       -16.6567 
 162   2.0000      -0.609013       -16.5721 
 163   2.0000      -0.600804       -16.3487 
 164   2.0000      -0.597548       -16.2601 
 165   2.0000      -0.595847       -16.2138 
 166   2.0000      -0.594213       -16.1694 
 167   2.0000      -0.593733       -16.1563 
 168   2.0000      -0.592779       -16.1303 
 169   2.0000      -0.588188       -16.0054 
 170   2.0000      -0.580912       -15.8074 
 171   2.0000      -0.577061       -15.7026 
 172   2.0000      -0.569650       -15.5010 
 173   2.0000      -0.562067       -15.2946 
 174   2.0000      -0.560765       -15.2592 
 175   2.0000      -0.556630       -15.1467 
 176   2.0000      -0.554596       -15.0913 
 177   2.0000      -0.554557       -15.0903 
 178   2.0000      -0.552682       -15.0392 
 179   2.0000      -0.551787       -15.0149 
 180   2.0000      -0.550845       -14.9893 
 181   2.0000      -0.549208       -14.9447 
 182   2.0000      -0.543831       -14.7984 
 183   2.0000      -0.539919       -14.6919 
 184   2.0000      -0.538627       -14.6568 
 185   2.0000      -0.534691       -14.5497 
 186   2.0000      -0.534262       -14.5380 
 187   2.0000      -0.533571       -14.5192 
 188   2.0000      -0.531538       -14.4639 
 189   2.0000      -0.530549       -14.4370 
 190   2.0000      -0.528340       -14.3769 
 191   2.0000      -0.523440       -14.2435 
 192   2.0000      -0.520438       -14.1618 
 193   2.0000      -0.513287       -13.9672 
 194   2.0000      -0.511872       -13.9287 
 195   2.0000      -0.509845       -13.8736 
 196   2.0000      -0.507188       -13.8013 
 197   2.0000      -0.505592       -13.7579 
 198   2.0000      -0.499499       -13.5920 
 199   2.0000      -0.499085       -13.5808 
 200   2.0000      -0.496962       -13.5230 
 201   2.0000      -0.496285       -13.5046 
 202   2.0000      -0.494934       -13.4678 
 203   2.0000      -0.493749       -13.4356 
 204   2.0000      -0.490536       -13.3482 
 205   2.0000      -0.487376       -13.2622 
 206   2.0000      -0.484049       -13.1716 
 207   2.0000      -0.482753       -13.1364 
 208   2.0000      -0.480145       -13.0654 
 209   2.0000      -0.474719       -12.9178 
 210   2.0000      -0.472878       -12.8677 
 211   2.0000      -0.471385       -12.8270 
 212   2.0000      -0.467734       -12.7277 
 213   2.0000      -0.461518       -12.5585 
 214   2.0000      -0.460037       -12.5182 
 215   2.0000      -0.459385       -12.5005 
 216   2.0000      -0.458494       -12.4763 
 217   2.0000      -0.457619       -12.4525 
 218   2.0000      -0.456285       -12.4161 
 219   2.0000      -0.455518       -12.3953 
 220   2.0000      -0.455190       -12.3864 
 221   2.0000      -0.454752       -12.3744 
 222   2.0000      -0.452632       -12.3168 
 223   2.0000      -0.450704       -12.2643 
 224   2.0000      -0.449338       -12.2271 
 225   2.0000      -0.448829       -12.2133 
 226   2.0000      -0.445839       -12.1319 
 227   2.0000      -0.439416       -11.9571 
 228   2.0000      -0.435798       -11.8587 
 229   2.0000      -0.432022       -11.7559 
 230   2.0000      -0.431221       -11.7341 
 231   2.0000      -0.430928       -11.7262 
 232   2.0000      -0.428629       -11.6636 
 233   2.0000      -0.428251       -11.6533 
 234   2.0000      -0.424552       -11.5527 
 235   2.0000      -0.423797       -11.5321 
 236   2.0000      -0.421524       -11.4703 
 237   2.0000      -0.420351       -11.4383 
 238   2.0000      -0.415782       -11.3140 
 239   2.0000      -0.412226       -11.2172 
 240   2.0000      -0.410363       -11.1666 
 241   2.0000      -0.406938       -11.0733 
 242   2.0000      -0.405931       -11.0460 
 243   2.0000      -0.401793       -10.9333 
 244   2.0000      -0.399992       -10.8843 
 245   2.0000      -0.395051       -10.7499 
 246   2.0000      -0.375704       -10.2234 
 247   2.0000      -0.372056       -10.1242 
 248   2.0000      -0.366513        -9.9733 
 249   2.0000      -0.353281        -9.6133 
 250   2.0000      -0.351202        -9.5567 
 251   2.0000      -0.348800        -9.4913 
 252   2.0000      -0.344681        -9.3792 
 253   2.0000      -0.343747        -9.3538 
 254   2.0000      -0.341830        -9.3017 
 255   2.0000      -0.322831        -8.7847 
 256   2.0000      -0.320718        -8.7272 
 257   2.0000      -0.316620        -8.6157 
 258   2.0000      -0.311644        -8.4803 
 259   2.0000      -0.295962        -8.0535 
 260   2.0000      -0.284879        -7.7519 
 261   2.0000      -0.282713        -7.6930 
 262   2.0000      -0.247823        -6.7436 
 263   0.0000      -0.102731        -2.7955 
 264   0.0000      -0.092264        -2.5106 
 265   0.0000      -0.070576        -1.9205 
 266   0.0000      -0.066243        -1.8026 
 267   0.0000      -0.050228        -1.3668 
 268   0.0000      -0.020880        -0.5682 
 269   0.0000      -0.014171        -0.3856 
 270   0.0000       0.010321         0.2808 
 271   0.0000       0.020813         0.5663 
 272   0.0000       0.028995         0.7890 
 273   0.0000       0.030258         0.8234 
 274   0.0000       0.038094         1.0366 
 275   0.0000       0.038549         1.0490 
 276   0.0000       0.044412         1.2085 
 277   0.0000       0.049971         1.3598 
 278   0.0000       0.050850         1.3837 
 279   0.0000       0.058948         1.6040 
 280   0.0000       0.059446         1.6176 
 281   0.0000       0.062722         1.7067 
 282   0.0000       0.066773         1.8170 
 283   0.0000       0.071508         1.9458 
 284   0.0000       0.078616         2.1393 
 285   0.0000       0.079389         2.1603 
 286   0.0000       0.080394         2.1876 
 287   0.0000       0.083552         2.2736 
 288   0.0000       0.089230         2.4281 
 289   0.0000       0.090171         2.4537 
 290   0.0000       0.092025         2.5041 
 291   0.0000       0.095370         2.5952 
 292   0.0000       0.099280         2.7015 
 293   0.0000       0.102917         2.8005 
 294   0.0000       0.105213         2.8630 
 295   0.0000       0.107365         2.9215 
 296   0.0000       0.108843         2.9618 
 297   0.0000       0.112759         3.0683 
 298   0.0000       0.113516         3.0889 
 299   0.0000       0.122771         3.3408 
 300   0.0000       0.126396         3.4394 
 301   0.0000       0.127285         3.4636 
 302   0.0000       0.132113         3.5950 
 303   0.0000       0.132987         3.6188 
 304   0.0000       0.135501         3.6872 
 305   0.0000       0.140436         3.8215 
 306   0.0000       0.143339         3.9005 
 307   0.0000       0.143803         3.9131 
 308   0.0000       0.146479         3.9859 
 309   0.0000       0.146759         3.9935 
 310   0.0000       0.149977         4.0811 
[...]
   2      3.35     370.6    92 ->  95      gap,J,K:    4.823     1.665     0.094
   3      3.39     365.3    90 ->  93      gap,J,K:    4.956     1.811     0.124
   4      3.45     359.8    91 ->  93      gap,J,K:    4.898     1.911     0.230
   5      3.50     353.9    92 ->  96      gap,J,K:    4.941     1.627     0.095
   6      3.59     345.4    92 ->  97      gap,J,K:    5.377     2.193     0.203
   7      3.65     339.4    89 ->  93      gap,J,K:    5.258     1.863     0.129
   8      3.69     336.4    91 ->  94      gap,J,K:    5.182     1.828     0.166
   9      3.72     333.4    90 ->  94      gap,J,K:    5.241     1.652     0.065
  10      3.97     312.2    89 ->  94      gap,J,K:    5.543     1.700     0.064
  11      4.29     289.3    91 ->  95      gap,J,K:    5.773     1.739     0.126
  12      4.30     288.4    88 ->  93      gap,J,K:    5.685     1.808     0.211
  13      4.39     282.7    86 ->  93      gap,J,K:    5.932     1.759     0.107
  14      4.40     282.0    91 ->  96      gap,J,K:    5.890     1.733     0.119
  15      4.41     280.8    87 ->  93      gap,J,K:    5.820     1.716     0.155
  16      4.42     280.6    90 ->  95      gap,J,K:    5.831     1.530     0.059
  17      4.51     274.8    90 ->  97      gap,J,K:    6.385     2.358     0.242
  18      4.53     273.5    90 ->  96      gap,J,K:    5.949     1.492     0.038
  19      4.56     271.7    85 ->  93      gap,J,K:    5.989     1.691     0.133
  20      4.59     269.8    92 ->  98      gap,J,K:    6.175     1.861     0.140
  21      4.62     268.2    88 ->  94      gap,J,K:    5.970     1.817     0.235
  22      4.63     267.6    89 ->  95      gap,J,K:    6.133     1.582     0.041
  23      4.67     265.8    89 ->  97      gap,J,K:    6.687     2.190     0.084
  24      4.67     265.3    91 ->  97      gap,J,K:    6.326     1.907     0.127

average / max PT2 energy lowering (eV):       0.046       0.075

CSF included by PT:                   197 
total number of CSF included:         230 
 
sTD-DFT procedure...
setting up A+B and A-B matrices...  done
estimated time (min):    0.001
calculating (A-B)^0.5 ... done
calculating (A+B)*(A-B)^0.5 ... done
calculating (A-B)^0.5 *(A+B)*(A-B)^0.5 ... done
diagonalizing ...using LAPACKE_ssyevr ...done

   38 roots found, lowest/highest eigenvalue :     2.101     4.940

excitation energies, transition moments and amplitudes

molecular weight: 1031.126
state   eV        nm        fL         fV        Rl        RV
   0   2.101     590.1   2.301944   2.641563  -273.745388  -263.427090     0.89 (  92->  93)    0.07 (  91->  94)    0.01 (  90->  94)
   1   2.516     492.8   0.363504   0.397752  -2.211570  17.375418     0.81 (  92->  94)    0.12 (  91->  93)    0.02 (  90->  93)
   2   3.019     410.6   0.039568   0.036683  -155.943737  -167.052174     0.70 (  92->  95)    0.08 (  91->  96)    0.05 (  91->  94)
   3   3.081     402.4   0.074418   0.064615  39.903361  35.874460     0.61 (  90->  93)    0.13 (  89->  94)    0.11 (  91->  93)
   4   3.161     392.2   0.175032   0.177545  283.627633  288.592050     0.53 (  92->  96)    0.09 (  92->  97)    0.09 (  91->  95)
   5   3.193     388.3   0.140180   0.127889  49.394609  47.749361     0.41 (  89->  93)    0.21 (  90->  94)    0.13 (  92->  96)
   6   3.286     377.4   0.128353   0.125314  -18.187613  -14.107001     0.56 (  91->  93)    0.11 (  92->  94)    0.11 (  90->  93)
   7   3.323     373.1   0.037530   0.037244  -62.023535  -62.274280     0.68 (  92->  97)    0.05 (  91->  93)    0.04 (  89->  93)
   8   3.589     345.5   0.103002   0.120147  65.054820  59.870692     0.55 (  91->  94)    0.17 (  88->  93)    0.07 (  92->  93)
   9   3.696     335.5   0.053502   0.054414  -93.677193  -97.881092     0.34 (  89->  94)    0.13 (  87->  93)    0.10 (  86->  93)
  10   3.751     330.6   0.169316   0.155011  -41.086338  -52.725307     0.15 (  88->  93)    0.14 (  87->  94)    0.11 (  87->  93)
  11   3.823     324.3   0.051258   0.048552  211.209776  194.235224     0.32 (  90->  94)    0.19 (  89->  93)    0.11 (  86->  93)
  12   3.874     320.0   0.111945   0.104130   6.348782   1.589989     0.14 (  82->  93)    0.12 (  85->  93)    0.09 (  87->  93)
  13   3.888     318.9   0.060809   0.055007  86.197979  90.374883     0.30 (  82->  93)    0.16 (  82->  94)    0.07 (  82->  96)
  14   4.020     308.4   0.029132   0.026854  -57.949308  -56.325648     0.28 (  83->  93)    0.23 (  83->  94)    0.09 (  81->  93)
  15   4.065     305.0   0.100356   0.094931  166.339531  159.836503     0.17 (  83->  95)    0.14 (  83->  96)    0.09 (  82->  96)
  16   4.073     304.4   0.007984   0.007223  -53.675365  -51.249590     0.43 (  82->  95)    0.16 (  82->  96)    0.10 (  82->  94)
  17   4.115     301.3   0.072628   0.064053  248.721981  235.292382     0.27 (  89->  95)    0.14 (  90->  96)    0.08 (  91->  95)
  18   4.136     299.7   0.013573   0.013011  104.506796  96.095795     0.30 (  91->  95)    0.09 (  86->  93)    0.06 (  89->  96)
  19   4.161     298.0   0.176904   0.151489  236.026251  221.937528     0.28 (  90->  95)    0.18 (  90->  97)    0.10 (  86->  93)
  20   4.208     294.7   0.044597   0.037761  -25.190613  -24.634156     0.18 (  89->  96)    0.16 (  90->  97)    0.14 (  90->  95)
  21   4.221     293.7   0.076957   0.066709  -180.687855  -169.699555     0.33 (  91->  96)    0.19 (  92->  98)    0.09 (  92->  95)
  22   4.260     291.1   0.057077   0.044285  -145.870306  -135.995842     0.23 (  88->  93)    0.22 (  85->  93)    0.10 (  91->  94)
  23   4.310     287.7   0.049681   0.040440  -17.499423  -17.509131     0.27 (  89->  94)    0.22 (  90->  97)    0.11 (  86->  93)
  24   4.349     285.1   0.143531   0.123384  153.323376  141.959877     0.17 (  89->  97)    0.12 (  90->  96)    0.09 (  92->  98)
  25   4.443     279.1   0.167002   0.147340  -864.871283  -806.039492     0.42 (  92->  98)    0.13 (  91->  96)    0.08 (  90->  96)
  26   4.454     278.4   0.233963   0.203633  820.437717  766.090904     0.15 (  88->  94)    0.10 (  91->  97)    0.09 (  85->  96)
  27   4.515     274.6   0.181851   0.156262  -325.001970  -285.876777     0.17 (  91->  97)    0.14 (  89->  97)    0.09 (  84->  93)
  28   4.525     274.0   0.169739   0.147393  -1010.850692  -940.959971     0.14 (  80->  93)    0.10 (  89->  97)    0.08 (  79->  94)
  29   4.566     271.5   0.022810   0.020434  130.371705  120.639011     0.31 (  91->  97)    0.21 (  89->  97)    0.07 (  84->  93)
  30   4.597     269.7   0.258178   0.213213  641.089218  596.822416     0.21 (  85->  94)    0.19 (  88->  94)    0.07 (  88->  96)
  31   4.630     267.8   0.311733   0.250112  822.709871  737.796008     0.12 (  80->  94)    0.12 (  92->  99)    0.10 (  80->  93)
  32   4.701     263.7   0.190793   0.148426  -567.855277  -491.521034     0.22 (  92->  99)    0.10 (  80->  93)    0.08 (  87->  96)
  33   4.742     261.5   0.118216   0.094222  -72.447835  -70.108059     0.33 (  92->  99)    0.08 (  88->  94)    0.07 (  87->  95)
  34   4.784     259.2   0.048524   0.038351  -128.251549  -111.408987     0.19 (  90->  95)    0.14 (  84->  94)    0.10 (  89->  96)
  35   4.820     257.3   0.012370   0.009319  -42.840072  -36.996928     0.14 (  84->  93)    0.09 (  86->  94)    0.08 (  87->  94)
  36   4.847     255.8   0.004344   0.003211   4.021579   3.530857     0.15 (  84->  93)    0.13 (  86->  94)    0.10 (  87->  94)
  37   4.940     251.0   0.017685   0.013399  14.557528  12.224629     0.22 (  89->  96)    0.12 (  90->  96)    0.11 (  89->  95)

-----------------------------------------------------------------------------
         ABSORPTION SPECTRUM VIA TRANSITION ELECTRIC DIPOLE MOMENTS
-----------------------------------------------------------------------------
State   Energy  Wavelength   fosc         T2         TX        TY        TZ  
        (cm-1)    (nm)                  (au**2)     (au)      (au)      (au) 
-----------------------------------------------------------------------------
   0   16944.9    590.1   2.301944449  44.72298  -4.32478   2.30744   4.54917
   1   20290.5    492.8   0.363504430   5.89783   1.05663  -0.58764   2.10619
   2   24351.8    410.6   0.039567871   0.53492   0.27783  -0.56357  -0.37432
   3   24848.1    402.4   0.074417846   0.98596   0.31998   0.43690   0.83228
   4   25495.8    392.2   0.175032294   2.26009   0.83173  -0.39496   1.18841
   5   25754.4    388.3   0.140179626   1.79188  -1.29780   0.32562  -0.03960
   6   26499.5    377.4   0.128352593   1.59457   0.86209  -0.25519   0.88671
   7   26801.7    373.1   0.037530234   0.46099  -0.14222   0.45951  -0.47918
   8   28947.6    345.5   0.103002109   1.17141  -0.65167   0.14021   0.85268
   9   29808.0    335.5   0.053501751   0.59090  -0.01914  -0.36171  -0.67801
  10   30252.1    330.6   0.169316040   1.84254  -0.58749   1.15741  -0.39725
  11   30833.1    324.3   0.051258445   0.54730  -0.50891   0.24035  -0.48015
  12   31247.6    320.0   0.111945342   1.17941   0.77161   0.35804   0.67516
  13   31362.5    318.9   0.060808790   0.63831  -0.67167  -0.10728  -0.41912
  14   32423.9    308.4   0.029131681   0.29579  -0.18081   0.50636   0.08183
  15   32785.4    305.0   0.100355886   1.00772  -0.48686   0.80044  -0.36053
  16   32847.4    304.4   0.007983748   0.08002   0.01924   0.28126   0.02322
  17   33190.5    301.3   0.072627854   0.72039   0.38294  -0.17465   0.73705
  18   33362.7    299.7   0.013572666   0.13393   0.32082  -0.15089   0.09077
  19   33560.4    298.0   0.176904198   1.73535  -0.96906   0.04520  -0.89120
  20   33936.1    294.7   0.044597003   0.43263  -0.16852  -0.15592  -0.61638
  21   34045.6    293.7   0.076957212   0.74415  -0.64455  -0.54576  -0.17568
  22   34355.5    291.1   0.057076998   0.54694   0.09667  -0.60982  -0.40709
  23   34759.1    287.7   0.049681068   0.47054   0.06540   0.06126   0.68008
  24   35076.4    285.1   0.143530970   1.34712  -1.00330   0.57729   0.08511
  25   35831.6    279.1   0.167002205   1.53437  -0.00336   1.02122   0.70105
  26   35921.9    278.4   0.233963074   2.14419   0.89372  -0.83981   0.80011
  27   36414.9    274.6   0.181850727   1.64404   1.20698   0.42755  -0.06661
  28   36495.5    274.0   0.169738774   1.53115   0.50668   1.11873  -0.15124
  29   36829.9    271.5   0.022810083   0.20389   0.10884  -0.25470   0.35662
  30   37074.3    269.7   0.258178177   2.29257   1.50275  -0.18514  -0.00582
  31   37341.1    267.8   0.311733286   2.74835  -0.82776   0.84164  -1.16396
  32   37918.5    263.7   0.190793285   1.65649   1.01686   0.43176  -0.66036
  33   38245.0    261.5   0.118215525   1.01760   0.57265   0.00111  -0.83046
  34   38584.1    259.2   0.048523768   0.41402  -0.47926  -0.27446  -0.33015
  35   38872.1    257.3   0.012370368   0.10477  -0.29959  -0.11818   0.03230
  36   39093.4    255.8   0.004343559   0.03658  -0.04642  -0.04468  -0.18008
  37   39846.2    251.0   0.017684517   0.14611  -0.04494  -0.13385  -0.35521

-----------------------------------------------------------------------------
         ABSORPTION SPECTRUM VIA TRANSITION VELOCITY DIPOLE MOMENTS
-----------------------------------------------------------------------------
State   Energy  Wavelength   fosc         P2         PX        PY        PZ  
        (cm-1)    (nm)                  (au**2)     (au)      (au)      (au) 
-----------------------------------------------------------------------------
   0   16944.9    590.1   2.641562953   0.30592  -0.35675   0.18993   0.37759
   1   20290.5    492.8   0.397752335   0.05516   0.10165  -0.05806   0.20360
   2   24351.8    410.6   0.036682833   0.00611   0.02802  -0.06244  -0.03770
   3   24848.1    402.4   0.064615486   0.01097   0.03277   0.04669   0.08786
   4   25495.8    392.2   0.177545124   0.03094   0.09570  -0.04666   0.14001
   5   25754.4    388.3   0.127888704   0.02251  -0.14526   0.03688  -0.00713
   6   26499.5    377.4   0.125314423   0.02270   0.10098  -0.03067   0.10751
   7   26801.7    373.1   0.037244301   0.00682  -0.01554   0.05594  -0.05875
   8   28947.6    345.5   0.120147192   0.02377  -0.09427   0.02233   0.11994
   9   29808.0    335.5   0.054413720   0.01109  -0.00381  -0.05000  -0.09258
  10   30252.1    330.6   0.155010909   0.03205  -0.07674   0.15136  -0.05701
  11   30833.1    324.3   0.048552161   0.01023  -0.07026   0.03003  -0.06628
  12   31247.6    320.0   0.104130395   0.02224   0.10437   0.05034   0.09387
  13   31362.5    318.9   0.055006569   0.01179  -0.09148  -0.01293  -0.05705
  14   32423.9    308.4   0.026854004   0.00595  -0.02347   0.07227   0.01334
  15   32785.4    305.0   0.094930915   0.02127  -0.06971   0.11671  -0.05284
  16   32847.4    304.4   0.007222910   0.00162   0.00304   0.04006   0.00277
  17   33190.5    301.3   0.064052858   0.01453   0.05652  -0.02533   0.10341
  18   33362.7    299.7   0.013010677   0.00297   0.04846  -0.01940   0.01557
  19   33560.4    298.0   0.151488665   0.03475  -0.13661   0.00698  -0.12663
  20   33936.1    294.7   0.037761391   0.00876  -0.02389  -0.02271  -0.08759
  21   34045.6    293.7   0.066708643   0.01552  -0.08994  -0.08180  -0.02723
  22   34355.5    291.1   0.044285280   0.01040   0.01161  -0.08523  -0.05476
  23   34759.1    287.7   0.040439849   0.00961   0.01101   0.00878   0.09700
  24   35076.4    285.1   0.123383735   0.02958  -0.14907   0.08513   0.01053
  25   35831.6    279.1   0.147340116   0.03608  -0.00352   0.15639   0.10776
  26   35921.9    278.4   0.203633353   0.04999   0.13750  -0.12757   0.12171
  27   36414.9    274.6   0.156261980   0.03889   0.18638   0.06390  -0.00829
  28   36495.5    274.0   0.147392802   0.03676   0.07737   0.17393  -0.02298
  29   36829.9    271.5   0.020434168   0.00514   0.01819  -0.03891   0.05743
  30   37074.3    269.7   0.213213350   0.05402   0.23057  -0.02930   0.00231
  31   37341.1    267.8   0.250111686   0.06383  -0.12622   0.12848  -0.17718
  32   37918.5    263.7   0.148425756   0.03847   0.15895   0.06510  -0.09467
  33   38245.0    261.5   0.094221791   0.02463   0.08706   0.00332  -0.13053
  34   38584.1    259.2   0.038350651   0.01011  -0.07468  -0.04245  -0.05229
  35   38872.1    257.3   0.009319058   0.00248  -0.04642  -0.01721   0.00498
  36   39093.4    255.8   0.003211022   0.00086  -0.00436  -0.00785  -0.02788
  37   39846.2    251.0   0.013398574   0.00365  -0.00598  -0.02166  -0.05607

-------------------------------------------------------------------
                             CD SPECTRUM
-------------------------------------------------------------------
State   Energy Wavelength       R         MX        MY        MZ   
        (cm-1)   (nm)       (1e40*cgs)   (au)      (au)      (au)  
-------------------------------------------------------------------
   0   16944.9    590.1    -273.74539   1.73695   8.75610  -2.53474
   1   20290.5    492.8     -2.21157   1.37268   5.60530   0.87974
   2   24351.8    410.6    -155.94374  -0.32945  -2.11671   1.17503
   3   24848.1    402.4     39.90336   0.21650   1.50342  -1.07584
   4   25495.8    392.2    283.62763   0.03140   3.16615   0.01780
   5   25754.4    388.3     49.39461   0.10158  -0.22888   0.08052
   6   26499.5    377.4    -18.18761   0.86082   3.45572   0.24464
   7   26801.7    373.1    -62.02354  -0.14178  -0.67560  -1.15490
   8   28947.6    345.5     65.05482   0.19376   2.23585  -0.54324
   9   29808.0    335.5    -93.67719  -0.66248  -2.19898   0.60569
  10   30252.1    330.6    -41.08634   0.88316   0.05918  -1.57243
  11   30833.1    324.3    211.20978   0.10133  -2.51724   0.49864
  12   31247.6    320.0      6.34878  -0.10439   4.40373  -2.25593
  13   31362.5    318.9     86.19798   0.27027  -2.99204   1.20518
  14   32423.9    308.4    -57.94931   0.50614   0.76035  -0.58245
  15   32785.4    305.0    166.33953   1.16277  -0.35127  -0.39282
  16   32847.4    304.4    -53.67537   0.01377   0.82499  -0.19788
  17   33190.5    301.3    248.72198  -0.15339   2.99188  -0.64293
  18   33362.7    299.7    104.50680  -0.39196   1.77431  -0.54948
  19   33560.4    298.0    236.02625   0.01249  -3.08713   0.95338
  20   33936.1    294.7    -25.19061  -0.47523  -1.80368   0.41281
  21   34045.6    293.7    -180.68786  -0.26253  -1.61897   1.62935
  22   34355.5    291.1    -145.87031  -0.36107  -2.05164   1.46748
  23   34759.1    287.7    -17.49942   0.66363   1.47699  -0.08770
  24   35076.4    285.1    153.32338   0.88921   0.46713  -0.32859
  25   35831.6    279.1    -864.87128   0.72724   6.00156  -3.50538
  26   35921.9    278.4    820.43772  -1.85832   2.20606   0.04120
  27   36414.9    274.6    -325.00197  -0.13698   3.23564  -2.41246
  28   36495.5    274.0    -1010.85069   0.94561   3.00357  -2.96885
  29   36829.9    271.5    130.37171  -0.30528   1.60870  -0.30877
  30   37074.3    269.7    641.08922  -1.35727   3.74274  -2.20972
  31   37341.1    267.8    822.70987   2.25419  -2.11968  -0.13725
  32   37918.5    263.7    -567.85528   0.77214   1.47562  -1.49423
  33   38245.0    261.5    -72.44783  -1.94838  -0.70277  -1.71453
  34   38584.1    259.2    -128.25155  -0.59470  -2.30095   1.12815
  35   38872.1    257.3    -42.84007  -0.44377  -0.32017   0.33907
  36   39093.4    255.8      4.02158  -0.10007  -0.27606   0.18903
  37   39846.2    251.0     14.55753  -0.05609  -0.74440   0.46147

sTD-DFT done

Total run time:        3.910 sec

           *** ORCA-CIS/TD-DFT FINISHED WITHOUT ERROR ***

-------------------------   --------------------
FINAL SINGLE POINT ENERGY     -4971.629833699295
-------------------------   --------------------


                            ***************************************
                            *     ORCA property calculations      *
                            ***************************************

                                    ---------------------
                                    Active property flags
                                    ---------------------
   (+) Dipole Moment


------------------------------------------------------------------------------
                       ORCA ELECTRIC PROPERTIES CALCULATION
------------------------------------------------------------------------------

Dipole Moment Calculation                       ... on
Quadrupole Moment Calculation                   ... off
Polarizability Calculation                      ... off
GBWName                                         ... Y6.gbw
Electron density file                           ... Y6.scfp
The origin for moment calculation is the CENTER OF MASS  = (18.502030, -1.835911 -2.903141)

-------------
DIPOLE MOMENT
-------------
                                X             Y             Z
Electronic contribution:    -18.69151       4.98786      -7.27784
Nuclear contribution   :     18.14427      -4.89251       7.16667
                        -----------------------------------------
Total Dipole Moment    :     -0.54724       0.09535      -0.11117
                        -----------------------------------------
Magnitude (a.u.)       :      0.56650
Magnitude (Debye)      :      1.43994



--------------------
Rotational spectrum 
--------------------
 
Rotational constants in cm-1:     0.001596     0.000261     0.000235 
Rotational constants in MHz :    47.853381     7.822356     7.055460 

 Dipole components along the rotational axes: 
x,y,z [a.u.] :     0.303071    -0.461352     0.127390 
x,y,z [Debye]:     0.770345    -1.172665     0.323798 

 

Timings for individual modules:

Sum of individual times         ...     3563.452 sec (=  59.391 min)
GTO integral calculation        ...        3.043 sec (=   0.051 min)   0.1 %
SCF iterations                  ...     3556.440 sec (=  59.274 min)  99.8 %
CIS module                      ...        3.969 sec (=   0.066 min)   0.1 %
                             ****ORCA TERMINATED NORMALLY****
TOTAL RUN TIME: 0 days 0 hours 59 minutes 23 seconds 944 msec
